
                                 *****************
                                 * O   R   C   A *
                                 *****************

                                            #,                                       
                                            ###                                      
                                            ####                                     
                                            #####                                    
                                            ######                                   
                                           ########,                                 
                                     ,,################,,,,,                         
                               ,,#################################,,                 
                          ,,##########################################,,             
                       ,#########################################, ''#####,          
                    ,#############################################,,   '####,        
                  ,##################################################,,,,####,       
                ,###########''''           ''''###############################       
              ,#####''   ,,,,##########,,,,          '''####'''          '####       
            ,##' ,,,,###########################,,,                        '##       
           ' ,,###''''                  '''############,,,                           
         ,,##''                                '''############,,,,        ,,,,,,###''
      ,#''                                            '''#######################'''  
     '                                                          ''''####''''         
             ,#######,   #######,   ,#######,      ##                                
            ,#'     '#,  ##    ##  ,#'     '#,    #''#        ######   ,####,        
            ##       ##  ##   ,#'  ##            #'  '#       #        #'  '#        
            ##       ##  #######   ##           ,######,      #####,   #    #        
            '#,     ,#'  ##    ##  '#,     ,#' ,#      #,         ##   #,  ,#        
             '#######'   ##     ##  '#######'  #'      '#     #####' # '####'        



                  #######################################################
                  #                        -***-                        #
                  #          Department of theory and spectroscopy      #
                  #    Directorship and core code : Frank Neese         #
                  #        Max Planck Institute fuer Kohlenforschung    #
                  #                Kaiser Wilhelm Platz 1               #
                  #                 D-45470 Muelheim/Ruhr               #
                  #                      Germany                        #
                  #                                                     #
                  #                  All rights reserved                #
                  #                        -***-                        #
                  #######################################################


                         Program Version 5.0.3 -  RELEASE  -


 With contributions from (in alphabetic order):
   Daniel Aravena         : Magnetic Suceptibility
   Michael Atanasov       : Ab Initio Ligand Field Theory (pilot matlab implementation)
   Alexander A. Auer      : GIAO ZORA, VPT2 properties, NMR spectrum
   Ute Becker             : Parallelization
   Giovanni Bistoni       : ED, misc. LED, open-shell LED, HFLD
   Martin Brehm           : Molecular dynamics
   Dmytro Bykov           : SCF Hessian
   Vijay G. Chilkuri      : MRCI spin determinant printing, contributions to CSF-ICE
   Dipayan Datta          : RHF DLPNO-CCSD density
   Achintya Kumar Dutta   : EOM-CC, STEOM-CC
   Dmitry Ganyushin       : Spin-Orbit,Spin-Spin,Magnetic field MRCI
   Miquel Garcia          : C-PCM and meta-GGA Hessian, CC/C-PCM, Gaussian charge scheme
   Yang Guo               : DLPNO-NEVPT2, F12-NEVPT2, CIM, IAO-localization
   Andreas Hansen         : Spin unrestricted coupled pair/coupled cluster methods
   Benjamin Helmich-Paris : MC-RPA, TRAH-SCF, COSX integrals
   Lee Huntington         : MR-EOM, pCC
   Robert Izsak           : Overlap fitted RIJCOSX, COSX-SCS-MP3, EOM
   Marcus Kettner         : VPT2
   Christian Kollmar      : KDIIS, OOCD, Brueckner-CCSD(T), CCSD density, CASPT2, CASPT2-K
   Simone Kossmann        : Meta GGA functionals, TD-DFT gradient, OOMP2, MP2 Hessian
   Martin Krupicka        : Initial AUTO-CI
   Lucas Lang             : DCDCAS
   Marvin Lechner         : AUTO-CI (C++ implementation), FIC-MRCC
   Dagmar Lenk            : GEPOL surface, SMD
   Dimitrios Liakos       : Extrapolation schemes; Compound Job, initial MDCI parallelization
   Dimitrios Manganas     : Further ROCIS development; embedding schemes
   Dimitrios Pantazis     : SARC Basis sets
   Anastasios Papadopoulos: AUTO-CI, single reference methods and gradients
   Taras Petrenko         : DFT Hessian,TD-DFT gradient, ASA, ECA, R-Raman, ABS, FL, XAS/XES, NRVS
   Peter Pinski           : DLPNO-MP2, DLPNO-MP2 Gradient
   Christoph Reimann      : Effective Core Potentials
   Marius Retegan         : Local ZFS, SOC
   Christoph Riplinger    : Optimizer, TS searches, QM/MM, DLPNO-CCSD(T), (RO)-DLPNO pert. Triples
   Tobias Risthaus        : Range-separated hybrids, TD-DFT gradient, RPA, STAB
   Michael Roemelt        : Original ROCIS implementation
   Masaaki Saitow         : Open-shell DLPNO-CCSD energy and density
   Barbara Sandhoefer     : DKH picture change effects
   Avijit Sen             : IP-ROCIS
   Kantharuban Sivalingam : CASSCF convergence, NEVPT2, FIC-MRCI
   Bernardo de Souza      : ESD, SOC TD-DFT
   Georgi Stoychev        : AutoAux, RI-MP2 NMR, DLPNO-MP2 response
   Willem Van den Heuvel  : Paramagnetic NMR
   Boris Wezisla          : Elementary symmetry handling
   Frank Wennmohs         : Technical directorship


 We gratefully acknowledge several colleagues who have allowed us to
 interface, adapt or use parts of their codes:
   Stefan Grimme, W. Hujo, H. Kruse, P. Pracht,  : VdW corrections, initial TS optimization,
                  C. Bannwarth, S. Ehlert          DFT functionals, gCP, sTDA/sTD-DF
   Ed Valeev, F. Pavosevic, A. Kumar             : LibInt (2-el integral package), F12 methods
   Garnet Chan, S. Sharma, J. Yang, R. Olivares  : DMRG
   Ulf Ekstrom                                   : XCFun DFT Library
   Mihaly Kallay                                 : mrcc  (arbitrary order and MRCC methods)
   Jiri Pittner, Ondrej Demel                    : Mk-CCSD
   Frank Weinhold                                : gennbo (NPA and NBO analysis)
   Christopher J. Cramer and Donald G. Truhlar   : smd solvation model
   Lars Goerigk                                  : TD-DFT with DH, B97 family of functionals
   V. Asgeirsson, H. Jonsson                     : NEB implementation
   FAccTs GmbH                                   : IRC, NEB, NEB-TS, DLPNO-Multilevel, CI-OPT
                                                   MM, QMMM, 2- and 3-layer-ONIOM, Crystal-QMMM,
                                                   LR-CPCM, SF, NACMEs, symmetry and pop. for TD-DFT,
                                                   nearIR, NL-DFT gradient (VV10), updates on ESD,
                                                   ML-optimized integration grids
   S Lehtola, MJT Oliveira, MAL Marques          : LibXC Library
   Liviu Ungur et al                             : ANISO software


 Your calculation uses the libint2 library for the computation of 2-el integrals
 For citations please refer to: http://libint.valeyev.net

 Your ORCA version has been built with support for libXC version: 5.1.0
 For citations please refer to: https://tddft.org/programs/libxc/

 This ORCA versions uses:
   CBLAS   interface :  Fast vector & matrix operations
   LAPACKE interface :  Fast linear algebra routines
   SCALAPACK package :  Parallel linear algebra routines
   Shared memory     :  Shared parallel matrices
   BLAS/LAPACK       :  OpenBLAS 0.3.15  USE64BITINT DYNAMIC_ARCH NO_AFFINITY Haswell SINGLE_THREADED
        Core in use  :  Haswell
   Copyright (c) 2011-2014, The OpenBLAS Project




***************************************
The coordinates will be read from file: 17A.xyz
***************************************


Your calculation utilizes the geometrical counterpoise correction gCP
Please cite in your paper:
H.Kruse, S. Grimme J.Chem.Phys., 136, (2012), 154101 
   

Your calculation utilizes the atom-pairwise dispersion correction
with the Becke-Johnson damping scheme (D3BJ)
Cite in your paper:
S.Grimme, S.Ehrlich, L.Goerigk, J Comput Chem, (2011), 32, 1456–1465 
S.Grimme, J.Antony, S.Ehrlich and H.Krieg, J.Chem.Phys., 132, (2010), 154104 
   

Your calculation employs the composite approach PBEh-3c.
Please cite in your paper:
S. Grimme, J. G. Brandenburg, C. Bannwarth, A. Hansen J.Chem.Phys., 143, (2015), 054107 
   

================================================================================

----- Orbital basis set information -----
Your calculation utilizes the basis: def2-mSVP

----- AuxJ basis set information -----
Your calculation utilizes the auxiliary basis: def2/J
   F. Weigend, Phys. Chem. Chem. Phys. 8, 1057 (2006).

================================================================================
                                        WARNINGS
                       Please study these warnings very carefully!
================================================================================


INFO   : the flag for use of the SHARK integral package has been found!

================================================================================
                                       INPUT FILE
================================================================================
NAME = pbeh-3c.inp
|  1> ! PBEh-3c def2/J TightSCF DefGrid3
|  2> 
|  3> %maxcore 60000
|  4> 
|  5> %pal
|  6> nprocs 4
|  7> end
|  8> 
|  9> *xyzfile 0 1 17A.xyz
| 10> 
| 11>                          ****END OF INPUT****
================================================================================

                       ****************************
                       * Single Point Calculation *
                       ****************************

---------------------------------
CARTESIAN COORDINATES (ANGSTROEM)
---------------------------------
  N      1.314053    0.054694    0.000000
  H      2.342475    0.105930    0.000000
  C      0.747228   -1.208501    0.000000
  O      1.449954   -2.221592    0.000000
  C     -0.699570   -1.230405    0.000000
  H     -1.205538   -2.179908    0.000000
  C     -1.377968   -0.063982    0.000000
  H     -2.456845   -0.017288    0.000000
  N     -0.730785    1.137336    0.000000
  H     -1.239786    2.005806    0.000000
  C      0.652574    1.268947    0.000000
  O      1.204209    2.348962    0.000000

----------------------------
CARTESIAN COORDINATES (A.U.)
----------------------------
  NO LB      ZA    FRAG     MASS         X           Y           Z
   0 N     7.0000    0    14.007    2.483201    0.103356    0.000000
   1 H     1.0000    0     1.008    4.426637    0.200179    0.000000
   2 C     6.0000    0    12.011    1.412056   -2.283735    0.000000
   3 O     8.0000    0    15.999    2.740015   -4.198200    0.000000
   4 C     6.0000    0    12.011   -1.321996   -2.325128    0.000000
   5 H     1.0000    0     1.008   -2.278137   -4.119429    0.000000
   6 C     6.0000    0    12.011   -2.603982   -0.120908    0.000000
   7 H     1.0000    0     1.008   -4.642765   -0.032669    0.000000
   8 N     7.0000    0    14.007   -1.380983    2.149255    0.000000
   9 H     1.0000    0     1.008   -2.342856    3.790423    0.000000
  10 C     6.0000    0    12.011    1.233186    2.397962    0.000000
  11 O     8.0000    0    15.999    2.275625    4.438895    0.000000

--------------------------------
INTERNAL COORDINATES (ANGSTROEM)
--------------------------------
 N      0   0   0     0.000000000000     0.00000000     0.00000000
 H      1   0   0     1.029697413242     0.00000000     0.00000000
 C      1   2   0     1.384540082353   117.01904846     0.00000000
 O      3   1   2     1.232954658111   121.08616725     0.00000000
 C      3   1   2     1.446963801344   115.03428815   180.00000000
 H      5   3   1     1.075899915056   118.91949186   180.00000000
 C      5   3   1     1.349357832059   119.31513603     0.00000000
 H      7   5   3     1.079887280883   122.66072541   180.00000000
 N      7   5   3     1.364555385899   121.50491355     0.00000000
 H      9   7   5     1.006638380533   121.31326387   180.00000000
 C      1   2   3     1.382738317911   115.72776730   180.00000000
 O     11   1   2     1.212738493438   124.36370531     0.00000000

---------------------------
INTERNAL COORDINATES (A.U.)
---------------------------
 N      0   0   0     0.000000000000     0.00000000     0.00000000
 H      1   0   0     1.945846111835     0.00000000     0.00000000
 C      1   2   0     2.616401577084   117.01904846     0.00000000
 O      3   1   2     2.329946639373   121.08616725     0.00000000
 C      3   1   2     2.734365310238   115.03428815   180.00000000
 H      5   3   1     2.033156186964   118.91949186   180.00000000
 C      5   3   1     2.549916759253   119.31513603     0.00000000
 H      7   5   3     2.040691216375   122.66072541   180.00000000
 N      7   5   3     2.578635973917   121.50491355     0.00000000
 H      9   7   5     1.902270855102   121.31326387   180.00000000
 C      1   2   3     2.612996735731   115.72776730   180.00000000
 O     11   1   2     2.291743624661   124.36370531     0.00000000

---------------------
BASIS SET INFORMATION
---------------------
There are 4 groups of distinct atoms

 Group   1 Type N   : 8s4p1d contracted to 4s2p1d pattern {5111/31/1}
 Group   2 Type H   : 4s contracted to 2s pattern {31}
 Group   3 Type C   : 8s4p1d contracted to 4s2p1d pattern {5111/31/1}
 Group   4 Type O   : 8s4p1d contracted to 4s2p1d pattern {5111/31/1}

Atom   0N    basis set group =>   1
Atom   1H    basis set group =>   2
Atom   2C    basis set group =>   3
Atom   3O    basis set group =>   4
Atom   4C    basis set group =>   3
Atom   5H    basis set group =>   2
Atom   6C    basis set group =>   3
Atom   7H    basis set group =>   2
Atom   8N    basis set group =>   1
Atom   9H    basis set group =>   2
Atom  10C    basis set group =>   3
Atom  11O    basis set group =>   4
---------------------------------
AUXILIARY/J BASIS SET INFORMATION
---------------------------------
There are 4 groups of distinct atoms

 Group   1 Type N   : 12s5p4d2f1g contracted to 6s4p3d1f1g pattern {711111/2111/211/2/1}
 Group   2 Type H   : 5s2p1d contracted to 3s1p1d pattern {311/2/1}
 Group   3 Type C   : 12s5p4d2f1g contracted to 6s4p3d1f1g pattern {711111/2111/211/2/1}
 Group   4 Type O   : 12s5p4d2f1g contracted to 6s4p3d1f1g pattern {711111/2111/211/2/1}

Atom   0N    basis set group =>   1
Atom   1H    basis set group =>   2
Atom   2C    basis set group =>   3
Atom   3O    basis set group =>   4
Atom   4C    basis set group =>   3
Atom   5H    basis set group =>   2
Atom   6C    basis set group =>   3
Atom   7H    basis set group =>   2
Atom   8N    basis set group =>   1
Atom   9H    basis set group =>   2
Atom  10C    basis set group =>   3
Atom  11O    basis set group =>   4


           ************************************************************
           *        Program running with 4 parallel MPI-processes     *
           *              working on a common directory               *
           ************************************************************
------------------------------------------------------------------------------
                           ORCA GTO INTEGRAL CALCULATION
                           -- RI-GTO INTEGRALS CHOSEN --
------------------------------------------------------------------------------
------------------------------------------------------------------------------
                   ___                                                        
                  /   \      - P O W E R E D   B Y -                         
                 /     \                                                     
                 |  |  |   _    _      __       _____    __    __             
                 |  |  |  | |  | |    /  \     |  _  \  |  |  /  |          
                  \  \/   | |  | |   /    \    | | | |  |  | /  /          
                 / \  \   | |__| |  /  /\  \   | |_| |  |  |/  /          
                |  |  |   |  __  | /  /__\  \  |    /   |      \           
                |  |  |   | |  | | |   __   |  |    \   |  |\   \          
                \     /   | |  | | |  |  |  |  | |\  \  |  | \   \       
                 \___/    |_|  |_| |__|  |__|  |_| \__\ |__|  \__/        
                                                                              
                      - O R C A' S   B I G   F R I E N D -                    
                                      &                                       
                       - I N T E G R A L  F E E D E R -                       
                                                                              
 v1 FN, 2020, v2 2021                                                         
------------------------------------------------------------------------------


Reading SHARK input file pbeh-3c.SHARKINP.tmp ... ok
----------------------
SHARK INTEGRAL PACKAGE
----------------------

Number of atoms                             ...     12
Number of basis functions                   ...    128
Number of shells                            ...     64
Maximum angular momentum                    ...      2
Integral batch strategy                     ... SHARK/LIBINT Hybrid
RI-J (if used) integral strategy            ... SPLIT-RIJ (Revised 2003 algorithm where possible)
Printlevel                                  ...      1
Contraction scheme used                     ... SEGMENTED contraction
Coulomb Range Separation                    ... NOT USED
Exchange Range Separation                   ... NOT USED
Finite Nucleus Model                        ... NOT USED
Auxiliary Coulomb fitting basis             ... AVAILABLE
   # of basis functions in Aux-J            ...    436
   # of shells in Aux-J                     ...    140
   Maximum angular momentum in Aux-J        ...      4
Auxiliary J/K fitting basis                 ... NOT available
Auxiliary Correlation fitting basis         ... NOT available
Auxiliary 'external' fitting basis          ... NOT available
Integral threshold                          ...     2.500000e-11
Primitive cut-off                           ...     2.500000e-12
Primitive pair pre-selection threshold      ...     2.500000e-12

Calculating pre-screening integrals         ... done (  0.2 sec) Dimension = 64
Organizing shell pair data                  ... done (  0.5 sec)
Shell pair information
Total number of shell pairs                 ...      2080
Shell pairs after pre-screening             ...      1891
Total number of primitive shell pairs       ...      7376
Primitive shell pairs kept                  ...      4910
          la=0 lb=0:    687 shell pairs
          la=1 lb=0:    615 shell pairs
          la=1 lb=1:    135 shell pairs
          la=2 lb=0:    292 shell pairs
          la=2 lb=1:    126 shell pairs
          la=2 lb=2:     36 shell pairs

Calculating one electron integrals          ... done (  0.0 sec)
Calculating RI/J V-Matrix + Cholesky decomp.... done (  0.5 sec)
Calculating Nuclear repulsion               ... done (  0.1 sec) ENN=    357.252665095077 Eh

SHARK setup successfully completed in   2.5 seconds

Maximum memory used throughout the entire GTOINT-calculation: 10.6 MB


           ************************************************************
           *        Program running with 4 parallel MPI-processes     *
           *              working on a common directory               *
           ************************************************************
-------------------------------------------------------------------------------
                                 ORCA SCF
-------------------------------------------------------------------------------

------------
SCF SETTINGS
------------
Hamiltonian:
 Density Functional     Method          .... DFT(GTOs)
 Exchange Functional    Exchange        .... PBE
   PBE kappa parameter   XKappa         ....  1.024500
   PBE mue parameter    XMuePBE         ....  0.123457
 Correlation Functional Correlation     .... PBE
   PBE beta parameter  CBetaPBE         ....  0.030000
 LDA part of GGA corr.  LDAOpt          .... PW91-LDA
 Gradients option       PostSCFGGA      .... off
 Hybrid DFT is turned on
   Fraction HF Exchange ScalHFX         ....  0.420000
   Scaling of DF-GGA-X  ScalDFX         ....  0.580000
   Scaling of DF-GGA-C  ScalDFC         ....  1.000000
   Scaling of DF-LDA-C  ScalLDAC        ....  1.000000
   Perturbative correction              ....  0.000000
   Density functional embedding theory  .... OFF
 RI-approximation to the Coulomb term is turned on
   Number of AuxJ basis functions       .... 436
   RIJ-ON(X) (HFX calculated with O(N)) .... on
   Number of AuxJ basis functions       .... 436
   RIJ-COSX (HFX calculated with COS-X)).... on


General Settings:
 Integral files         IntName         .... pbeh-3c
 Hartree-Fock type      HFTyp           .... RHF
 Total Charge           Charge          ....    0
 Multiplicity           Mult            ....    1
 Number of Electrons    NEL             ....   58
 Basis Dimension        Dim             ....  128
 Nuclear Repulsion      ENuc            ....    357.2526650951 Eh

Convergence Acceleration:
 DIIS                   CNVDIIS         .... on
   Start iteration      DIISMaxIt       ....    12
   Startup error        DIISStart       ....  0.200000
   # of expansion vecs  DIISMaxEq       ....     5
   Bias factor          DIISBfac        ....   1.050
   Max. coefficient     DIISMaxC        ....  10.000
 Trust-Rad. Augm. Hess. CNVTRAH         .... auto
   Auto Start mean grad. ratio tolernc. ....  1.125000
   Auto Start start iteration           ....    20
   Auto Start num. interpolation iter.  ....    10
   Max. Number of Micro iterations      ....    16
   Max. Number of Macro iterations      .... Maxiter - #DIIS iter
   Number of Davidson start vectors     ....     2
   Converg. threshold I  (grad. norm)   ....   1.000e-05
   Converg. threshold II (energy diff.) ....   1.000e-08
   Grad. Scal. Fac. for Micro threshold ....   0.100
   Minimum threshold for Micro iter.    ....   0.010
   NR start threshold (gradient norm)   ....   0.001
   Initial trust radius                 ....   0.400
   Minimum AH scaling param. (alpha)    ....   1.000
   Maximum AH scaling param. (alpha)    .... 1000.000
   Orbital update algorithm             .... Taylor
   White noise on init. David. guess    .... on
   Maximum white noise                  ....   0.010
   Quad. conv. algorithm                .... NR
   COSX micro iterations for RIJONX calc.... off
 SOSCF                  CNVSOSCF        .... on
   Start iteration      SOSCFMaxIt      ....   150
   Startup grad/error   SOSCFStart      ....  0.003300
 Level Shifting         CNVShift        .... on
   Level shift para.    LevelShift      ....    0.2500
   Turn off err/grad.   ShiftErr        ....    0.0010
 Zerner damping         CNVZerner       .... off
 Static damping         CNVDamp         .... on
   Fraction old density DampFac         ....    0.7000
   Max. Damping (<1)    DampMax         ....    0.9800
   Min. Damping (>=0)   DampMin         ....    0.0000
   Turn off err/grad.   DampErr         ....    0.1000
 Fernandez-Rico         CNVRico         .... off

SCF Procedure:
 Maximum # iterations   MaxIter         ....   125
 SCF integral mode      SCFMode         .... Direct
   Integral package                     .... SHARK and LIBINT hybrid scheme
 Reset frequency        DirectResetFreq ....    20
 Integral Threshold     Thresh          ....  2.500e-11 Eh
 Primitive CutOff       TCut            ....  2.500e-12 Eh

Convergence Tolerance:
 Convergence Check Mode ConvCheckMode   .... Total+1el-Energy
 Convergence forced     ConvForced      .... 0
 Energy Change          TolE            ....  1.000e-08 Eh
 1-El. energy change                    ....  1.000e-05 Eh
 Orbital Gradient       TolG            ....  1.000e-05
 Orbital Rotation angle TolX            ....  1.000e-05
 DIIS Error             TolErr          ....  5.000e-07


Diagonalization of the overlap matrix:
Smallest eigenvalue                        ... 2.019e-03
Time for diagonalization                   ...    0.003 sec
Threshold for overlap eigenvalues          ... 1.000e-08
Number of eigenvalues below threshold      ... 0
Time for construction of square roots      ...    0.413 sec
Total time needed                          ...    0.417 sec

--------------------------------
INITIAL GUESS: MINIMAL BASIS EHT
--------------------------------
The minimal basis has 44 functions
EHT matrix was diagonalized
Basis set overlap was calculated now projecting the orbitals
Using GuessMode=FMatrix for the initial guess
C*T matrix was formed
Effective Fockian was calculated
Effective Fockian was diagonalized
Initial density was built
                      ------------------
                      INITIAL GUESS DONE
                      ------------------
-------------------
DFT GRID GENERATION
-------------------

General Integration Accuracy     IntAcc      ... 4.959
Radial Grid Type                 RadialGrid  ... OptM3 with GC (2021)
Angular Grid (max. ang.)         AngularGrid ... 6 (Lebedev-590)
Angular grid pruning method      GridPruning ... 4 (adaptive)
Weight generation scheme         WeightScheme... Becke
Basis function cutoff            BFCut       ... 1.0000e-11
Integration weight cutoff        WCut        ... 1.0000e-14
Angular grids for H and He will be reduced by one unit
Partially contracted basis set               ... off
Rotationally invariant grid construction     ... off

Total number of grid points                  ...   149757
Total number of batches                      ...     2346
Average number of points per batch           ...       63
Average number of grid points per atom       ...    12480
Time for grid setup =    3.038 sec

--------------------
COSX GRID GENERATION
--------------------

GRIDX 1
-------
General Integration Accuracy     IntAcc      ... 4.020
Radial Grid Type                 RadialGrid  ... OptM3 with GC (2021)
Angular Grid (max. ang.)         AngularGrid ... 2 (Lebedev-110)
Angular grid pruning method      GridPruning ... 4 (adaptive)
Weight generation scheme         WeightScheme... Becke
Basis function cutoff            BFCut       ... 1.0000e-11
Integration weight cutoff        WCut        ... 1.0000e-14
Angular grids for H and He will be reduced by one unit
Partially contracted basis set               ... on
Rotationally invariant grid construction     ... off

Total number of grid points                  ...    17596
Total number of batches                      ...      280
Average number of points per batch           ...       62
Average number of grid points per atom       ...     1466
UseSFitting                                  ... on

GRIDX 2
-------
General Integration Accuracy     IntAcc      ... 4.338
Radial Grid Type                 RadialGrid  ... OptM3 with GC (2021)
Angular Grid (max. ang.)         AngularGrid ... 3 (Lebedev-194)
Angular grid pruning method      GridPruning ... 4 (adaptive)
Weight generation scheme         WeightScheme... Becke
Basis function cutoff            BFCut       ... 1.0000e-11
Integration weight cutoff        WCut        ... 1.0000e-14
Angular grids for H and He will be reduced by one unit
Partially contracted basis set               ... on
Rotationally invariant grid construction     ... off

Total number of grid points                  ...    38862
Total number of batches                      ...      613
Average number of points per batch           ...       63
Average number of grid points per atom       ...     3238
UseSFitting                                  ... on

GRIDX 3
-------
General Integration Accuracy     IntAcc      ... 4.871
Radial Grid Type                 RadialGrid  ... OptM3 with GC (2021)
Angular Grid (max. ang.)         AngularGrid ... 4 (Lebedev-302)
Angular grid pruning method      GridPruning ... 4 (adaptive)
Weight generation scheme         WeightScheme... Becke
Basis function cutoff            BFCut       ... 1.0000e-11
Integration weight cutoff        WCut        ... 1.0000e-14
Angular grids for H and He will be reduced by one unit
Partially contracted basis set               ... on
Rotationally invariant grid construction     ... off

Total number of grid points                  ...    71996
Total number of batches                      ...     1130
Average number of points per batch           ...       63
Average number of grid points per atom       ...     6000
UseSFitting                                  ... on

Time for X-Grid setup             =    4.037 sec

--------------
SCF ITERATIONS
--------------
ITER       Energy         Delta-E        Max-DP      RMS-DP      [F,P]     Damp
               ***  Starting incremental Fock matrix formation  ***
  0   -412.3213198693   0.000000000000 0.25405826  0.00994790  0.5946490 0.7000
  1   -412.9652589522  -0.643939082923 0.14859109  0.00489982  0.2960782 0.7000
  2   -413.2448362030  -0.279577250782 0.07996525  0.00277842  0.2062778 0.7000
                               ***Turning on DIIS***
  3   -413.4504992613  -0.205663058368 0.08157741  0.00206225  0.1449548 0.7000
  4   -413.6005484204  -0.150049159113 0.05623476  0.00147648  0.1020247 0.7000
  5   -413.7059723848  -0.105423964328 0.12529479  0.00352215  0.0713394 0.0000
  6   -413.9558877812  -0.249915396457 0.00800887  0.00020284  0.0058284 0.0000
                      *** Initiating the SOSCF procedure ***
                           *** Shutting down DIIS ***
                      *** Re-Reading the Fockian *** 
                      *** Removing any level shift *** 
ITER      Energy       Delta-E        Grad      Rot      Max-DP    RMS-DP
  7   -413.95607176  -0.0001839782  0.001069  0.001069  0.002538  0.000099
               *** Restarting incremental Fock matrix formation ***
  8   -413.95613422  -0.0000624630  0.000953  0.002979  0.002082  0.000084
  9   -413.95614968  -0.0000154586  0.000358  0.001277  0.002801  0.000082
 10   -413.95614912   0.0000005608  0.000427  0.000394  0.001253  0.000037
 11   -413.95615237  -0.0000032482  0.000037  0.000137  0.000166  0.000005
 12   -413.95615238  -0.0000000112  0.000034  0.000062  0.000087  0.000003
 13   -413.95615242  -0.0000000441  0.000003  0.000011  0.000013  0.000000
 14   -413.95615242   0.0000000022  0.000003  0.000005  0.000007  0.000000
                  ***Gradient check signals convergence***
              ***Rediagonalizing the Fockian in SOSCF/NRSCF***

               *****************************************************
               *                     SUCCESS                       *
               *           SCF CONVERGED AFTER  15 CYCLES          *
               *****************************************************

Old exchange energy                            =    -21.781939925 Eh
New exchange energy                            =    -21.781934494 Eh
Exchange energy change after final integration =      0.000005431 Eh
Total energy after final integration           =   -413.956146990 Eh
Final COS-X integration done in                =     3.492 sec

----------------
TOTAL SCF ENERGY
----------------

Total Energy       :         -413.95614699 Eh          -11264.31943 eV

Components:
Nuclear Repulsion  :          357.25266510 Eh            9721.33924 eV
Electronic Energy  :         -771.20881208 Eh          -20985.65867 eV
One Electron Energy:        -1271.66672703 Eh          -34603.81087 eV
Two Electron Energy:          500.45791494 Eh           13618.15220 eV
Max COSX asymmetry :            0.00000339 Eh               0.00009 eV

Virial components:
Potential Energy   :         -824.89577403 Eh          -22446.55517 eV
Kinetic Energy     :          410.93962704 Eh           11182.23575 eV
Virial Ratio       :            2.00734054


DFT components:
N(Alpha)           :       29.000000182920 electrons
N(Beta)            :       29.000000182920 electrons
N(Total)           :       58.000000365840 electrons
E(X)               :      -29.015348208598 Eh       
E(C)               :       -2.599189905340 Eh       
E(XC)              :      -31.614538113939 Eh       
DFET-embed. en.    :        0.000000000000 Eh       

---------------
SCF CONVERGENCE
---------------

  Last Energy change         ...    7.2509e-10  Tolerance :   1.0000e-08
  Last MAX-Density change    ...    2.8866e-15  Tolerance :   1.0000e-07
  Last RMS-Density change    ...    4.6614e-17  Tolerance :   5.0000e-09
  Last Orbital Gradient      ...    4.9196e-07  Tolerance :   1.0000e-05
  Last Orbital Rotation      ...    1.0631e-06  Tolerance :   1.0000e-05

             **** THE GBW FILE WAS UPDATED (pbeh-3c.gbw) ****
             **** DENSITY pbeh-3c.scfp WAS UPDATED ****
             **** ENERGY FILE WAS UPDATED (pbeh-3c.en.tmp) ****
             **** THE GBW FILE WAS UPDATED (pbeh-3c.gbw) ****
             **** DENSITY pbeh-3c.scfp WAS UPDATED ****
----------------
ORBITAL ENERGIES
----------------

  NO   OCC          E(Eh)            E(eV) 
   0   2.0000     -19.486442      -530.2530 
   1   2.0000     -19.471922      -529.8579 
   2   2.0000     -14.718677      -400.5156 
   3   2.0000     -14.703061      -400.0906 
   4   2.0000     -10.612594      -288.7834 
   5   2.0000     -10.571766      -287.6724 
   6   2.0000     -10.537609      -286.7429 
   7   2.0000     -10.466141      -284.7982 
   8   2.0000      -1.199741       -32.6466 
   9   2.0000      -1.151153       -31.3245 
  10   2.0000      -1.094884       -29.7933 
  11   2.0000      -1.037141       -28.2221 
  12   2.0000      -0.898832       -24.4584 
  13   2.0000      -0.780398       -21.2357 
  14   2.0000      -0.752319       -20.4716 
  15   2.0000      -0.678911       -18.4741 
  16   2.0000      -0.637589       -17.3497 
  17   2.0000      -0.596334       -16.2271 
  18   2.0000      -0.554784       -15.0964 
  19   2.0000      -0.543375       -14.7860 
  20   2.0000      -0.523984       -14.2583 
  21   2.0000      -0.491214       -13.3666 
  22   2.0000      -0.481282       -13.0964 
  23   2.0000      -0.466700       -12.6995 
  24   2.0000      -0.432985       -11.7821 
  25   2.0000      -0.362832        -9.8732 
  26   2.0000      -0.341557        -9.2942 
  27   2.0000      -0.325646        -8.8613 
  28   2.0000      -0.298651        -8.1267 
  29   0.0000      -0.021811        -0.5935 
  30   0.0000       0.036715         0.9991 
  31   0.0000       0.095142         2.5889 
  32   0.0000       0.143794         3.9128 
  33   0.0000       0.160298         4.3619 
  34   0.0000       0.161678         4.3995 
  35   0.0000       0.208002         5.6600 
  36   0.0000       0.230580         6.2744 
  37   0.0000       0.251411         6.8412 
  38   0.0000       0.271219         7.3802 
  39   0.0000       0.295947         8.0531 
  40   0.0000       0.358033         9.7426 
  41   0.0000       0.377644        10.2762 
  42   0.0000       0.402302        10.9472 
  43   0.0000       0.458175        12.4676 
  44   0.0000       0.460878        12.5411 
  45   0.0000       0.516043        14.0422 
  46   0.0000       0.528609        14.3842 
  47   0.0000       0.547866        14.9082 
  48   0.0000       0.559457        15.2236 
  49   0.0000       0.571897        15.5621 
  50   0.0000       0.584838        15.9142 
  51   0.0000       0.639448        17.4003 
  52   0.0000       0.656880        17.8746 
  53   0.0000       0.671065        18.2606 
  54   0.0000       0.708996        19.2928 
  55   0.0000       0.763604        20.7787 
  56   0.0000       0.820487        22.3266 
  57   0.0000       0.821737        22.3606 
  58   0.0000       0.888622        24.1806 
  59   0.0000       0.898251        24.4426 
  60   0.0000       0.924695        25.1622 
  61   0.0000       0.932498        25.3746 
  62   0.0000       0.962903        26.2019 
  63   0.0000       0.974596        26.5201 
  64   0.0000       1.003307        27.3014 
  65   0.0000       1.031280        28.0626 
  66   0.0000       1.069268        29.0963 
  67   0.0000       1.119914        30.4744 
  68   0.0000       1.120113        30.4798 
  69   0.0000       1.144572        31.1454 
  70   0.0000       1.181856        32.1599 
  71   0.0000       1.183952        32.2170 
  72   0.0000       1.227300        33.3965 
  73   0.0000       1.228521        33.4298 
  74   0.0000       1.306876        35.5619 
  75   0.0000       1.380740        37.5718 
  76   0.0000       1.384817        37.6828 
  77   0.0000       1.431689        38.9582 
  78   0.0000       1.468074        39.9483 
  79   0.0000       1.491649        40.5898 
  80   0.0000       1.498316        40.7713 
  81   0.0000       1.520762        41.3820 
  82   0.0000       1.602319        43.6013 
  83   0.0000       1.660881        45.1949 
  84   0.0000       1.693617        46.0857 
  85   0.0000       1.810244        49.2593 
  86   0.0000       1.844808        50.1998 
  87   0.0000       1.850463        50.3537 
  88   0.0000       1.866202        50.7819 
  89   0.0000       1.875927        51.0466 
  90   0.0000       1.945053        52.9276 
  91   0.0000       1.997280        54.3488 
  92   0.0000       2.007896        54.6376 
  93   0.0000       2.020124        54.9704 
  94   0.0000       2.024844        55.0988 
  95   0.0000       2.071201        56.3602 
  96   0.0000       2.097471        57.0751 
  97   0.0000       2.195021        59.7296 
  98   0.0000       2.223573        60.5065 
  99   0.0000       2.223975        60.5174 
 100   0.0000       2.261427        61.5366 
 101   0.0000       2.298405        62.5428 
 102   0.0000       2.338735        63.6402 
 103   0.0000       2.361954        64.2720 
 104   0.0000       2.368019        64.4371 
 105   0.0000       2.403854        65.4122 
 106   0.0000       2.566407        69.8355 
 107   0.0000       2.637565        71.7718 
 108   0.0000       2.653453        72.2041 
 109   0.0000       2.676003        72.8177 
 110   0.0000       2.719143        73.9917 
 111   0.0000       2.731873        74.3381 
 112   0.0000       2.781238        75.6813 
 113   0.0000       2.826395        76.9101 
 114   0.0000       2.857227        77.7491 
 115   0.0000       2.972556        80.8874 
 116   0.0000       3.007358        81.8344 
 117   0.0000       3.069823        83.5341 
 118   0.0000       3.283106        89.3379 
 119   0.0000       3.491000        94.9949 
 120   0.0000      13.430107       365.4518 
 121   0.0000      13.930286       379.0623 
 122   0.0000      13.936290       379.2257 
 123   0.0000      14.216346       386.8464 
 124   0.0000      19.240535       523.5616 
 125   0.0000      19.358250       526.7648 
 126   0.0000      25.727456       700.0797 
 127   0.0000      25.761228       700.9986 

                    ********************************
                    * MULLIKEN POPULATION ANALYSIS *
                    ********************************

-----------------------
MULLIKEN ATOMIC CHARGES
-----------------------
   0 N :   -0.719558
   1 H :    0.402003
   2 C :    0.571188
   3 O :   -0.407967
   4 C :   -0.452930
   5 H :    0.268297
   6 C :    0.085329
   7 H :    0.272346
   8 N :   -0.681142
   9 H :    0.393649
  10 C :    0.678886
  11 O :   -0.410101
Sum of atomic charges:   -0.0000000

--------------------------------
MULLIKEN REDUCED ORBITAL CHARGES
--------------------------------
  0 N s       :     3.595620  s :     3.595620
      pz      :     1.654639  p :     4.092163
      px      :     1.285368
      py      :     1.152155
      dz2     :     0.004385  d :     0.031775
      dxz     :     0.001349
      dyz     :     0.004971
      dx2y2   :     0.012587
      dxy     :     0.008483
  1 H s       :     0.597997  s :     0.597997
  2 C s       :     2.920480  s :     2.920480
      pz      :     0.787228  p :     2.387688
      px      :     0.872029
      py      :     0.728430
      dz2     :     0.006080  d :     0.120644
      dxz     :     0.011970
      dyz     :     0.022947
      dx2y2   :     0.047549
      dxy     :     0.032097
  3 O s       :     3.766576  s :     3.766576
      pz      :     1.437188  p :     4.611762
      px      :     1.663749
      py      :     1.510825
      dz2     :     0.002796  d :     0.029629
      dxz     :     0.003558
      dyz     :     0.007608
      dx2y2   :     0.007061
      dxy     :     0.008606
  4 C s       :     3.301372  s :     3.301372
      pz      :     1.119298  p :     3.116819
      px      :     0.925277
      py      :     1.072243
      dz2     :     0.004109  d :     0.034739
      dxz     :     0.002882
      dyz     :     0.004505
      dx2y2   :     0.012312
      dxy     :     0.010931
  5 H s       :     0.731703  s :     0.731703
  6 C s       :     3.130115  s :     3.130115
      pz      :     0.922359  p :     2.724585
      px      :     0.976607
      py      :     0.825619
      dz2     :     0.004741  d :     0.059972
      dxz     :     0.002933
      dyz     :     0.016421
      dx2y2   :     0.019326
      dxy     :     0.016551
  7 H s       :     0.727654  s :     0.727654
  8 N s       :     3.573413  s :     3.573413
      pz      :     1.656768  p :     4.072850
      px      :     1.188628
      py      :     1.227454
      dz2     :     0.004318  d :     0.034879
      dxz     :     0.003932
      dyz     :     0.003803
      dx2y2   :     0.010971
      dxy     :     0.011855
  9 H s       :     0.606351  s :     0.606351
 10 C s       :     2.811210  s :     2.811210
      pz      :     0.794409  p :     2.366224
      px      :     0.775384
      py      :     0.796430
      dz2     :     0.006664  d :     0.143681
      dxz     :     0.017004
      dyz     :     0.027425
      dx2y2   :     0.052715
      dxy     :     0.039873
 11 O s       :     3.754810  s :     3.754810
      pz      :     1.485024  p :     4.624126
      px      :     1.691567
      py      :     1.447535
      dz2     :     0.002895  d :     0.031164
      dxz     :     0.002549
      dyz     :     0.009230
      dx2y2   :     0.007950
      dxy     :     0.008540


                     *******************************
                     * LOEWDIN POPULATION ANALYSIS *
                     *******************************

----------------------
LOEWDIN ATOMIC CHARGES
----------------------
   0 N :   -0.197316
   1 H :    0.292031
   2 C :    0.121016
   3 O :   -0.259838
   4 C :   -0.237784
   5 H :    0.164971
   6 C :   -0.015984
   7 H :    0.149533
   8 N :   -0.190535
   9 H :    0.282387
  10 C :    0.148858
  11 O :   -0.257338

-------------------------------
LOEWDIN REDUCED ORBITAL CHARGES
-------------------------------
  0 N s       :     3.117351  s :     3.117351
      pz      :     1.591000  p :     4.003387
      px      :     1.223638
      py      :     1.188749
      dz2     :     0.007616  d :     0.076578
      dxz     :     0.001990
      dyz     :     0.010771
      dx2y2   :     0.031774
      dxy     :     0.024427
  1 H s       :     0.707969  s :     0.707969
  2 C s       :     2.813823  s :     2.813823
      pz      :     0.797897  p :     2.791321
      px      :     1.038155
      py      :     0.955269
      dz2     :     0.014829  d :     0.273840
      dxz     :     0.022941
      dyz     :     0.046571
      dx2y2   :     0.114148
      dxy     :     0.075352
  3 O s       :     3.529981  s :     3.529981
      pz      :     1.431933  p :     4.675219
      px      :     1.686937
      py      :     1.556349
      dz2     :     0.006632  d :     0.054638
      dxz     :     0.004677
      dyz     :     0.010038
      dx2y2   :     0.013564
      dxy     :     0.019728
  4 C s       :     2.907481  s :     2.907481
      pz      :     1.098963  p :     3.248730
      px      :     1.057243
      py      :     1.092524
      dz2     :     0.007414  d :     0.081573
      dxz     :     0.006413
      dyz     :     0.006921
      dx2y2   :     0.031937
      dxy     :     0.028888
  5 H s       :     0.835029  s :     0.835029
  6 C s       :     2.880959  s :     2.880959
      pz      :     0.919102  p :     3.001801
      px      :     1.069254
      py      :     1.013444
      dz2     :     0.009031  d :     0.133225
      dxz     :     0.004564
      dyz     :     0.035081
      dx2y2   :     0.045022
      dxy     :     0.039527
  7 H s       :     0.850467  s :     0.850467
  8 N s       :     3.092902  s :     3.092902
      pz      :     1.601821  p :     4.013984
      px      :     1.204798
      py      :     1.207365
      dz2     :     0.006716  d :     0.083650
      dxz     :     0.008483
      dyz     :     0.007668
      dx2y2   :     0.030021
      dxy     :     0.030763
  9 H s       :     0.717613  s :     0.717613
 10 C s       :     2.782354  s :     2.782354
      pz      :     0.812815  p :     2.746732
      px      :     0.940195
      py      :     0.993722
      dz2     :     0.016595  d :     0.322056
      dxz     :     0.034652
      dyz     :     0.054928
      dx2y2   :     0.123818
      dxy     :     0.092063
 11 O s       :     3.518226  s :     3.518226
      pz      :     1.474916  p :     4.682229
      px      :     1.696670
      py      :     1.510643
      dz2     :     0.006890  d :     0.056884
      dxz     :     0.003419
      dyz     :     0.012435
      dx2y2   :     0.015682
      dxy     :     0.018458


                      *****************************
                      * MAYER POPULATION ANALYSIS *
                      *****************************

  NA   - Mulliken gross atomic population
  ZA   - Total nuclear charge
  QA   - Mulliken gross atomic charge
  VA   - Mayer's total valence
  BVA  - Mayer's bonded valence
  FA   - Mayer's free valence

  ATOM       NA         ZA         QA         VA         BVA        FA
  0 N      7.7196     7.0000    -0.7196     2.9966     2.9966    -0.0000
  1 H      0.5980     1.0000     0.4020     0.8295     0.8295    -0.0000
  2 C      5.4288     6.0000     0.5712     4.0675     4.0675    -0.0000
  3 O      8.4080     8.0000    -0.4080     2.2107     2.2107     0.0000
  4 C      6.4529     6.0000    -0.4529     3.7589     3.7589    -0.0000
  5 H      0.7317     1.0000     0.2683     0.9069     0.9069    -0.0000
  6 C      5.9147     6.0000     0.0853     3.6274     3.6274     0.0000
  7 H      0.7277     1.0000     0.2723     0.8855     0.8855    -0.0000
  8 N      7.6811     7.0000    -0.6811     3.0765     3.0765     0.0000
  9 H      0.6064     1.0000     0.3936     0.8293     0.8293    -0.0000
 10 C      5.3211     6.0000     0.6789     4.1383     4.1383     0.0000
 11 O      8.4101     8.0000    -0.4101     2.2302     2.2302    -0.0000

  Mayer bond orders larger than 0.100000
B(  0-N ,  1-H ) :   0.7952 B(  0-N ,  2-C ) :   0.9962 B(  0-N , 10-C ) :   1.0576 
B(  2-C ,  3-O ) :   2.0145 B(  2-C ,  4-C ) :   1.0638 B(  4-C ,  5-H ) :   0.9066 
B(  4-C ,  6-C ) :   1.6382 B(  6-C ,  7-H ) :   0.8987 B(  6-C ,  8-N ) :   1.0741 
B(  8-N ,  9-H ) :   0.8077 B(  8-N , 10-C ) :   1.0229 B( 10-C , 11-O ) :   2.0519 


-------
TIMINGS
-------

Total SCF time: 0 days 0 hours 1 min 41 sec 

Total time                  ....     101.582 sec
Sum of individual times     ....      92.919 sec  ( 91.5%)

Fock matrix formation       ....      79.823 sec  ( 78.6%)
  Split-RI-J                ....       9.471 sec  ( 11.9% of F)
  Chain of spheres X        ....      28.572 sec  ( 35.8% of F)
  XC integration            ....      21.989 sec  ( 27.5% of F)
    Basis function eval.    ....       3.398 sec  ( 15.5% of XC)
    Density eval.           ....       2.272 sec  ( 10.3% of XC)
    XC-Functional eval.     ....       1.376 sec  (  6.3% of XC)
    XC-Potential eval.      ....       1.291 sec  (  5.9% of XC)
Diagonalization             ....       0.597 sec  (  0.6%)
Density matrix formation    ....       0.044 sec  (  0.0%)
Population analysis         ....       1.510 sec  (  1.5%)
Initial guess               ....       0.013 sec  (  0.0%)
Orbital Transformation      ....       0.000 sec  (  0.0%)
Orbital Orthonormalization  ....       0.000 sec  (  0.0%)
DIIS solution               ....       2.638 sec  (  2.6%)
SOSCF solution              ....       1.220 sec  (  1.2%)
Grid generation             ....       7.075 sec  (  7.0%)

Maximum memory used throughout the entire SCF-calculation: 52.6 MB


-------------------------------------------------------------------------------
                          DFT DISPERSION CORRECTION                            
                                                                               
                              DFTD3 V3.1  Rev 1                                
                          USING Becke-Johnson damping                          
-------------------------------------------------------------------------------
The PBEh-3c composite method is recognized
Using three-body term ABC
Active option DFTDOPT                   ...         4   

molecular C6(AA) [au] = 1767.945010 


            DFT-D V3
 parameters
 s6 scaling factor         :     1.0000 
 a1 scaling factor         :     0.4860 
 s8 scaling factor         :     0.0000 
 a2 scaling factor         :     4.5000 
 Damping factor alpha9(ATM):    16.0000 
 ad hoc parameters k1-k3   :    16.0000     1.3333    -4.0000 

 Edisp/kcal,au: -3.914529436396  -0.006238199072 
 E6   /kcal   :  -3.922729195 
 E8   /kcal   :  -0.000000000 
 E6(ABC)      :   0.008199759 
 % E8         :   0.000000000 
 % E6(ABC)    :  -0.209469848 

-------------------------   ----------------
Dispersion correction           -0.006238199
-------------------------   ----------------

------------------   -----------------
gCP correction             0.025263163
------------------   -----------------

-------------------------   --------------------
FINAL SINGLE POINT ENERGY      -413.937122026293
-------------------------   --------------------


                            ***************************************
                            *     ORCA property calculations      *
                            ***************************************

                                    ---------------------
                                    Active property flags
                                    ---------------------
   (+) Dipole Moment


------------------------------------------------------------------------------
                       ORCA ELECTRIC PROPERTIES CALCULATION
------------------------------------------------------------------------------

Dipole Moment Calculation                       ... on
Quadrupole Moment Calculation                   ... off
Polarizability Calculation                      ... off
GBWName                                         ... pbeh-3c.gbw
Electron density                                ... pbeh-3c.scfp
The origin for moment calculation is the CENTER OF MASS  = ( 0.672911,  0.064530  0.000000)

-------------
DIPOLE MOMENT
-------------
                                X             Y             Z
Electronic contribution:      2.04618       0.73903      -0.00000
Nuclear contribution   :     -3.70973      -0.20126       0.00000
                        -----------------------------------------
Total Dipole Moment    :     -1.66355       0.53776      -0.00000
                        -----------------------------------------
Magnitude (a.u.)       :      1.74831
Magnitude (Debye)      :      4.44386



--------------------
Rotational spectrum 
--------------------
 
Rotational constants in cm-1:     0.130703     0.067514     0.044518 
Rotational constants in MHz :  3918.364041  2024.033257  1334.629567 

 Dipole components along the rotational axes: 
x,y,z [a.u.] :    -0.638191     1.627671    -0.000000 
x,y,z [Debye]:    -1.622152     4.137212    -0.000000 

 

Timings for individual modules:

Sum of individual times         ...      106.285 sec (=   1.771 min)
GTO integral calculation        ...        3.762 sec (=   0.063 min)   3.5 %
SCF iterations                  ...      102.524 sec (=   1.709 min)  96.5 %
                             ****ORCA TERMINATED NORMALLY****
TOTAL RUN TIME: 0 days 0 hours 1 minutes 50 seconds 19 msec
