
                                 *****************
                                 * O   R   C   A *
                                 *****************

                                            #,                                       
                                            ###                                      
                                            ####                                     
                                            #####                                    
                                            ######                                   
                                           ########,                                 
                                     ,,################,,,,,                         
                               ,,#################################,,                 
                          ,,##########################################,,             
                       ,#########################################, ''#####,          
                    ,#############################################,,   '####,        
                  ,##################################################,,,,####,       
                ,###########''''           ''''###############################       
              ,#####''   ,,,,##########,,,,          '''####'''          '####       
            ,##' ,,,,###########################,,,                        '##       
           ' ,,###''''                  '''############,,,                           
         ,,##''                                '''############,,,,        ,,,,,,###''
      ,#''                                            '''#######################'''  
     '                                                          ''''####''''         
             ,#######,   #######,   ,#######,      ##                                
            ,#'     '#,  ##    ##  ,#'     '#,    #''#        ######   ,####,        
            ##       ##  ##   ,#'  ##            #'  '#       #        #'  '#        
            ##       ##  #######   ##           ,######,      #####,   #    #        
            '#,     ,#'  ##    ##  '#,     ,#' ,#      #,         ##   #,  ,#        
             '#######'   ##     ##  '#######'  #'      '#     #####' # '####'        



                  #######################################################
                  #                        -***-                        #
                  #          Department of theory and spectroscopy      #
                  #    Directorship and core code : Frank Neese         #
                  #        Max Planck Institute fuer Kohlenforschung    #
                  #                Kaiser Wilhelm Platz 1               #
                  #                 D-45470 Muelheim/Ruhr               #
                  #                      Germany                        #
                  #                                                     #
                  #                  All rights reserved                #
                  #                        -***-                        #
                  #######################################################


                         Program Version 5.0.3 -  RELEASE  -


 With contributions from (in alphabetic order):
   Daniel Aravena         : Magnetic Suceptibility
   Michael Atanasov       : Ab Initio Ligand Field Theory (pilot matlab implementation)
   Alexander A. Auer      : GIAO ZORA, VPT2 properties, NMR spectrum
   Ute Becker             : Parallelization
   Giovanni Bistoni       : ED, misc. LED, open-shell LED, HFLD
   Martin Brehm           : Molecular dynamics
   Dmytro Bykov           : SCF Hessian
   Vijay G. Chilkuri      : MRCI spin determinant printing, contributions to CSF-ICE
   Dipayan Datta          : RHF DLPNO-CCSD density
   Achintya Kumar Dutta   : EOM-CC, STEOM-CC
   Dmitry Ganyushin       : Spin-Orbit,Spin-Spin,Magnetic field MRCI
   Miquel Garcia          : C-PCM and meta-GGA Hessian, CC/C-PCM, Gaussian charge scheme
   Yang Guo               : DLPNO-NEVPT2, F12-NEVPT2, CIM, IAO-localization
   Andreas Hansen         : Spin unrestricted coupled pair/coupled cluster methods
   Benjamin Helmich-Paris : MC-RPA, TRAH-SCF, COSX integrals
   Lee Huntington         : MR-EOM, pCC
   Robert Izsak           : Overlap fitted RIJCOSX, COSX-SCS-MP3, EOM
   Marcus Kettner         : VPT2
   Christian Kollmar      : KDIIS, OOCD, Brueckner-CCSD(T), CCSD density, CASPT2, CASPT2-K
   Simone Kossmann        : Meta GGA functionals, TD-DFT gradient, OOMP2, MP2 Hessian
   Martin Krupicka        : Initial AUTO-CI
   Lucas Lang             : DCDCAS
   Marvin Lechner         : AUTO-CI (C++ implementation), FIC-MRCC
   Dagmar Lenk            : GEPOL surface, SMD
   Dimitrios Liakos       : Extrapolation schemes; Compound Job, initial MDCI parallelization
   Dimitrios Manganas     : Further ROCIS development; embedding schemes
   Dimitrios Pantazis     : SARC Basis sets
   Anastasios Papadopoulos: AUTO-CI, single reference methods and gradients
   Taras Petrenko         : DFT Hessian,TD-DFT gradient, ASA, ECA, R-Raman, ABS, FL, XAS/XES, NRVS
   Peter Pinski           : DLPNO-MP2, DLPNO-MP2 Gradient
   Christoph Reimann      : Effective Core Potentials
   Marius Retegan         : Local ZFS, SOC
   Christoph Riplinger    : Optimizer, TS searches, QM/MM, DLPNO-CCSD(T), (RO)-DLPNO pert. Triples
   Tobias Risthaus        : Range-separated hybrids, TD-DFT gradient, RPA, STAB
   Michael Roemelt        : Original ROCIS implementation
   Masaaki Saitow         : Open-shell DLPNO-CCSD energy and density
   Barbara Sandhoefer     : DKH picture change effects
   Avijit Sen             : IP-ROCIS
   Kantharuban Sivalingam : CASSCF convergence, NEVPT2, FIC-MRCI
   Bernardo de Souza      : ESD, SOC TD-DFT
   Georgi Stoychev        : AutoAux, RI-MP2 NMR, DLPNO-MP2 response
   Willem Van den Heuvel  : Paramagnetic NMR
   Boris Wezisla          : Elementary symmetry handling
   Frank Wennmohs         : Technical directorship


 We gratefully acknowledge several colleagues who have allowed us to
 interface, adapt or use parts of their codes:
   Stefan Grimme, W. Hujo, H. Kruse, P. Pracht,  : VdW corrections, initial TS optimization,
                  C. Bannwarth, S. Ehlert          DFT functionals, gCP, sTDA/sTD-DF
   Ed Valeev, F. Pavosevic, A. Kumar             : LibInt (2-el integral package), F12 methods
   Garnet Chan, S. Sharma, J. Yang, R. Olivares  : DMRG
   Ulf Ekstrom                                   : XCFun DFT Library
   Mihaly Kallay                                 : mrcc  (arbitrary order and MRCC methods)
   Jiri Pittner, Ondrej Demel                    : Mk-CCSD
   Frank Weinhold                                : gennbo (NPA and NBO analysis)
   Christopher J. Cramer and Donald G. Truhlar   : smd solvation model
   Lars Goerigk                                  : TD-DFT with DH, B97 family of functionals
   V. Asgeirsson, H. Jonsson                     : NEB implementation
   FAccTs GmbH                                   : IRC, NEB, NEB-TS, DLPNO-Multilevel, CI-OPT
                                                   MM, QMMM, 2- and 3-layer-ONIOM, Crystal-QMMM,
                                                   LR-CPCM, SF, NACMEs, symmetry and pop. for TD-DFT,
                                                   nearIR, NL-DFT gradient (VV10), updates on ESD,
                                                   ML-optimized integration grids
   S Lehtola, MJT Oliveira, MAL Marques          : LibXC Library
   Liviu Ungur et al                             : ANISO software


 Your calculation uses the libint2 library for the computation of 2-el integrals
 For citations please refer to: http://libint.valeyev.net

 Your ORCA version has been built with support for libXC version: 5.1.0
 For citations please refer to: https://tddft.org/programs/libxc/

 This ORCA versions uses:
   CBLAS   interface :  Fast vector & matrix operations
   LAPACKE interface :  Fast linear algebra routines
   SCALAPACK package :  Parallel linear algebra routines
   Shared memory     :  Shared parallel matrices
   BLAS/LAPACK       :  OpenBLAS 0.3.15  USE64BITINT DYNAMIC_ARCH NO_AFFINITY Haswell SINGLE_THREADED
        Core in use  :  Haswell
   Copyright (c) 2011-2014, The OpenBLAS Project




***************************************
The coordinates will be read from file: 34A.xyz
***************************************


Your calculation utilizes the geometrical counterpoise correction gCP
Please cite in your paper:
H.Kruse, S. Grimme J.Chem.Phys., 136, (2012), 154101 
   

Your calculation utilizes the atom-pairwise dispersion correction
with the Becke-Johnson damping scheme (D3BJ)
Cite in your paper:
S.Grimme, S.Ehrlich, L.Goerigk, J Comput Chem, (2011), 32, 1456–1465 
S.Grimme, J.Antony, S.Ehrlich and H.Krieg, J.Chem.Phys., 132, (2010), 154104 
   

Your calculation employs the composite approach PBEh-3c.
Please cite in your paper:
S. Grimme, J. G. Brandenburg, C. Bannwarth, A. Hansen J.Chem.Phys., 143, (2015), 054107 
   

================================================================================

----- Orbital basis set information -----
Your calculation utilizes the basis: def2-mSVP

----- AuxJ basis set information -----
Your calculation utilizes the auxiliary basis: def2/J
   F. Weigend, Phys. Chem. Chem. Phys. 8, 1057 (2006).

================================================================================
                                        WARNINGS
                       Please study these warnings very carefully!
================================================================================


INFO   : the flag for use of the SHARK integral package has been found!

================================================================================
                                       INPUT FILE
================================================================================
NAME = pbeh-3c.inp
|  1> ! PBEh-3c def2/J TightSCF DefGrid3
|  2> 
|  3> %maxcore 60000
|  4> 
|  5> %pal
|  6> nprocs 4
|  7> end
|  8> 
|  9> *xyzfile 0 1 34A.xyz
| 10> 
| 11>                          ****END OF INPUT****
================================================================================

                       ****************************
                       * Single Point Calculation *
                       ****************************

---------------------------------
CARTESIAN COORDINATES (ANGSTROEM)
---------------------------------
  C     -0.141425   -0.266672   -2.533313
  H      0.331550   -1.248235   -2.563645
  H     -1.220256   -0.417815   -2.566952
  H      0.147813    0.272114   -3.434439
  C      0.260759    0.486054   -1.271901
  H     -0.196351    1.478560   -1.271029
  H      1.341403    0.646574   -1.266680
  C     -0.140088   -0.249036    0.000000
  H     -1.222691   -0.407038    0.000000
  H      0.314700   -1.244185    0.000000
  C      0.260759    0.486054    1.271901
  H     -0.196351    1.478560    1.271029
  H      1.341403    0.646574    1.266680
  C     -0.141425   -0.266672    2.533313
  H      0.331550   -1.248235    2.563645
  H      0.147813    0.272114    3.434439
  H     -1.220256   -0.417815    2.566952

----------------------------
CARTESIAN COORDINATES (A.U.)
----------------------------
  NO LB      ZA    FRAG     MASS         X           Y           Z
   0 C     6.0000    0    12.011   -0.267254   -0.503938   -4.787268
   1 H     1.0000    0     1.008    0.626539   -2.358823   -4.844587
   2 H     1.0000    0     1.008   -2.305950   -0.789556   -4.850836
   3 H     1.0000    0     1.008    0.279326    0.514222   -6.490149
   4 C     6.0000    0    12.011    0.492763    0.918510   -2.403545
   5 H     1.0000    0     1.008   -0.371049    2.794073   -2.401897
   6 H     1.0000    0     1.008    2.534885    1.221847   -2.393678
   7 C     6.0000    0    12.011   -0.264729   -0.470611    0.000000
   8 H     1.0000    0     1.008   -2.310552   -0.769190    0.000000
   9 H     1.0000    0     1.008    0.594697   -2.351169    0.000000
  10 C     6.0000    0    12.011    0.492763    0.918510    2.403545
  11 H     1.0000    0     1.008   -0.371049    2.794073    2.401897
  12 H     1.0000    0     1.008    2.534885    1.221847    2.393678
  13 C     6.0000    0    12.011   -0.267254   -0.503938    4.787268
  14 H     1.0000    0     1.008    0.626539   -2.358823    4.844587
  15 H     1.0000    0     1.008    0.279326    0.514222    6.490149
  16 H     1.0000    0     1.008   -2.305950   -0.789556    4.850836

--------------------------------
INTERNAL COORDINATES (ANGSTROEM)
--------------------------------
 C      0   0   0     0.000000000000     0.00000000     0.00000000
 H      1   0   0     1.089995925103     0.00000000     0.00000000
 H      1   2   0     1.089887097777   107.68484906     0.00000000
 H      1   2   3     1.089025725699   107.89370828   243.86952642
 C      1   2   3     1.522993614208   110.70364191   121.29193654
 H      5   1   2     1.092710837967   109.82260057   178.27469560
 H      5   1   2     1.092513232131   109.74174193    61.79045878
 C      5   1   2     1.522750672527   112.56308144   300.07564390
 H      8   5   1     1.094072028346   109.28058789   301.80386774
 H      8   5   1     1.094144891201   109.24719634    57.67095482
 C      8   5   1     1.522750672527   113.28698774   179.70382733
 H     11   8   5     1.092710837967   109.12823848    58.10221795
 H     11   8   5     1.092513232131   109.10585955   302.37129550
 C     11   8   5     1.522993614208   112.56308144   180.29617267
 H     14  11   8     1.089995925103   110.70364191    59.92435610
 H     14  11   8     1.089025725699   111.75768096   180.22255221
 H     14  11   8     1.089887097777   110.82403837   300.50502690

---------------------------
INTERNAL COORDINATES (A.U.)
---------------------------
 C      0   0   0     0.000000000000     0.00000000     0.00000000
 H      1   0   0     2.059793785535     0.00000000     0.00000000
 H      1   2   0     2.059588131693   107.68484906     0.00000000
 H      1   2   3     2.057960374366   107.89370828   243.86952642
 C      1   2   3     2.878040834565   110.70364191   121.29193654
 H      5   1   2     2.064924227325   109.82260057   178.27469560
 H      5   1   2     2.064550806413   109.74174193    61.79045878
 C      5   1   2     2.877581741321   112.56308144   300.07564390
 H      8   5   1     2.067496504359   109.28058789   301.80386774
 H      8   5   1     2.067634195199   109.24719634    57.67095482
 C      8   5   1     2.877581741321   113.28698774   179.70382733
 H     11   8   5     2.064924227325   109.12823848    58.10221795
 H     11   8   5     2.064550806413   109.10585955   302.37129550
 C     11   8   5     2.878040834565   112.56308144   180.29617267
 H     14  11   8     2.059793785535   110.70364191    59.92435610
 H     14  11   8     2.057960374366   111.75768096   180.22255221
 H     14  11   8     2.059588131693   110.82403837   300.50502690

---------------------
BASIS SET INFORMATION
---------------------
There are 2 groups of distinct atoms

 Group   1 Type C   : 8s4p1d contracted to 4s2p1d pattern {5111/31/1}
 Group   2 Type H   : 4s contracted to 2s pattern {31}

Atom   0C    basis set group =>   1
Atom   1H    basis set group =>   2
Atom   2H    basis set group =>   2
Atom   3H    basis set group =>   2
Atom   4C    basis set group =>   1
Atom   5H    basis set group =>   2
Atom   6H    basis set group =>   2
Atom   7C    basis set group =>   1
Atom   8H    basis set group =>   2
Atom   9H    basis set group =>   2
Atom  10C    basis set group =>   1
Atom  11H    basis set group =>   2
Atom  12H    basis set group =>   2
Atom  13C    basis set group =>   1
Atom  14H    basis set group =>   2
Atom  15H    basis set group =>   2
Atom  16H    basis set group =>   2
---------------------------------
AUXILIARY/J BASIS SET INFORMATION
---------------------------------
There are 2 groups of distinct atoms

 Group   1 Type C   : 12s5p4d2f1g contracted to 6s4p3d1f1g pattern {711111/2111/211/2/1}
 Group   2 Type H   : 5s2p1d contracted to 3s1p1d pattern {311/2/1}

Atom   0C    basis set group =>   1
Atom   1H    basis set group =>   2
Atom   2H    basis set group =>   2
Atom   3H    basis set group =>   2
Atom   4C    basis set group =>   1
Atom   5H    basis set group =>   2
Atom   6H    basis set group =>   2
Atom   7C    basis set group =>   1
Atom   8H    basis set group =>   2
Atom   9H    basis set group =>   2
Atom  10C    basis set group =>   1
Atom  11H    basis set group =>   2
Atom  12H    basis set group =>   2
Atom  13C    basis set group =>   1
Atom  14H    basis set group =>   2
Atom  15H    basis set group =>   2
Atom  16H    basis set group =>   2


           ************************************************************
           *        Program running with 4 parallel MPI-processes     *
           *              working on a common directory               *
           ************************************************************
------------------------------------------------------------------------------
                           ORCA GTO INTEGRAL CALCULATION
                           -- RI-GTO INTEGRALS CHOSEN --
------------------------------------------------------------------------------
------------------------------------------------------------------------------
                   ___                                                        
                  /   \      - P O W E R E D   B Y -                         
                 /     \                                                     
                 |  |  |   _    _      __       _____    __    __             
                 |  |  |  | |  | |    /  \     |  _  \  |  |  /  |          
                  \  \/   | |  | |   /    \    | | | |  |  | /  /          
                 / \  \   | |__| |  /  /\  \   | |_| |  |  |/  /          
                |  |  |   |  __  | /  /__\  \  |    /   |      \           
                |  |  |   | |  | | |   __   |  |    \   |  |\   \          
                \     /   | |  | | |  |  |  |  | |\  \  |  | \   \       
                 \___/    |_|  |_| |__|  |__|  |_| \__\ |__|  \__/        
                                                                              
                      - O R C A' S   B I G   F R I E N D -                    
                                      &                                       
                       - I N T E G R A L  F E E D E R -                       
                                                                              
 v1 FN, 2020, v2 2021                                                         
------------------------------------------------------------------------------


Reading SHARK input file pbeh-3c.SHARKINP.tmp ... ok
----------------------
SHARK INTEGRAL PACKAGE
----------------------

Number of atoms                             ...     17
Number of basis functions                   ...     99
Number of shells                            ...     59
Maximum angular momentum                    ...      2
Integral batch strategy                     ... SHARK/LIBINT Hybrid
RI-J (if used) integral strategy            ... SPLIT-RIJ (Revised 2003 algorithm where possible)
Printlevel                                  ...      1
Contraction scheme used                     ... SEGMENTED contraction
Coulomb Range Separation                    ... NOT USED
Exchange Range Separation                   ... NOT USED
Finite Nucleus Model                        ... NOT USED
Auxiliary Coulomb fitting basis             ... AVAILABLE
   # of basis functions in Aux-J            ...    377
   # of shells in Aux-J                     ...    135
   Maximum angular momentum in Aux-J        ...      4
Auxiliary J/K fitting basis                 ... NOT available
Auxiliary Correlation fitting basis         ... NOT available
Auxiliary 'external' fitting basis          ... NOT available
Integral threshold                          ...     2.500000e-11
Primitive cut-off                           ...     2.500000e-12
Primitive pair pre-selection threshold      ...     2.500000e-12

Calculating pre-screening integrals         ... done (  0.1 sec) Dimension = 59
Organizing shell pair data                  ... done (  0.1 sec)
Shell pair information
Total number of shell pairs                 ...      1770
Shell pairs after pre-screening             ...      1642
Total number of primitive shell pairs       ...      6542
Primitive shell pairs kept                  ...      4472
          la=0 lb=0:    897 shell pairs
          la=1 lb=0:    426 shell pairs
          la=1 lb=1:     55 shell pairs
          la=2 lb=0:    200 shell pairs
          la=2 lb=1:     50 shell pairs
          la=2 lb=2:     14 shell pairs

Calculating one electron integrals          ... done (  0.0 sec)
Calculating RI/J V-Matrix + Cholesky decomp.... done (  0.6 sec)
Calculating Nuclear repulsion               ... done (  0.0 sec) ENN=    185.635282515371 Eh

SHARK setup successfully completed in   1.9 seconds

Maximum memory used throughout the entire GTOINT-calculation: 10.3 MB


           ************************************************************
           *        Program running with 4 parallel MPI-processes     *
           *              working on a common directory               *
           ************************************************************
-------------------------------------------------------------------------------
                                 ORCA SCF
-------------------------------------------------------------------------------

------------
SCF SETTINGS
------------
Hamiltonian:
 Density Functional     Method          .... DFT(GTOs)
 Exchange Functional    Exchange        .... PBE
   PBE kappa parameter   XKappa         ....  1.024500
   PBE mue parameter    XMuePBE         ....  0.123457
 Correlation Functional Correlation     .... PBE
   PBE beta parameter  CBetaPBE         ....  0.030000
 LDA part of GGA corr.  LDAOpt          .... PW91-LDA
 Gradients option       PostSCFGGA      .... off
 Hybrid DFT is turned on
   Fraction HF Exchange ScalHFX         ....  0.420000
   Scaling of DF-GGA-X  ScalDFX         ....  0.580000
   Scaling of DF-GGA-C  ScalDFC         ....  1.000000
   Scaling of DF-LDA-C  ScalLDAC        ....  1.000000
   Perturbative correction              ....  0.000000
   Density functional embedding theory  .... OFF
 RI-approximation to the Coulomb term is turned on
   Number of AuxJ basis functions       .... 377
   RIJ-ON(X) (HFX calculated with O(N)) .... on
   Number of AuxJ basis functions       .... 377
   RIJ-COSX (HFX calculated with COS-X)).... on


General Settings:
 Integral files         IntName         .... pbeh-3c
 Hartree-Fock type      HFTyp           .... RHF
 Total Charge           Charge          ....    0
 Multiplicity           Mult            ....    1
 Number of Electrons    NEL             ....   42
 Basis Dimension        Dim             ....   99
 Nuclear Repulsion      ENuc            ....    185.6352825154 Eh

Convergence Acceleration:
 DIIS                   CNVDIIS         .... on
   Start iteration      DIISMaxIt       ....    12
   Startup error        DIISStart       ....  0.200000
   # of expansion vecs  DIISMaxEq       ....     5
   Bias factor          DIISBfac        ....   1.050
   Max. coefficient     DIISMaxC        ....  10.000
 Trust-Rad. Augm. Hess. CNVTRAH         .... auto
   Auto Start mean grad. ratio tolernc. ....  1.125000
   Auto Start start iteration           ....    20
   Auto Start num. interpolation iter.  ....    10
   Max. Number of Micro iterations      ....    16
   Max. Number of Macro iterations      .... Maxiter - #DIIS iter
   Number of Davidson start vectors     ....     2
   Converg. threshold I  (grad. norm)   ....   1.000e-05
   Converg. threshold II (energy diff.) ....   1.000e-08
   Grad. Scal. Fac. for Micro threshold ....   0.100
   Minimum threshold for Micro iter.    ....   0.010
   NR start threshold (gradient norm)   ....   0.001
   Initial trust radius                 ....   0.400
   Minimum AH scaling param. (alpha)    ....   1.000
   Maximum AH scaling param. (alpha)    .... 1000.000
   Orbital update algorithm             .... Taylor
   White noise on init. David. guess    .... on
   Maximum white noise                  ....   0.010
   Quad. conv. algorithm                .... NR
   COSX micro iterations for RIJONX calc.... off
 SOSCF                  CNVSOSCF        .... on
   Start iteration      SOSCFMaxIt      ....   150
   Startup grad/error   SOSCFStart      ....  0.003300
 Level Shifting         CNVShift        .... on
   Level shift para.    LevelShift      ....    0.2500
   Turn off err/grad.   ShiftErr        ....    0.0010
 Zerner damping         CNVZerner       .... off
 Static damping         CNVDamp         .... on
   Fraction old density DampFac         ....    0.7000
   Max. Damping (<1)    DampMax         ....    0.9800
   Min. Damping (>=0)   DampMin         ....    0.0000
   Turn off err/grad.   DampErr         ....    0.1000
 Fernandez-Rico         CNVRico         .... off

SCF Procedure:
 Maximum # iterations   MaxIter         ....   125
 SCF integral mode      SCFMode         .... Direct
   Integral package                     .... SHARK and LIBINT hybrid scheme
 Reset frequency        DirectResetFreq ....    20
 Integral Threshold     Thresh          ....  2.500e-11 Eh
 Primitive CutOff       TCut            ....  2.500e-12 Eh

Convergence Tolerance:
 Convergence Check Mode ConvCheckMode   .... Total+1el-Energy
 Convergence forced     ConvForced      .... 0
 Energy Change          TolE            ....  1.000e-08 Eh
 1-El. energy change                    ....  1.000e-05 Eh
 Orbital Gradient       TolG            ....  1.000e-05
 Orbital Rotation angle TolX            ....  1.000e-05
 DIIS Error             TolErr          ....  5.000e-07


Diagonalization of the overlap matrix:
Smallest eigenvalue                        ... 5.159e-03
Time for diagonalization                   ...    0.026 sec
Threshold for overlap eigenvalues          ... 1.000e-08
Number of eigenvalues below threshold      ... 0
Time for construction of square roots      ...    0.188 sec
Total time needed                          ...    0.497 sec

--------------------------------
INITIAL GUESS: MINIMAL BASIS EHT
--------------------------------
The minimal basis has 37 functions
EHT matrix was diagonalized
Basis set overlap was calculated now projecting the orbitals
Using GuessMode=FMatrix for the initial guess
C*T matrix was formed
Effective Fockian was calculated
Effective Fockian was diagonalized
Initial density was built
                      ------------------
                      INITIAL GUESS DONE
                      ------------------
-------------------
DFT GRID GENERATION
-------------------

General Integration Accuracy     IntAcc      ... 4.959
Radial Grid Type                 RadialGrid  ... OptM3 with GC (2021)
Angular Grid (max. ang.)         AngularGrid ... 6 (Lebedev-590)
Angular grid pruning method      GridPruning ... 4 (adaptive)
Weight generation scheme         WeightScheme... Becke
Basis function cutoff            BFCut       ... 1.0000e-11
Integration weight cutoff        WCut        ... 1.0000e-14
Angular grids for H and He will be reduced by one unit
Partially contracted basis set               ... off
Rotationally invariant grid construction     ... off

Total number of grid points                  ...   175823
Total number of batches                      ...     2755
Average number of points per batch           ...       63
Average number of grid points per atom       ...    10343
Time for grid setup =    3.074 sec

--------------------
COSX GRID GENERATION
--------------------

GRIDX 1
-------
General Integration Accuracy     IntAcc      ... 4.020
Radial Grid Type                 RadialGrid  ... OptM3 with GC (2021)
Angular Grid (max. ang.)         AngularGrid ... 2 (Lebedev-110)
Angular grid pruning method      GridPruning ... 4 (adaptive)
Weight generation scheme         WeightScheme... Becke
Basis function cutoff            BFCut       ... 1.0000e-11
Integration weight cutoff        WCut        ... 1.0000e-14
Angular grids for H and He will be reduced by one unit
Partially contracted basis set               ... on
Rotationally invariant grid construction     ... off

Total number of grid points                  ...    18209
Total number of batches                      ...      295
Average number of points per batch           ...       61
Average number of grid points per atom       ...     1071
UseSFitting                                  ... on

GRIDX 2
-------
General Integration Accuracy     IntAcc      ... 4.338
Radial Grid Type                 RadialGrid  ... OptM3 with GC (2021)
Angular Grid (max. ang.)         AngularGrid ... 3 (Lebedev-194)
Angular grid pruning method      GridPruning ... 4 (adaptive)
Weight generation scheme         WeightScheme... Becke
Basis function cutoff            BFCut       ... 1.0000e-11
Integration weight cutoff        WCut        ... 1.0000e-14
Angular grids for H and He will be reduced by one unit
Partially contracted basis set               ... on
Rotationally invariant grid construction     ... off

Total number of grid points                  ...    39639
Total number of batches                      ...      625
Average number of points per batch           ...       63
Average number of grid points per atom       ...     2332
UseSFitting                                  ... on

GRIDX 3
-------
General Integration Accuracy     IntAcc      ... 4.871
Radial Grid Type                 RadialGrid  ... OptM3 with GC (2021)
Angular Grid (max. ang.)         AngularGrid ... 4 (Lebedev-302)
Angular grid pruning method      GridPruning ... 4 (adaptive)
Weight generation scheme         WeightScheme... Becke
Basis function cutoff            BFCut       ... 1.0000e-11
Integration weight cutoff        WCut        ... 1.0000e-14
Angular grids for H and He will be reduced by one unit
Partially contracted basis set               ... on
Rotationally invariant grid construction     ... off

Total number of grid points                  ...    79940
Total number of batches                      ...     1257
Average number of points per batch           ...       63
Average number of grid points per atom       ...     4702
UseSFitting                                  ... on

Time for X-Grid setup             =    3.369 sec

--------------
SCF ITERATIONS
--------------
ITER       Energy         Delta-E        Max-DP      RMS-DP      [F,P]     Damp
               ***  Starting incremental Fock matrix formation  ***
  0   -196.9771019355   0.000000000000 0.02358273  0.00223646  0.4022748 0.7000
  1   -197.0857858616  -0.108683926078 0.01725687  0.00170266  0.2850571 0.7000
  2   -197.1634546169  -0.077668755292 0.01214219  0.00126489  0.2010618 0.7000
                               ***Turning on DIIS***
  3   -197.2184684540  -0.055013837174 0.00850297  0.00093260  0.1417061 0.7000
  4   -197.2573452302  -0.038876776135 0.02197536  0.00239448  0.0997808 0.0000
                      *** Initiating the SOSCF procedure ***
                           *** Shutting down DIIS ***
                      *** Re-Reading the Fockian *** 
                      *** Removing any level shift *** 
ITER      Energy       Delta-E        Grad      Rot      Max-DP    RMS-DP
  5   -197.34947050  -0.0921252720  0.001336  0.001336  0.001636  0.000164
               *** Restarting incremental Fock matrix formation ***
  6   -197.34951441  -0.0000439050  0.000637  0.001248  0.001023  0.000095
  7   -197.34951982  -0.0000054166  0.000148  0.000260  0.000266  0.000024
  8   -197.34952006  -0.0000002365  0.000101  0.000098  0.000131  0.000009
  9   -197.34952023  -0.0000001702  0.000004  0.000006  0.000010  0.000001
 10   -197.34952023  -0.0000000023  0.000003  0.000002  0.000005  0.000000
                 **** Energy Check signals convergence ****
              ***Rediagonalizing the Fockian in SOSCF/NRSCF***

               *****************************************************
               *                     SUCCESS                       *
               *           SCF CONVERGED AFTER  11 CYCLES          *
               *****************************************************

Old exchange energy                            =    -12.686555284 Eh
New exchange energy                            =    -12.686562314 Eh
Exchange energy change after final integration =     -0.000007030 Eh
Total energy after final integration           =   -197.349527262 Eh
Final COS-X integration done in                =     2.612 sec

----------------
TOTAL SCF ENERGY
----------------

Total Energy       :         -197.34952726 Eh           -5370.15365 eV

Components:
Nuclear Repulsion  :          185.63528252 Eh            5051.39285 eV
Electronic Energy  :         -382.98480978 Eh          -10421.54650 eV
One Electron Energy:         -631.54217256 Eh          -17185.13619 eV
Two Electron Energy:          248.55736279 Eh            6763.58970 eV
Max COSX asymmetry :            0.00000064 Eh               0.00002 eV

Virial components:
Potential Energy   :         -393.04054011 Eh          -10695.17683 eV
Kinetic Energy     :          195.69101285 Eh            5325.02318 eV
Virial Ratio       :            2.00847517


DFT components:
N(Alpha)           :       21.000005552403 electrons
N(Beta)            :       21.000005552403 electrons
N(Total)           :       42.000011104807 electrons
E(X)               :      -16.796511952230 Eh       
E(C)               :       -1.761947039878 Eh       
E(XC)              :      -18.558458992108 Eh       
DFET-embed. en.    :        0.000000000000 Eh       

---------------
SCF CONVERGENCE
---------------

  Last Energy change         ...    9.9391e-11  Tolerance :   1.0000e-08
  Last MAX-Density change    ...    3.3307e-15  Tolerance :   1.0000e-07
  Last RMS-Density change    ...    5.8345e-17  Tolerance :   5.0000e-09
  Last Orbital Gradient      ...    1.8829e-07  Tolerance :   1.0000e-05
  Last Orbital Rotation      ...    1.8295e-07  Tolerance :   1.0000e-05

             **** THE GBW FILE WAS UPDATED (pbeh-3c.gbw) ****
             **** DENSITY pbeh-3c.scfp WAS UPDATED ****
             **** ENERGY FILE WAS UPDATED (pbeh-3c.en.tmp) ****
             **** THE GBW FILE WAS UPDATED (pbeh-3c.gbw) ****
             **** DENSITY pbeh-3c.scfp WAS UPDATED ****
----------------
ORBITAL ENERGIES
----------------

  NO   OCC          E(Eh)            E(eV) 
   0   2.0000     -10.426737      -283.7259 
   1   2.0000     -10.426711      -283.7252 
   2   2.0000     -10.424673      -283.6698 
   3   2.0000     -10.418823      -283.5106 
   4   2.0000     -10.418813      -283.5103 
   5   2.0000      -0.893135       -24.3034 
   6   2.0000      -0.836911       -22.7735 
   7   2.0000      -0.754625       -20.5344 
   8   2.0000      -0.670537       -18.2462 
   9   2.0000      -0.644170       -17.5288 
  10   2.0000      -0.536076       -14.5874 
  11   2.0000      -0.494947       -13.4682 
  12   2.0000      -0.488177       -13.2840 
  13   2.0000      -0.457587       -12.4516 
  14   2.0000      -0.447153       -12.1676 
  15   2.0000      -0.428069       -11.6483 
  16   2.0000      -0.402145       -10.9429 
  17   2.0000      -0.382237       -10.4012 
  18   2.0000      -0.373066       -10.1516 
  19   2.0000      -0.366209        -9.9650 
  20   2.0000      -0.361577        -9.8390 
  21   0.0000       0.137428         3.7396 
  22   0.0000       0.155150         4.2219 
  23   0.0000       0.185410         5.0453 
  24   0.0000       0.186646         5.0789 
  25   0.0000       0.202709         5.5160 
  26   0.0000       0.212447         5.7810 
  27   0.0000       0.221298         6.0218 
  28   0.0000       0.226838         6.1726 
  29   0.0000       0.239214         6.5093 
  30   0.0000       0.240418         6.5421 
  31   0.0000       0.248964         6.7746 
  32   0.0000       0.249557         6.7908 
  33   0.0000       0.252745         6.8775 
  34   0.0000       0.285244         7.7619 
  35   0.0000       0.297767         8.1026 
  36   0.0000       0.307867         8.3775 
  37   0.0000       0.475700        12.9445 
  38   0.0000       0.493230        13.4215 
  39   0.0000       0.517974        14.0948 
  40   0.0000       0.534416        14.5422 
  41   0.0000       0.549958        14.9651 
  42   0.0000       0.576618        15.6906 
  43   0.0000       0.579954        15.7813 
  44   0.0000       0.644618        17.5409 
  45   0.0000       0.670067        18.2335 
  46   0.0000       0.672422        18.2975 
  47   0.0000       0.713325        19.4106 
  48   0.0000       0.727658        19.8006 
  49   0.0000       0.781078        21.2542 
  50   0.0000       0.835217        22.7274 
  51   0.0000       0.895375        24.3644 
  52   0.0000       0.958732        26.0884 
  53   0.0000       0.981584        26.7103 
  54   0.0000       1.030728        28.0475 
  55   0.0000       1.031942        28.0806 
  56   0.0000       1.041789        28.3485 
  57   0.0000       1.042786        28.3756 
  58   0.0000       1.067854        29.0578 
  59   0.0000       1.070185        29.1212 
  60   0.0000       1.072047        29.1719 
  61   0.0000       1.074355        29.2347 
  62   0.0000       1.092396        29.7256 
  63   0.0000       1.104933        30.0667 
  64   0.0000       1.112831        30.2817 
  65   0.0000       1.344983        36.5988 
  66   0.0000       1.406887        38.2834 
  67   0.0000       1.461481        39.7689 
  68   0.0000       1.465649        39.8823 
  69   0.0000       1.512428        41.1553 
  70   0.0000       1.629954        44.3533 
  71   0.0000       1.648934        44.8698 
  72   0.0000       1.807478        49.1840 
  73   0.0000       1.829672        49.7879 
  74   0.0000       1.948963        53.0340 
  75   0.0000       1.964959        53.4693 
  76   0.0000       1.982925        53.9581 
  77   0.0000       2.031388        55.2769 
  78   0.0000       2.043012        55.5932 
  79   0.0000       2.067334        56.2550 
  80   0.0000       2.068124        56.2765 
  81   0.0000       2.156599        58.6840 
  82   0.0000       2.278751        62.0080 
  83   0.0000       2.298135        62.5354 
  84   0.0000       2.365735        64.3749 
  85   0.0000       2.387103        64.9564 
  86   0.0000       2.408412        65.5362 
  87   0.0000       2.497184        67.9518 
  88   0.0000       2.506133        68.1954 
  89   0.0000       2.526989        68.7629 
  90   0.0000       2.600242        70.7562 
  91   0.0000       2.622562        71.3636 
  92   0.0000       2.804276        76.3082 
  93   0.0000       2.832518        77.0767 
  94   0.0000      13.553366       368.8058 
  95   0.0000      13.754179       374.2702 
  96   0.0000      13.904408       378.3582 
  97   0.0000      13.992715       380.7611 
  98   0.0000      14.082861       383.2141 

                    ********************************
                    * MULLIKEN POPULATION ANALYSIS *
                    ********************************

-----------------------
MULLIKEN ATOMIC CHARGES
-----------------------
   0 C :   -0.638573
   1 H :    0.208758
   2 H :    0.208828
   3 H :    0.218384
   4 C :   -0.410035
   5 H :    0.204425
   6 H :    0.204384
   7 C :   -0.390906
   8 H :    0.199418
   9 H :    0.199146
  10 C :   -0.410035
  11 H :    0.204425
  12 H :    0.204384
  13 C :   -0.638573
  14 H :    0.208758
  15 H :    0.218384
  16 H :    0.208828
Sum of atomic charges:   -0.0000000

--------------------------------
MULLIKEN REDUCED ORBITAL CHARGES
--------------------------------
  0 C s       :     3.374933  s :     3.374933
      pz      :     1.025143  p :     3.226375
      px      :     1.113012
      py      :     1.088220
      dz2     :     0.010461  d :     0.037265
      dxz     :     0.003508
      dyz     :     0.008067
      dx2y2   :     0.009653
      dxy     :     0.005576
  1 H s       :     0.791242  s :     0.791242
  2 H s       :     0.791172  s :     0.791172
  3 H s       :     0.781616  s :     0.781616
  4 C s       :     3.318462  s :     3.318462
      pz      :     0.909748  p :     3.047335
      px      :     1.094320
      py      :     1.043266
      dz2     :     0.012939  d :     0.044238
      dxz     :     0.004952
      dyz     :     0.008551
      dx2y2   :     0.011529
      dxy     :     0.006268
  5 H s       :     0.795575  s :     0.795575
  6 H s       :     0.795616  s :     0.795616
  7 C s       :     3.314108  s :     3.314108
      pz      :     0.906594  p :     3.032636
      px      :     1.086989
      py      :     1.039053
      dz2     :     0.012865  d :     0.044162
      dxz     :     0.004954
      dyz     :     0.008495
      dx2y2   :     0.011655
      dxy     :     0.006194
  8 H s       :     0.800582  s :     0.800582
  9 H s       :     0.800854  s :     0.800854
 10 C s       :     3.318462  s :     3.318462
      pz      :     0.909748  p :     3.047335
      px      :     1.094320
      py      :     1.043266
      dz2     :     0.012939  d :     0.044238
      dxz     :     0.004952
      dyz     :     0.008551
      dx2y2   :     0.011529
      dxy     :     0.006268
 11 H s       :     0.795575  s :     0.795575
 12 H s       :     0.795616  s :     0.795616
 13 C s       :     3.374933  s :     3.374933
      pz      :     1.025143  p :     3.226375
      px      :     1.113012
      py      :     1.088220
      dz2     :     0.010461  d :     0.037265
      dxz     :     0.003508
      dyz     :     0.008067
      dx2y2   :     0.009653
      dxy     :     0.005576
 14 H s       :     0.791242  s :     0.791242
 15 H s       :     0.781616  s :     0.781616
 16 H s       :     0.791172  s :     0.791172


                     *******************************
                     * LOEWDIN POPULATION ANALYSIS *
                     *******************************

----------------------
LOEWDIN ATOMIC CHARGES
----------------------
   0 C :   -0.361918
   1 H :    0.123354
   2 H :    0.123317
   3 H :    0.125750
   4 C :   -0.246234
   5 H :    0.119209
   6 H :    0.119221
   7 C :   -0.241561
   8 H :    0.118131
   9 H :    0.118034
  10 C :   -0.246234
  11 H :    0.119209
  12 H :    0.119221
  13 C :   -0.361918
  14 H :    0.123354
  15 H :    0.125750
  16 H :    0.123317

-------------------------------
LOEWDIN REDUCED ORBITAL CHARGES
-------------------------------
  0 C s       :     2.950959  s :     2.950959
      pz      :     1.090965  p :     3.341475
      px      :     1.129270
      py      :     1.121240
      dz2     :     0.020145  d :     0.069485
      dxz     :     0.007135
      dyz     :     0.015937
      dx2y2   :     0.016610
      dxy     :     0.009659
  1 H s       :     0.876646  s :     0.876646
  2 H s       :     0.876683  s :     0.876683
  3 H s       :     0.874250  s :     0.874250
  4 C s       :     2.908457  s :     2.908457
      pz      :     1.048357  p :     3.247676
      px      :     1.105274
      py      :     1.094045
      dz2     :     0.027113  d :     0.090101
      dxz     :     0.011049
      dyz     :     0.020240
      dx2y2   :     0.020458
      dxy     :     0.011241
  5 H s       :     0.880791  s :     0.880791
  6 H s       :     0.880779  s :     0.880779
  7 C s       :     2.910931  s :     2.910931
      pz      :     1.043972  p :     3.240628
      px      :     1.103452
      py      :     1.093204
      dz2     :     0.027118  d :     0.090002
      dxz     :     0.011057
      dyz     :     0.019934
      dx2y2   :     0.020725
      dxy     :     0.011168
  8 H s       :     0.881869  s :     0.881869
  9 H s       :     0.881966  s :     0.881966
 10 C s       :     2.908457  s :     2.908457
      pz      :     1.048357  p :     3.247676
      px      :     1.105274
      py      :     1.094045
      dz2     :     0.027113  d :     0.090101
      dxz     :     0.011049
      dyz     :     0.020240
      dx2y2   :     0.020458
      dxy     :     0.011241
 11 H s       :     0.880791  s :     0.880791
 12 H s       :     0.880779  s :     0.880779
 13 C s       :     2.950959  s :     2.950959
      pz      :     1.090965  p :     3.341475
      px      :     1.129270
      py      :     1.121240
      dz2     :     0.020145  d :     0.069485
      dxz     :     0.007135
      dyz     :     0.015937
      dx2y2   :     0.016610
      dxy     :     0.009659
 14 H s       :     0.876646  s :     0.876646
 15 H s       :     0.874250  s :     0.874250
 16 H s       :     0.876683  s :     0.876683


                      *****************************
                      * MAYER POPULATION ANALYSIS *
                      *****************************

  NA   - Mulliken gross atomic population
  ZA   - Total nuclear charge
  QA   - Mulliken gross atomic charge
  VA   - Mayer's total valence
  BVA  - Mayer's bonded valence
  FA   - Mayer's free valence

  ATOM       NA         ZA         QA         VA         BVA        FA
  0 C      6.6386     6.0000    -0.6386     3.7460     3.7460    -0.0000
  1 H      0.7912     1.0000     0.2088     0.9145     0.9145    -0.0000
  2 H      0.7912     1.0000     0.2088     0.9145     0.9145    -0.0000
  3 H      0.7816     1.0000     0.2184     0.9136     0.9136    -0.0000
  4 C      6.4100     6.0000    -0.4100     3.7613     3.7613     0.0000
  5 H      0.7956     1.0000     0.2044     0.9087     0.9087    -0.0000
  6 H      0.7956     1.0000     0.2044     0.9086     0.9086     0.0000
  7 C      6.3909     6.0000    -0.3909     3.7289     3.7289    -0.0000
  8 H      0.8006     1.0000     0.1994     0.9115     0.9115     0.0000
  9 H      0.8009     1.0000     0.1991     0.9115     0.9115    -0.0000
 10 C      6.4100     6.0000    -0.4100     3.7613     3.7613     0.0000
 11 H      0.7956     1.0000     0.2044     0.9087     0.9087     0.0000
 12 H      0.7956     1.0000     0.2044     0.9086     0.9086     0.0000
 13 C      6.6386     6.0000    -0.6386     3.7460     3.7460    -0.0000
 14 H      0.7912     1.0000     0.2088     0.9145     0.9145    -0.0000
 15 H      0.7816     1.0000     0.2184     0.9136     0.9136    -0.0000
 16 H      0.7912     1.0000     0.2088     0.9145     0.9145    -0.0000

  Mayer bond orders larger than 0.100000
B(  0-C ,  1-H ) :   0.9297 B(  0-C ,  2-H ) :   0.9296 B(  0-C ,  3-H ) :   0.9324 
B(  0-C ,  4-C ) :   0.9986 B(  4-C ,  5-H ) :   0.9204 B(  4-C ,  6-H ) :   0.9204 
B(  4-C ,  7-C ) :   0.9923 B(  7-C ,  8-H ) :   0.9182 B(  7-C ,  9-H ) :   0.9183 
B(  7-C , 10-C ) :   0.9923 B( 10-C , 11-H ) :   0.9204 B( 10-C , 12-H ) :   0.9204 
B( 10-C , 13-C ) :   0.9986 B( 13-C , 14-H ) :   0.9297 B( 13-C , 15-H ) :   0.9324 
B( 13-C , 16-H ) :   0.9296 

-------
TIMINGS
-------

Total SCF time: 0 days 0 hours 0 min 56 sec 

Total time                  ....      56.699 sec
Sum of individual times     ....      51.098 sec  ( 90.1%)

Fock matrix formation       ....      41.861 sec  ( 73.8%)
  Split-RI-J                ....       4.917 sec  ( 11.7% of F)
  Chain of spheres X        ....      15.528 sec  ( 37.1% of F)
  XC integration            ....      12.726 sec  ( 30.4% of F)
    Basis function eval.    ....       2.314 sec  ( 18.2% of XC)
    Density eval.           ....       1.420 sec  ( 11.2% of XC)
    XC-Functional eval.     ....       1.157 sec  (  9.1% of XC)
    XC-Potential eval.      ....       0.741 sec  (  5.8% of XC)
Diagonalization             ....       0.520 sec  (  0.9%)
Density matrix formation    ....       0.117 sec  (  0.2%)
Population analysis         ....       0.454 sec  (  0.8%)
Initial guess               ....       0.036 sec  (  0.1%)
Orbital Transformation      ....       0.000 sec  (  0.0%)
Orbital Orthonormalization  ....       0.000 sec  (  0.0%)
DIIS solution               ....       0.952 sec  (  1.7%)
SOSCF solution              ....       0.715 sec  (  1.3%)
Grid generation             ....       6.443 sec  ( 11.4%)

Maximum memory used throughout the entire SCF-calculation: 52.4 MB


-------------------------------------------------------------------------------
                          DFT DISPERSION CORRECTION                            
                                                                               
                              DFTD3 V3.1  Rev 1                                
                          USING Becke-Johnson damping                          
-------------------------------------------------------------------------------
The PBEh-3c composite method is recognized
Using three-body term ABC
Active option DFTDOPT                   ...         4   

molecular C6(AA) [au] = 1797.860722 


            DFT-D V3
 parameters
 s6 scaling factor         :     1.0000 
 a1 scaling factor         :     0.4860 
 s8 scaling factor         :     0.0000 
 a2 scaling factor         :     4.5000 
 Damping factor alpha9(ATM):    16.0000 
 ad hoc parameters k1-k3   :    16.0000     1.3333    -4.0000 

 Edisp/kcal,au: -4.277096226948  -0.006815985969 
 E6   /kcal   :  -4.285315244 
 E8   /kcal   :  -0.000000000 
 E6(ABC)      :   0.008219018 
 % E8         :   0.000000000 
 % E6(ABC)    :  -0.192163493 

-------------------------   ----------------
Dispersion correction           -0.006815986
-------------------------   ----------------

------------------   -----------------
gCP correction             0.022449740
------------------   -----------------

-------------------------   --------------------
FINAL SINGLE POINT ENERGY      -197.333893508456
-------------------------   --------------------


                            ***************************************
                            *     ORCA property calculations      *
                            ***************************************

                                    ---------------------
                                    Active property flags
                                    ---------------------
   (+) Dipole Moment


------------------------------------------------------------------------------
                       ORCA ELECTRIC PROPERTIES CALCULATION
------------------------------------------------------------------------------

Dipole Moment Calculation                       ... on
Quadrupole Moment Calculation                   ... off
Polarizability Calculation                      ... off
GBWName                                         ... pbeh-3c.gbw
Electron density                                ... pbeh-3c.scfp
The origin for moment calculation is the CENTER OF MASS  = ( 0.028380,  0.054700 -0.000000)

-------------
DIPOLE MOMENT
-------------
                                X             Y             Z
Electronic contribution:      0.27210       0.52064       0.00000
Nuclear contribution   :     -0.26259      -0.50303      -0.00000
                        -----------------------------------------
Total Dipole Moment    :      0.00951       0.01761       0.00000
                        -----------------------------------------
Magnitude (a.u.)       :      0.02001
Magnitude (Debye)      :      0.05087



--------------------
Rotational spectrum 
--------------------
 
Rotational constants in cm-1:     0.569505     0.065446     0.062049 
Rotational constants in MHz : 17073.333979  1962.029228  1860.181683 

 Dipole components along the rotational axes: 
x,y,z [a.u.] :     0.000000     0.020014    -0.000030 
x,y,z [Debye]:     0.000000     0.050871    -0.000076 

 

Timings for individual modules:

Sum of individual times         ...       60.168 sec (=   1.003 min)
GTO integral calculation        ...        2.509 sec (=   0.042 min)   4.2 %
SCF iterations                  ...       57.660 sec (=   0.961 min)  95.8 %
                             ****ORCA TERMINATED NORMALLY****
TOTAL RUN TIME: 0 days 0 hours 1 minutes 2 seconds 391 msec
