
                                 *****************
                                 * O   R   C   A *
                                 *****************

                                            #,                                       
                                            ###                                      
                                            ####                                     
                                            #####                                    
                                            ######                                   
                                           ########,                                 
                                     ,,################,,,,,                         
                               ,,#################################,,                 
                          ,,##########################################,,             
                       ,#########################################, ''#####,          
                    ,#############################################,,   '####,        
                  ,##################################################,,,,####,       
                ,###########''''           ''''###############################       
              ,#####''   ,,,,##########,,,,          '''####'''          '####       
            ,##' ,,,,###########################,,,                        '##       
           ' ,,###''''                  '''############,,,                           
         ,,##''                                '''############,,,,        ,,,,,,###''
      ,#''                                            '''#######################'''  
     '                                                          ''''####''''         
             ,#######,   #######,   ,#######,      ##                                
            ,#'     '#,  ##    ##  ,#'     '#,    #''#        ######   ,####,        
            ##       ##  ##   ,#'  ##            #'  '#       #        #'  '#        
            ##       ##  #######   ##           ,######,      #####,   #    #        
            '#,     ,#'  ##    ##  '#,     ,#' ,#      #,         ##   #,  ,#        
             '#######'   ##     ##  '#######'  #'      '#     #####' # '####'        



                  #######################################################
                  #                        -***-                        #
                  #          Department of theory and spectroscopy      #
                  #    Directorship and core code : Frank Neese         #
                  #        Max Planck Institute fuer Kohlenforschung    #
                  #                Kaiser Wilhelm Platz 1               #
                  #                 D-45470 Muelheim/Ruhr               #
                  #                      Germany                        #
                  #                                                     #
                  #                  All rights reserved                #
                  #                        -***-                        #
                  #######################################################


                         Program Version 5.0.3 -  RELEASE  -


 With contributions from (in alphabetic order):
   Daniel Aravena         : Magnetic Suceptibility
   Michael Atanasov       : Ab Initio Ligand Field Theory (pilot matlab implementation)
   Alexander A. Auer      : GIAO ZORA, VPT2 properties, NMR spectrum
   Ute Becker             : Parallelization
   Giovanni Bistoni       : ED, misc. LED, open-shell LED, HFLD
   Martin Brehm           : Molecular dynamics
   Dmytro Bykov           : SCF Hessian
   Vijay G. Chilkuri      : MRCI spin determinant printing, contributions to CSF-ICE
   Dipayan Datta          : RHF DLPNO-CCSD density
   Achintya Kumar Dutta   : EOM-CC, STEOM-CC
   Dmitry Ganyushin       : Spin-Orbit,Spin-Spin,Magnetic field MRCI
   Miquel Garcia          : C-PCM and meta-GGA Hessian, CC/C-PCM, Gaussian charge scheme
   Yang Guo               : DLPNO-NEVPT2, F12-NEVPT2, CIM, IAO-localization
   Andreas Hansen         : Spin unrestricted coupled pair/coupled cluster methods
   Benjamin Helmich-Paris : MC-RPA, TRAH-SCF, COSX integrals
   Lee Huntington         : MR-EOM, pCC
   Robert Izsak           : Overlap fitted RIJCOSX, COSX-SCS-MP3, EOM
   Marcus Kettner         : VPT2
   Christian Kollmar      : KDIIS, OOCD, Brueckner-CCSD(T), CCSD density, CASPT2, CASPT2-K
   Simone Kossmann        : Meta GGA functionals, TD-DFT gradient, OOMP2, MP2 Hessian
   Martin Krupicka        : Initial AUTO-CI
   Lucas Lang             : DCDCAS
   Marvin Lechner         : AUTO-CI (C++ implementation), FIC-MRCC
   Dagmar Lenk            : GEPOL surface, SMD
   Dimitrios Liakos       : Extrapolation schemes; Compound Job, initial MDCI parallelization
   Dimitrios Manganas     : Further ROCIS development; embedding schemes
   Dimitrios Pantazis     : SARC Basis sets
   Anastasios Papadopoulos: AUTO-CI, single reference methods and gradients
   Taras Petrenko         : DFT Hessian,TD-DFT gradient, ASA, ECA, R-Raman, ABS, FL, XAS/XES, NRVS
   Peter Pinski           : DLPNO-MP2, DLPNO-MP2 Gradient
   Christoph Reimann      : Effective Core Potentials
   Marius Retegan         : Local ZFS, SOC
   Christoph Riplinger    : Optimizer, TS searches, QM/MM, DLPNO-CCSD(T), (RO)-DLPNO pert. Triples
   Tobias Risthaus        : Range-separated hybrids, TD-DFT gradient, RPA, STAB
   Michael Roemelt        : Original ROCIS implementation
   Masaaki Saitow         : Open-shell DLPNO-CCSD energy and density
   Barbara Sandhoefer     : DKH picture change effects
   Avijit Sen             : IP-ROCIS
   Kantharuban Sivalingam : CASSCF convergence, NEVPT2, FIC-MRCI
   Bernardo de Souza      : ESD, SOC TD-DFT
   Georgi Stoychev        : AutoAux, RI-MP2 NMR, DLPNO-MP2 response
   Willem Van den Heuvel  : Paramagnetic NMR
   Boris Wezisla          : Elementary symmetry handling
   Frank Wennmohs         : Technical directorship


 We gratefully acknowledge several colleagues who have allowed us to
 interface, adapt or use parts of their codes:
   Stefan Grimme, W. Hujo, H. Kruse, P. Pracht,  : VdW corrections, initial TS optimization,
                  C. Bannwarth, S. Ehlert          DFT functionals, gCP, sTDA/sTD-DF
   Ed Valeev, F. Pavosevic, A. Kumar             : LibInt (2-el integral package), F12 methods
   Garnet Chan, S. Sharma, J. Yang, R. Olivares  : DMRG
   Ulf Ekstrom                                   : XCFun DFT Library
   Mihaly Kallay                                 : mrcc  (arbitrary order and MRCC methods)
   Jiri Pittner, Ondrej Demel                    : Mk-CCSD
   Frank Weinhold                                : gennbo (NPA and NBO analysis)
   Christopher J. Cramer and Donald G. Truhlar   : smd solvation model
   Lars Goerigk                                  : TD-DFT with DH, B97 family of functionals
   V. Asgeirsson, H. Jonsson                     : NEB implementation
   FAccTs GmbH                                   : IRC, NEB, NEB-TS, DLPNO-Multilevel, CI-OPT
                                                   MM, QMMM, 2- and 3-layer-ONIOM, Crystal-QMMM,
                                                   LR-CPCM, SF, NACMEs, symmetry and pop. for TD-DFT,
                                                   nearIR, NL-DFT gradient (VV10), updates on ESD,
                                                   ML-optimized integration grids
   S Lehtola, MJT Oliveira, MAL Marques          : LibXC Library
   Liviu Ungur et al                             : ANISO software


 Your calculation uses the libint2 library for the computation of 2-el integrals
 For citations please refer to: http://libint.valeyev.net

 Your ORCA version has been built with support for libXC version: 5.1.0
 For citations please refer to: https://tddft.org/programs/libxc/

 This ORCA versions uses:
   CBLAS   interface :  Fast vector & matrix operations
   LAPACKE interface :  Fast linear algebra routines
   SCALAPACK package :  Parallel linear algebra routines
   Shared memory     :  Shared parallel matrices
   BLAS/LAPACK       :  OpenBLAS 0.3.15  USE64BITINT DYNAMIC_ARCH NO_AFFINITY Haswell SINGLE_THREADED
        Core in use  :  Haswell
   Copyright (c) 2011-2014, The OpenBLAS Project




***************************************
The coordinates will be read from file: 1e.xyz
***************************************


Your calculation utilizes the geometrical counterpoise correction gCP
Please cite in your paper:
H.Kruse, S. Grimme J.Chem.Phys., 136, (2012), 154101 
   

Your calculation utilizes the atom-pairwise dispersion correction
with the Becke-Johnson damping scheme (D3BJ)
Cite in your paper:
S.Grimme, S.Ehrlich, L.Goerigk, J Comput Chem, (2011), 32, 1456–1465 
S.Grimme, J.Antony, S.Ehrlich and H.Krieg, J.Chem.Phys., 132, (2010), 154104 
   

Your calculation employs the composite approach PBEh-3c.
Please cite in your paper:
S. Grimme, J. G. Brandenburg, C. Bannwarth, A. Hansen J.Chem.Phys., 143, (2015), 054107 
   

================================================================================

----- Orbital basis set information -----
Your calculation utilizes the basis: def2-mSVP

----- AuxJ basis set information -----
Your calculation utilizes the auxiliary basis: def2/J
   F. Weigend, Phys. Chem. Chem. Phys. 8, 1057 (2006).

================================================================================
                                        WARNINGS
                       Please study these warnings very carefully!
================================================================================


INFO   : the flag for use of the SHARK integral package has been found!

================================================================================
                                       INPUT FILE
================================================================================
NAME = pbeh-3c.inp
|  1> ! PBEh-3c def2/J TightSCF DefGrid3
|  2> 
|  3> %maxcore 60000
|  4> 
|  5> %pal
|  6> nprocs 4
|  7> end
|  8> 
|  9> *xyzfile -1 1 1e.xyz
| 10> 
| 11>                          ****END OF INPUT****
================================================================================

                       ****************************
                       * Single Point Calculation *
                       ****************************

---------------------------------
CARTESIAN COORDINATES (ANGSTROEM)
---------------------------------
  H      5.590407   -0.355879   -2.950188
  O      4.807633   -0.377020   -2.376698
  C      3.650100   -0.495901   -3.219186
  H      3.795999   -1.283961   -3.968080
  H      3.450019    0.449927   -3.740926
  C      2.439801   -0.824087   -2.376405
  H      1.553142   -0.815580   -3.021744
  O      2.584208   -2.162712   -1.805218
  C      2.018313   -2.208402   -0.509459
  H      1.325998   -3.046994   -0.424397
  N      3.101630   -2.440578    0.497606
  C      4.424962   -2.241167    0.204346
  H      4.621924   -1.907024   -0.809454
  C      5.409961   -2.437778    1.118172
  H      6.446851   -2.271967    0.857038
  C      5.083336   -2.870849    2.451447
  O      5.877897   -3.090514    3.375829
  N      3.705863   -3.035314    2.665697
  H      3.417735   -3.330036    3.595242
  C      2.681998   -2.841389    1.762240
  O      1.494700   -3.001264    2.044294
  C      2.192508    0.058026   -1.155200
  H      3.134746    0.285561   -0.645891
  C      1.324766   -0.862684   -0.274172
  H      1.326020   -0.575683    0.781076
  O      0.001497   -0.992443   -0.776818
  H     -0.481625   -0.151864   -0.613866
  O      1.554709    1.274768   -1.539910
  P      1.660972    2.564149   -0.518449
  O      1.209942    3.752368   -1.312051
  O      2.982719    2.519756    0.189209
  O      0.515596    2.160216    0.592042
  C     -0.709735    2.910181    0.665966
  H     -0.522321    3.978124    0.522563
  H     -1.104986    2.736418    1.671233
  C     -1.705461    2.446371   -0.376655
  H     -1.331709    2.669367   -1.381762
  O     -1.879101    1.003689   -0.262856
  C     -3.206662    0.618420   -0.587385
  H     -3.211730   -0.066864   -1.437480
  N     -3.776029   -0.110198    0.588579
  C     -3.069283   -0.292380    1.750489
  H     -2.070862    0.123677    1.740645
  C     -3.580698   -0.945417    2.823669
  H     -2.993675   -1.075377    3.722988
  C     -4.917902   -1.478924    2.774042
  O     -5.505725   -2.090100    3.674624
  N     -5.564086   -1.254131    1.548473
  H     -6.510793   -1.613998    1.455260
  C     -5.072368   -0.598745    0.440774
  O     -5.717425   -0.457158   -0.597294
  C     -3.117968    2.992739   -0.202902
  H     -3.381836    3.067834    0.857858
  C     -3.973455    1.913421   -0.898419
  H     -5.002644    1.884525   -0.533294
  O     -3.933679    2.112799   -2.310443
  H     -3.845966    3.081003   -2.431029
  O     -3.221137    4.262004   -0.847792
  H     -3.977091    4.739039   -0.465980

----------------------------
CARTESIAN COORDINATES (A.U.)
----------------------------
  NO LB      ZA    FRAG     MASS         X           Y           Z
   0 H     1.0000    0     1.008   10.564337   -0.672514   -5.575048
   1 O     8.0000    0    15.999    9.085109   -0.712464   -4.491307
   2 C     6.0000    0    12.011    6.897689   -0.937116   -6.083379
   3 H     1.0000    0     1.008    7.173398   -2.426334   -7.498584
   4 H     1.0000    0     1.008    6.519592    0.850240   -7.069326
   5 C     6.0000    0    12.011    4.610556   -1.557298   -4.490755
   6 H     1.0000    0     1.008    2.935014   -1.541222   -5.710270
   7 O     8.0000    0    15.999    4.883446   -4.086934   -3.411368
   8 C     6.0000    0    12.011    3.814059   -4.173274   -0.962737
   9 H     1.0000    0     1.008    2.505773   -5.757984   -0.801993
  10 N     7.0000    0    14.007    5.861230   -4.612025    0.940339
  11 C     6.0000    0    12.011    8.361966   -4.235192    0.386157
  12 H     1.0000    0     1.008    8.734170   -3.603753   -1.529646
  13 C     6.0000    0    12.011   10.223345   -4.606734    2.113040
  14 H     1.0000    0     1.008   12.182783   -4.293395    1.619567
  15 C     6.0000    0    12.011    9.606114   -5.425119    4.632563
  16 O     8.0000    0    15.999   11.107616   -5.840225    6.379392
  17 N     7.0000    0    14.007    7.003067   -5.735913    5.037437
  18 H     1.0000    0     1.008    6.458583   -6.292857    6.794023
  19 C     6.0000    0    12.011    5.068241   -5.369447    3.330152
  20 O     8.0000    0    15.999    2.824573   -5.671567    3.863155
  21 C     6.0000    0    12.011    4.143240    0.109652   -2.183011
  22 H     1.0000    0     1.008    5.923811    0.539633   -1.220556
  23 C     6.0000    0    12.011    2.503445   -1.630236   -0.518110
  24 H     1.0000    0     1.008    2.505814   -1.087882    1.476020
  25 O     8.0000    0    15.999    0.002829   -1.875446   -1.467973
  26 H     1.0000    0     1.008   -0.910140   -0.286982   -1.160039
  27 O     8.0000    0    15.999    2.937974    2.408962   -2.910008
  28 P    15.0000    0    30.974    3.138782    4.845539   -0.979726
  29 O     8.0000    0    15.999    2.286459    7.090948   -2.479417
  30 O     8.0000    0    15.999    5.636521    4.761648    0.357553
  31 O     8.0000    0    15.999    0.974335    4.082217    1.118797
  32 C     6.0000    0    12.011   -1.341204    5.499445    1.258494
  33 H     1.0000    0     1.008   -0.987044    7.517565    0.987501
  34 H     1.0000    0     1.008   -2.088121    5.171081    3.158173
  35 C     6.0000    0    12.011   -3.222854    4.622971   -0.711775
  36 H     1.0000    0     1.008   -2.516565    5.044372   -2.611151
  37 O     8.0000    0    15.999   -3.550987    1.896697   -0.496725
  38 C     6.0000    0    12.011   -6.059713    1.168645   -1.109996
  39 H     1.0000    0     1.008   -6.069289   -0.126354   -2.716443
  40 N     7.0000    0    14.007   -7.135660   -0.208245    1.112253
  41 C     6.0000    0    12.011   -5.800105   -0.552518    3.307945
  42 H     1.0000    0     1.008   -3.913362    0.233715    3.289343
  43 C     6.0000    0    12.011   -6.766539   -1.786580    5.335962
  44 H     1.0000    0     1.008   -5.657225   -2.032169    7.035428
  45 C     6.0000    0    12.011   -9.293489   -2.794762    5.242179
  46 O     8.0000    0    15.999  -10.404312   -3.949717    6.944033
  47 N     7.0000    0    14.007  -10.514599   -2.369963    2.926190
  48 H     1.0000    0     1.008  -12.303617   -3.050015    2.750043
  49 C     6.0000    0    12.011   -9.585387   -1.131463    0.832942
  50 O     8.0000    0    15.999  -10.804367   -0.863903   -1.128723
  51 C     6.0000    0    12.011   -5.892105    5.655458   -0.383430
  52 H     1.0000    0     1.008   -6.390743    5.797366    1.621117
  53 C     6.0000    0    12.011   -7.508742    3.615842   -1.697766
  54 H     1.0000    0     1.008   -9.453626    3.561236   -1.007780
  55 O     8.0000    0    15.999   -7.433575    3.992612   -4.366104
  56 H     1.0000    0     1.008   -7.267822    5.822251   -4.593979
  57 O     8.0000    0    15.999   -6.087068    8.054020   -1.602095
  58 H     1.0000    0     1.008   -7.515612    8.955487   -0.880574

--------------------------------
INTERNAL COORDINATES (ANGSTROEM)
--------------------------------
 H      0   0   0     0.000000000000     0.00000000     0.00000000
 O      1   0   0     0.970604810909     0.00000000     0.00000000
 C      2   1   0     1.436593713497   107.76503050     0.00000000
 H      3   2   1     1.096890116489   110.65089689    47.44787484
 H      3   2   1     1.098560859217   110.73376816   287.00714402
 C      3   2   1     1.510896170761   109.65129506   168.14905290
 H      6   3   2     1.096676588966   108.52509919   174.63723396
 O      6   3   2     1.462541017360   109.72844794   292.99973363
 C      8   6   3     1.414679258775   110.35151363   144.77703434
 H      9   8   6     1.090767204005   110.49652789   128.74866818
 N      9   8   6     1.497217072706   109.36943267   245.93201721
 C     11   9   8     1.370027456170   122.16388285    17.00485478
 H     12  11   9     1.085465378052   114.83440231   359.82661191
 C     12  11   9     1.357924366778   122.37945622   179.33945154
 H     14  12  11     1.082046879668   120.69742746   180.00048304
 C     14  12  11     1.439393788859   120.15275831     0.00000000
 O     16  14  12     1.238572293228   126.80507718   179.77679265
 N     16  14  12     1.403703631156   113.53495327   359.36444241
 H     18  16  14     1.016825388834   116.84355364   180.69478793
 C     18  16  14     1.379181483141   127.73722089     0.51973350
 O     20  18  16     1.230768208482   123.21388762   180.57759146
 C      6   3   2     1.526636433865   116.77275140    50.22704058
 H     22   6   3     1.094979444387   110.65578880   319.35676148
 C      9   8   6     1.532097890018   107.05998771     6.43238713
 H     24   9   8     1.093581310109   112.22129331   210.31963444
 O     24   9   8     1.421453920828   106.67387311    87.95184114
 H     26  24   9     0.983124310964   108.71189426   178.16697649
 O     22   6   3     1.426622649424   110.45752307    80.71303967
 P     28  22   6     1.648386737964   118.11269332   200.80057527
 O     29  28  22     1.498365087380   105.82421984   166.53044411
 O     29  28  22     1.499921644345   109.02712394    32.90621951
 O     29  28  22     1.645672053273   100.44496576   281.00468202
 C     32  29  28     1.438522412742   119.97075101   249.80007580
 H     33  32  29     1.093704895788   110.87711408   320.59764132
 H     33  32  29     1.094065458650   105.79193740   201.70233324
 C     33  32  29     1.514480028203   111.40711380    81.86531123
 H     36  33  32     1.095288586609   110.18473604   294.15794403
 O     36  33  32     1.457543557548   109.12943562    52.93541791
 C     38  36  33     1.419918292914   111.22943634   146.74942860
 H     39  38  36     1.091925525060   110.64404200   119.78452072
 N     39  38  36     1.495979326064   107.95872655   237.44504468
 C     41  39  38     1.372120638392   122.29543935     1.55574542
 H     42  41  39     1.081686289149   114.62326230   359.44890021
 C     42  41  39     1.356362212773   122.66464843   179.63614933
 H     44  42  41     1.081785557336   120.73048182   179.70165520
 C     44  42  41     1.440558050436   120.06933205   359.88280588
 O     46  44  42     1.236980144637   126.79944331   180.12764338
 N     46  44  42     1.403603820506   113.46024306     0.43739428
 H     48  46  44     1.017078404421   116.86425588   179.69999032
 C     48  46  44     1.377793356316   127.86983167   359.68142340
 O     50  48  46     1.230337694382   123.08992843   179.62884042
 C     36  33  32     1.524429246914   114.89584730   168.76777181
 H     52  36  33     1.095663461233   110.98111569   323.39493961
 C     39  38  36     1.536795726025   106.50615454   358.25935748
 H     54  39  38     1.092419397461   112.34232844   217.49308943
 O     54  39  38     1.426584891138   107.70904857    94.76098864
 H     56  54  39     0.979618594608   105.21641800   217.09049136
 O     52  36  33     1.427431021257   109.52215293    86.34845353
 H     58  52  36     0.972012873450   108.36915875   200.83820444

---------------------------
INTERNAL COORDINATES (A.U.)
---------------------------
 H      0   0   0     0.000000000000     0.00000000     0.00000000
 O      1   0   0     1.834177276885     0.00000000     0.00000000
 C      2   1   0     2.714768684222   107.76503050     0.00000000
 H      3   2   1     2.072821919170   110.65089689    47.44787484
 H      3   2   1     2.075979165366   110.73376816   287.00714402
 C      3   2   1     2.855179979528   109.65129506   168.14905290
 H      6   3   2     2.072418410629   108.52509919   174.63723396
 O      6   3   2     2.763801982438   109.72844794   292.99973363
 C      8   6   3     2.673356366423   110.35151363   144.77703434
 H      9   8   6     2.061251291432   110.49652789   128.74866818
 N      9   8   6     2.829330230445   109.36943267   245.93201721
 C     11   9   8     2.588976688115   122.16388285    17.00485478
 H     12  11   9     2.051232292372   114.83440231   359.82661191
 C     12  11   9     2.566105163788   122.37945622   179.33945154
 H     14  12  11     2.044772266636   120.69742746   180.00048304
 C     14  12  11     2.720060059811   120.15275831     0.00000000
 O     16  14  12     2.340562431263   126.80507718   179.77679265
 N     16  14  12     2.652615436075   113.53495327   359.36444241
 H     18  16  14     1.921521510915   116.84355364   180.69478793
 C     18  16  14     2.606275292112   127.73722089     0.51973350
 O     20  18  16     2.325814848368   123.21388762   180.57759146
 C      6   3   2     2.884924766071   116.77275140    50.22704058
 H     22   6   3     2.069211272165   110.65578880   319.35676148
 C      9   8   6     2.895245422494   107.05998771     6.43238713
 H     24   9   8     2.066569181281   112.22129331   210.31963444
 O     24   9   8     2.686158622353   106.67387311    87.95184114
 H     26  24   9     1.857835703321   108.71189426   178.16697649
 O     22   6   3     2.695926103860   110.45752307    80.71303967
 P     28  22   6     3.114999497540   118.11269332   200.80057527
 O     29  28  22     2.831499663777   105.82421984   166.53044411
 O     29  28  22     2.834441130153   109.02712394    32.90621951
 O     29  28  22     3.109869486933   100.44496576   281.00468202
 C     32  29  28     2.718413397590   119.97075101   249.80007580
 H     33  32  29     2.066802724368   110.87711408   320.59764132
 H     33  32  29     2.067484089431   105.79193740   201.70233324
 C     33  32  29     2.861952488597   111.40711380    81.86531123
 H     36  33  32     2.069795466301   110.18473604   294.15794403
 O     36  33  32     2.754358152027   109.12943562    52.93541791
 C     38  36  33     2.683256706153   111.22943634   146.74942860
 H     39  38  36     2.063440201002   110.64404200   119.78452072
 N     39  38  36     2.826991228269   107.95872655   237.44504468
 C     41  39  38     2.592932229262   122.29543935     1.55574542
 H     42  41  39     2.044090849308   114.62326230   359.44890021
 C     42  41  39     2.563153120541   122.66464843   179.63614933
 H     44  42  41     2.044278438997   120.73048182   179.70165520
 C     44  42  41     2.722260195340   120.06933205   359.88280588
 O     46  44  42     2.337553706462   126.79944331   180.12764338
 N     46  44  42     2.652426821282   113.46024306     0.43739428
 H     48  46  44     1.921999641082   116.86425588   179.69999032
 C     48  46  44     2.603652112573   127.86983167   359.68142340
 O     50  48  46     2.325001294621   123.08992843   179.62884042
 C     36  33  32     2.880753787208   114.89584730   168.76777181
 H     52  36  33     2.070503876675   110.98111569   323.39493961
 C     39  38  36     2.904123045968   106.50615454   358.25935748
 H     54  39  38     2.064373484584   112.34232844   217.49308943
 O     54  39  38     2.695854751041   107.70904857    94.76098864
 H     56  54  39     1.851210859505   105.21641800   217.09049136
 O     52  36  33     2.697453705239   109.52215293    86.34845353
 H     58  52  36     1.836838129467   108.36915875   200.83820444

---------------------
BASIS SET INFORMATION
---------------------
There are 5 groups of distinct atoms

 Group   1 Type H   : 4s contracted to 2s pattern {31}
 Group   2 Type O   : 8s4p1d contracted to 4s2p1d pattern {5111/31/1}
 Group   3 Type C   : 8s4p1d contracted to 4s2p1d pattern {5111/31/1}
 Group   4 Type N   : 8s4p1d contracted to 4s2p1d pattern {5111/31/1}
 Group   5 Type P   : 10s7p1d contracted to 4s3p1d pattern {5311/511/1}

Atom   0H    basis set group =>   1
Atom   1O    basis set group =>   2
Atom   2C    basis set group =>   3
Atom   3H    basis set group =>   1
Atom   4H    basis set group =>   1
Atom   5C    basis set group =>   3
Atom   6H    basis set group =>   1
Atom   7O    basis set group =>   2
Atom   8C    basis set group =>   3
Atom   9H    basis set group =>   1
Atom  10N    basis set group =>   4
Atom  11C    basis set group =>   3
Atom  12H    basis set group =>   1
Atom  13C    basis set group =>   3
Atom  14H    basis set group =>   1
Atom  15C    basis set group =>   3
Atom  16O    basis set group =>   2
Atom  17N    basis set group =>   4
Atom  18H    basis set group =>   1
Atom  19C    basis set group =>   3
Atom  20O    basis set group =>   2
Atom  21C    basis set group =>   3
Atom  22H    basis set group =>   1
Atom  23C    basis set group =>   3
Atom  24H    basis set group =>   1
Atom  25O    basis set group =>   2
Atom  26H    basis set group =>   1
Atom  27O    basis set group =>   2
Atom  28P    basis set group =>   5
Atom  29O    basis set group =>   2
Atom  30O    basis set group =>   2
Atom  31O    basis set group =>   2
Atom  32C    basis set group =>   3
Atom  33H    basis set group =>   1
Atom  34H    basis set group =>   1
Atom  35C    basis set group =>   3
Atom  36H    basis set group =>   1
Atom  37O    basis set group =>   2
Atom  38C    basis set group =>   3
Atom  39H    basis set group =>   1
Atom  40N    basis set group =>   4
Atom  41C    basis set group =>   3
Atom  42H    basis set group =>   1
Atom  43C    basis set group =>   3
Atom  44H    basis set group =>   1
Atom  45C    basis set group =>   3
Atom  46O    basis set group =>   2
Atom  47N    basis set group =>   4
Atom  48H    basis set group =>   1
Atom  49C    basis set group =>   3
Atom  50O    basis set group =>   2
Atom  51C    basis set group =>   3
Atom  52H    basis set group =>   1
Atom  53C    basis set group =>   3
Atom  54H    basis set group =>   1
Atom  55O    basis set group =>   2
Atom  56H    basis set group =>   1
Atom  57O    basis set group =>   2
Atom  58H    basis set group =>   1
---------------------------------
AUXILIARY/J BASIS SET INFORMATION
---------------------------------
There are 5 groups of distinct atoms

 Group   1 Type H   : 5s2p1d contracted to 3s1p1d pattern {311/2/1}
 Group   2 Type O   : 12s5p4d2f1g contracted to 6s4p3d1f1g pattern {711111/2111/211/2/1}
 Group   3 Type C   : 12s5p4d2f1g contracted to 6s4p3d1f1g pattern {711111/2111/211/2/1}
 Group   4 Type N   : 12s5p4d2f1g contracted to 6s4p3d1f1g pattern {711111/2111/211/2/1}
 Group   5 Type P   : 14s5p5d2f1g contracted to 8s4p3d1f1g pattern {71111111/2111/311/2/1}

Atom   0H    basis set group =>   1
Atom   1O    basis set group =>   2
Atom   2C    basis set group =>   3
Atom   3H    basis set group =>   1
Atom   4H    basis set group =>   1
Atom   5C    basis set group =>   3
Atom   6H    basis set group =>   1
Atom   7O    basis set group =>   2
Atom   8C    basis set group =>   3
Atom   9H    basis set group =>   1
Atom  10N    basis set group =>   4
Atom  11C    basis set group =>   3
Atom  12H    basis set group =>   1
Atom  13C    basis set group =>   3
Atom  14H    basis set group =>   1
Atom  15C    basis set group =>   3
Atom  16O    basis set group =>   2
Atom  17N    basis set group =>   4
Atom  18H    basis set group =>   1
Atom  19C    basis set group =>   3
Atom  20O    basis set group =>   2
Atom  21C    basis set group =>   3
Atom  22H    basis set group =>   1
Atom  23C    basis set group =>   3
Atom  24H    basis set group =>   1
Atom  25O    basis set group =>   2
Atom  26H    basis set group =>   1
Atom  27O    basis set group =>   2
Atom  28P    basis set group =>   5
Atom  29O    basis set group =>   2
Atom  30O    basis set group =>   2
Atom  31O    basis set group =>   2
Atom  32C    basis set group =>   3
Atom  33H    basis set group =>   1
Atom  34H    basis set group =>   1
Atom  35C    basis set group =>   3
Atom  36H    basis set group =>   1
Atom  37O    basis set group =>   2
Atom  38C    basis set group =>   3
Atom  39H    basis set group =>   1
Atom  40N    basis set group =>   4
Atom  41C    basis set group =>   3
Atom  42H    basis set group =>   1
Atom  43C    basis set group =>   3
Atom  44H    basis set group =>   1
Atom  45C    basis set group =>   3
Atom  46O    basis set group =>   2
Atom  47N    basis set group =>   4
Atom  48H    basis set group =>   1
Atom  49C    basis set group =>   3
Atom  50O    basis set group =>   2
Atom  51C    basis set group =>   3
Atom  52H    basis set group =>   1
Atom  53C    basis set group =>   3
Atom  54H    basis set group =>   1
Atom  55O    basis set group =>   2
Atom  56H    basis set group =>   1
Atom  57O    basis set group =>   2
Atom  58H    basis set group =>   1


           ************************************************************
           *        Program running with 4 parallel MPI-processes     *
           *              working on a common directory               *
           ************************************************************
------------------------------------------------------------------------------
                           ORCA GTO INTEGRAL CALCULATION
                           -- RI-GTO INTEGRALS CHOSEN --
------------------------------------------------------------------------------
------------------------------------------------------------------------------
                   ___                                                        
                  /   \      - P O W E R E D   B Y -                         
                 /     \                                                     
                 |  |  |   _    _      __       _____    __    __             
                 |  |  |  | |  | |    /  \     |  _  \  |  |  /  |          
                  \  \/   | |  | |   /    \    | | | |  |  | /  /          
                 / \  \   | |__| |  /  /\  \   | |_| |  |  |/  /          
                |  |  |   |  __  | /  /__\  \  |    /   |      \           
                |  |  |   | |  | | |   __   |  |    \   |  |\   \          
                \     /   | |  | | |  |  |  |  | |\  \  |  | \   \       
                 \___/    |_|  |_| |__|  |__|  |_| \__\ |__|  \__/        
                                                                              
                      - O R C A' S   B I G   F R I E N D -                    
                                      &                                       
                       - I N T E G R A L  F E E D E R -                       
                                                                              
 v1 FN, 2020, v2 2021                                                         
------------------------------------------------------------------------------


Reading SHARK input file pbeh-3c.SHARKINP.tmp ... ok
----------------------
SHARK INTEGRAL PACKAGE
----------------------

Number of atoms                             ...     59
Number of basis functions                   ...    602
Number of shells                            ...    304
Maximum angular momentum                    ...      2
Integral batch strategy                     ... SHARK/LIBINT Hybrid
RI-J (if used) integral strategy            ... SPLIT-RIJ (Revised 2003 algorithm where possible)
Printlevel                                  ...      1
Contraction scheme used                     ... SEGMENTED contraction
Coulomb Range Separation                    ... NOT USED
Exchange Range Separation                   ... NOT USED
Finite Nucleus Model                        ... NOT USED
Auxiliary Coulomb fitting basis             ... AVAILABLE
   # of basis functions in Aux-J            ...   2057
   # of shells in Aux-J                     ...    667
   Maximum angular momentum in Aux-J        ...      4
Auxiliary J/K fitting basis                 ... NOT available
Auxiliary Correlation fitting basis         ... NOT available
Auxiliary 'external' fitting basis          ... NOT available
Integral threshold                          ...     2.500000e-11
Primitive cut-off                           ...     2.500000e-12
Primitive pair pre-selection threshold      ...     2.500000e-12

Calculating pre-screening integrals         ... done (  0.2 sec) Dimension = 304
Organizing shell pair data                  ... done (  1.0 sec)
Shell pair information
Total number of shell pairs                 ...     46360
Shell pairs after pre-screening             ...     22607
Total number of primitive shell pairs       ...    165582
Primitive shell pairs kept                  ...     48484
          la=0 lb=0:   7873 shell pairs
          la=1 lb=0:   7992 shell pairs
          la=1 lb=1:   1926 shell pairs
          la=2 lb=0:   2974 shell pairs
          la=2 lb=1:   1545 shell pairs
          la=2 lb=2:    297 shell pairs

Calculating one electron integrals          ... done (  0.3 sec)
Calculating RI/J V-Matrix + Cholesky decomp.... done (  3.5 sec)
Calculating Nuclear repulsion               ... done (  0.1 sec) ENN=   4740.942295043888 Eh

SHARK setup successfully completed in   7.6 seconds

Maximum memory used throughout the entire GTOINT-calculation: 53.8 MB


           ************************************************************
           *        Program running with 4 parallel MPI-processes     *
           *              working on a common directory               *
           ************************************************************
-------------------------------------------------------------------------------
                                 ORCA SCF
-------------------------------------------------------------------------------

------------
SCF SETTINGS
------------
Hamiltonian:
 Density Functional     Method          .... DFT(GTOs)
 Exchange Functional    Exchange        .... PBE
   PBE kappa parameter   XKappa         ....  1.024500
   PBE mue parameter    XMuePBE         ....  0.123457
 Correlation Functional Correlation     .... PBE
   PBE beta parameter  CBetaPBE         ....  0.030000
 LDA part of GGA corr.  LDAOpt          .... PW91-LDA
 Gradients option       PostSCFGGA      .... off
 Hybrid DFT is turned on
   Fraction HF Exchange ScalHFX         ....  0.420000
   Scaling of DF-GGA-X  ScalDFX         ....  0.580000
   Scaling of DF-GGA-C  ScalDFC         ....  1.000000
   Scaling of DF-LDA-C  ScalLDAC        ....  1.000000
   Perturbative correction              ....  0.000000
   Density functional embedding theory  .... OFF
 RI-approximation to the Coulomb term is turned on
   Number of AuxJ basis functions       .... 2057
   RIJ-ON(X) (HFX calculated with O(N)) .... on
   Number of AuxJ basis functions       .... 2057
   RIJ-COSX (HFX calculated with COS-X)).... on


General Settings:
 Integral files         IntName         .... pbeh-3c
 Hartree-Fock type      HFTyp           .... RHF
 Total Charge           Charge          ....   -1
 Multiplicity           Mult            ....    1
 Number of Electrons    NEL             ....  286
 Basis Dimension        Dim             ....  602
 Nuclear Repulsion      ENuc            ....   4740.9422950439 Eh

Convergence Acceleration:
 DIIS                   CNVDIIS         .... on
   Start iteration      DIISMaxIt       ....    12
   Startup error        DIISStart       ....  0.200000
   # of expansion vecs  DIISMaxEq       ....     5
   Bias factor          DIISBfac        ....   1.050
   Max. coefficient     DIISMaxC        ....  10.000
 Trust-Rad. Augm. Hess. CNVTRAH         .... auto
   Auto Start mean grad. ratio tolernc. ....  1.125000
   Auto Start start iteration           ....    20
   Auto Start num. interpolation iter.  ....    10
   Max. Number of Micro iterations      ....    16
   Max. Number of Macro iterations      .... Maxiter - #DIIS iter
   Number of Davidson start vectors     ....     2
   Converg. threshold I  (grad. norm)   ....   1.000e-05
   Converg. threshold II (energy diff.) ....   1.000e-08
   Grad. Scal. Fac. for Micro threshold ....   0.100
   Minimum threshold for Micro iter.    ....   0.010
   NR start threshold (gradient norm)   ....   0.001
   Initial trust radius                 ....   0.400
   Minimum AH scaling param. (alpha)    ....   1.000
   Maximum AH scaling param. (alpha)    .... 1000.000
   Orbital update algorithm             .... Taylor
   White noise on init. David. guess    .... on
   Maximum white noise                  ....   0.010
   Quad. conv. algorithm                .... NR
   COSX micro iterations for RIJONX calc.... off
 SOSCF                  CNVSOSCF        .... on
   Start iteration      SOSCFMaxIt      ....   150
   Startup grad/error   SOSCFStart      ....  0.003300
 Level Shifting         CNVShift        .... on
   Level shift para.    LevelShift      ....    0.2500
   Turn off err/grad.   ShiftErr        ....    0.0010
 Zerner damping         CNVZerner       .... off
 Static damping         CNVDamp         .... on
   Fraction old density DampFac         ....    0.7000
   Max. Damping (<1)    DampMax         ....    0.9800
   Min. Damping (>=0)   DampMin         ....    0.0000
   Turn off err/grad.   DampErr         ....    0.1000
 Fernandez-Rico         CNVRico         .... off

SCF Procedure:
 Maximum # iterations   MaxIter         ....   125
 SCF integral mode      SCFMode         .... Direct
   Integral package                     .... SHARK and LIBINT hybrid scheme
 Reset frequency        DirectResetFreq ....    20
 Integral Threshold     Thresh          ....  2.500e-11 Eh
 Primitive CutOff       TCut            ....  2.500e-12 Eh

Convergence Tolerance:
 Convergence Check Mode ConvCheckMode   .... Total+1el-Energy
 Convergence forced     ConvForced      .... 0
 Energy Change          TolE            ....  1.000e-08 Eh
 1-El. energy change                    ....  1.000e-05 Eh
 Orbital Gradient       TolG            ....  1.000e-05
 Orbital Rotation angle TolX            ....  1.000e-05
 DIIS Error             TolErr          ....  5.000e-07


Diagonalization of the overlap matrix:
Smallest eigenvalue                        ... 1.669e-03
Time for diagonalization                   ...    0.188 sec
Threshold for overlap eigenvalues          ... 1.000e-08
Number of eigenvalues below threshold      ... 0
Time for construction of square roots      ...    0.256 sec
Total time needed                          ...    0.856 sec

--------------------------------
INITIAL GUESS: MINIMAL BASIS EHT
--------------------------------
The minimal basis has 211 functions
EHT matrix was diagonalized
Basis set overlap was calculated now projecting the orbitals
Using GuessMode=FMatrix for the initial guess
C*T matrix was formed
Effective Fockian was calculated
Effective Fockian was diagonalized
Initial density was built
                      ------------------
                      INITIAL GUESS DONE
                      ------------------
-------------------
DFT GRID GENERATION
-------------------

General Integration Accuracy     IntAcc      ... 4.959
Radial Grid Type                 RadialGrid  ... OptM3 with GC (2021)
Angular Grid (max. ang.)         AngularGrid ... 6 (Lebedev-590)
Angular grid pruning method      GridPruning ... 4 (adaptive)
Weight generation scheme         WeightScheme... Becke
Basis function cutoff            BFCut       ... 1.0000e-11
Integration weight cutoff        WCut        ... 1.0000e-14
Angular grids for H and He will be reduced by one unit
Partially contracted basis set               ... off
Rotationally invariant grid construction     ... off

Total number of grid points                  ...   710435
Total number of batches                      ...    11133
Average number of points per batch           ...       63
Average number of grid points per atom       ...    12041
Time for grid setup =   25.761 sec

--------------------
COSX GRID GENERATION
--------------------

GRIDX 1
-------
General Integration Accuracy     IntAcc      ... 4.020
Radial Grid Type                 RadialGrid  ... OptM3 with GC (2021)
Angular Grid (max. ang.)         AngularGrid ... 2 (Lebedev-110)
Angular grid pruning method      GridPruning ... 4 (adaptive)
Weight generation scheme         WeightScheme... Becke
Basis function cutoff            BFCut       ... 1.0000e-11
Integration weight cutoff        WCut        ... 1.0000e-14
Angular grids for H and He will be reduced by one unit
Partially contracted basis set               ... on
Rotationally invariant grid construction     ... off

Total number of grid points                  ...    80736
Total number of batches                      ...     1292
Average number of points per batch           ...       62
Average number of grid points per atom       ...     1368
UseSFitting                                  ... on

GRIDX 2
-------
General Integration Accuracy     IntAcc      ... 4.338
Radial Grid Type                 RadialGrid  ... OptM3 with GC (2021)
Angular Grid (max. ang.)         AngularGrid ... 3 (Lebedev-194)
Angular grid pruning method      GridPruning ... 4 (adaptive)
Weight generation scheme         WeightScheme... Becke
Basis function cutoff            BFCut       ... 1.0000e-11
Integration weight cutoff        WCut        ... 1.0000e-14
Angular grids for H and He will be reduced by one unit
Partially contracted basis set               ... on
Rotationally invariant grid construction     ... off

Total number of grid points                  ...   176848
Total number of batches                      ...     2795
Average number of points per batch           ...       63
Average number of grid points per atom       ...     2997
UseSFitting                                  ... on

GRIDX 3
-------
General Integration Accuracy     IntAcc      ... 4.871
Radial Grid Type                 RadialGrid  ... OptM3 with GC (2021)
Angular Grid (max. ang.)         AngularGrid ... 4 (Lebedev-302)
Angular grid pruning method      GridPruning ... 4 (adaptive)
Weight generation scheme         WeightScheme... Becke
Basis function cutoff            BFCut       ... 1.0000e-11
Integration weight cutoff        WCut        ... 1.0000e-14
Angular grids for H and He will be reduced by one unit
Partially contracted basis set               ... on
Rotationally invariant grid construction     ... off

Total number of grid points                  ...   325253
Total number of batches                      ...     5111
Average number of points per batch           ...       63
Average number of grid points per atom       ...     5513
UseSFitting                                  ... on

Time for X-Grid setup             =   17.437 sec

--------------
SCF ITERATIONS
--------------
ITER       Energy         Delta-E        Max-DP      RMS-DP      [F,P]     Damp
               ***  Starting incremental Fock matrix formation  ***
  0  -2300.5228894848   0.000000000000 0.45386857  0.00454436  0.7179939 0.7000
  1  -2303.5950593481  -3.072169863380 0.16460722  0.00239235  0.3392549 0.7000
  2  -2305.0104441744  -1.415384826263 0.07875616  0.00134654  0.2391778 0.7000
                               ***Turning on DIIS***
  3  -2306.0105467349  -1.000102560509 0.07958861  0.00093449  0.1648283 0.7000
  4  -2306.7325006797  -0.721953944831 0.05343648  0.00066698  0.1119981 0.7000
  5  -2307.2410828159  -0.508582136172 0.11789608  0.00160028  0.0773749 0.0000
  6  -2308.4448058673  -1.203723051359 0.00740152  0.00008694  0.0053940 0.0000
                      *** Initiating the SOSCF procedure ***
                           *** Shutting down DIIS ***
                      *** Re-Reading the Fockian *** 
                      *** Removing any level shift *** 
ITER      Energy       Delta-E        Grad      Rot      Max-DP    RMS-DP
  7  -2308.44546667  -0.0006608025  0.000825  0.000825  0.003134  0.000040
               *** Restarting incremental Fock matrix formation ***
  8  -2308.44568114  -0.0002144672  0.000888  0.002722  0.002412  0.000030
  9  -2308.44572172  -0.0000405826  0.000323  0.000987  0.003131  0.000031
 10  -2308.44572704  -0.0000053168  0.000231  0.000534  0.001395  0.000015
 11  -2308.44573552  -0.0000084832  0.000023  0.000042  0.000111  0.000001
 12  -2308.44573553  -0.0000000095  0.000037  0.000034  0.000076  0.000001
 13  -2308.44573562  -0.0000000890  0.000004  0.000008  0.000019  0.000000
 14  -2308.44573563  -0.0000000127  0.000003  0.000003  0.000011  0.000000
                  ***Gradient check signals convergence***
              ***Rediagonalizing the Fockian in SOSCF/NRSCF***

               *****************************************************
               *                     SUCCESS                       *
               *           SCF CONVERGED AFTER  15 CYCLES          *
               *****************************************************

Old exchange energy                            =   -111.715455448 Eh
New exchange energy                            =   -111.715451332 Eh
Exchange energy change after final integration =      0.000004117 Eh
Total energy after final integration           =  -2308.445731526 Eh
Final COS-X integration done in                =   117.484 sec

----------------
TOTAL SCF ENERGY
----------------

Total Energy       :        -2308.44573153 Eh          -62816.00186 eV

Components:
Nuclear Repulsion  :         4740.94229504 Eh          129007.59847 eV
Electronic Energy  :        -7049.38802657 Eh         -191823.60033 eV
One Electron Energy:       -12641.75483991 Eh         -343999.63780 eV
Two Electron Energy:         5592.36681334 Eh          152176.03747 eV
Max COSX asymmetry :            0.00000427 Eh               0.00012 eV

Virial components:
Potential Energy   :        -4601.41921389 Eh         -125210.98241 eV
Kinetic Energy     :         2292.97348237 Eh           62394.98055 eV
Virial Ratio       :            2.00674768


DFT components:
N(Alpha)           :      142.999976888693 electrons
N(Beta)            :      142.999976888693 electrons
N(Total)           :      285.999953777386 electrons
E(X)               :     -148.804126301909 Eh       
E(C)               :      -13.014311858076 Eh       
E(XC)              :     -161.818438159985 Eh       
DFET-embed. en.    :        0.000000000000 Eh       

---------------
SCF CONVERGENCE
---------------

  Last Energy change         ...   -1.1989e-08  Tolerance :   1.0000e-08
  Last MAX-Density change    ...    6.2172e-15  Tolerance :   1.0000e-07
  Last RMS-Density change    ...    3.6098e-17  Tolerance :   5.0000e-09
  Last Orbital Gradient      ...    5.2825e-07  Tolerance :   1.0000e-05
  Last Orbital Rotation      ...    1.5139e-06  Tolerance :   1.0000e-05

             **** THE GBW FILE WAS UPDATED (pbeh-3c.gbw) ****
             **** DENSITY pbeh-3c.scfp WAS UPDATED ****
             **** ENERGY FILE WAS UPDATED (pbeh-3c.en.tmp) ****
             **** THE GBW FILE WAS UPDATED (pbeh-3c.gbw) ****
             **** DENSITY pbeh-3c.scfp WAS UPDATED ****
----------------
ORBITAL ENERGIES
----------------

  NO   OCC          E(Eh)            E(eV) 
   0   2.0000     -77.708982     -2114.5689 
   1   2.0000     -19.462847      -529.6110 
   2   2.0000     -19.462521      -529.6021 
   3   2.0000     -19.429069      -528.6918 
   4   2.0000     -19.428923      -528.6879 
   5   2.0000     -19.421728      -528.4921 
   6   2.0000     -19.416394      -528.3469 
   7   2.0000     -19.403330      -527.9915 
   8   2.0000     -19.391134      -527.6596 
   9   2.0000     -19.381968      -527.4102 
  10   2.0000     -19.381064      -527.3856 
  11   2.0000     -19.380634      -527.3739 
  12   2.0000     -19.376752      -527.2682 
  13   2.0000     -19.271061      -524.3922 
  14   2.0000     -19.263864      -524.1964 
  15   2.0000     -14.651166      -398.6785 
  16   2.0000     -14.632718      -398.1765 
  17   2.0000     -14.622640      -397.9023 
  18   2.0000     -14.609081      -397.5333 
  19   2.0000     -10.540975      -286.8345 
  20   2.0000     -10.515164      -286.1322 
  21   2.0000     -10.502350      -285.7835 
  22   2.0000     -10.487446      -285.3779 
  23   2.0000     -10.479758      -285.1687 
  24   2.0000     -10.454828      -284.4903 
  25   2.0000     -10.452187      -284.4185 
  26   2.0000     -10.448722      -284.3242 
  27   2.0000     -10.440021      -284.0874 
  28   2.0000     -10.427635      -283.7504 
  29   2.0000     -10.424360      -283.6613 
  30   2.0000     -10.411179      -283.3026 
  31   2.0000     -10.407151      -283.1930 
  32   2.0000     -10.401660      -283.0436 
  33   2.0000     -10.393641      -282.8253 
  34   2.0000     -10.389134      -282.7027 
  35   2.0000     -10.386441      -282.6294 
  36   2.0000     -10.365112      -282.0490 
  37   2.0000      -6.753426      -183.7701 
  38   2.0000      -4.848367      -131.9308 
  39   2.0000      -4.847343      -131.9029 
  40   2.0000      -4.844997      -131.8391 
  41   2.0000      -1.131336       -30.7852 
  42   2.0000      -1.113928       -30.3115 
  43   2.0000      -1.102743       -30.0072 
  44   2.0000      -1.093056       -29.7436 
  45   2.0000      -1.080999       -29.4155 
  46   2.0000      -1.077895       -29.3310 
  47   2.0000      -1.056389       -28.7458 
  48   2.0000      -1.054483       -28.6939 
  49   2.0000      -1.048764       -28.5383 
  50   2.0000      -1.038847       -28.2685 
  51   2.0000      -1.015600       -27.6359 
  52   2.0000      -1.014245       -27.5990 
  53   2.0000      -0.994180       -27.0530 
  54   2.0000      -0.988645       -26.9024 
  55   2.0000      -0.965834       -26.2817 
  56   2.0000      -0.940880       -25.6026 
  57   2.0000      -0.898871       -24.4595 
  58   2.0000      -0.857176       -23.3250 
  59   2.0000      -0.830229       -22.5917 
  60   2.0000      -0.808466       -21.9995 
  61   2.0000      -0.804136       -21.8817 
  62   2.0000      -0.779690       -21.2165 
  63   2.0000      -0.774369       -21.0717 
  64   2.0000      -0.750942       -20.4342 
  65   2.0000      -0.706636       -19.2286 
  66   2.0000      -0.696226       -18.9453 
  67   2.0000      -0.682878       -18.5821 
  68   2.0000      -0.679714       -18.4960 
  69   2.0000      -0.658800       -17.9269 
  70   2.0000      -0.634651       -17.2697 
  71   2.0000      -0.627547       -17.0764 
  72   2.0000      -0.606520       -16.5043 
  73   2.0000      -0.587319       -15.9818 
  74   2.0000      -0.578981       -15.7549 
  75   2.0000      -0.572197       -15.5703 
  76   2.0000      -0.560031       -15.2392 
  77   2.0000      -0.547503       -14.8983 
  78   2.0000      -0.542418       -14.7600 
  79   2.0000      -0.536405       -14.5963 
  80   2.0000      -0.524723       -14.2784 
  81   2.0000      -0.518953       -14.1214 
  82   2.0000      -0.518065       -14.0973 
  83   2.0000      -0.498471       -13.5641 
  84   2.0000      -0.496793       -13.5184 
  85   2.0000      -0.494694       -13.4613 
  86   2.0000      -0.485325       -13.2064 
  87   2.0000      -0.478899       -13.0315 
  88   2.0000      -0.467441       -12.7197 
  89   2.0000      -0.463047       -12.6002 
  90   2.0000      -0.458247       -12.4695 
  91   2.0000      -0.450395       -12.2559 
  92   2.0000      -0.447993       -12.1905 
  93   2.0000      -0.445510       -12.1230 
  94   2.0000      -0.441379       -12.0105 
  95   2.0000      -0.436621       -11.8811 
  96   2.0000      -0.429901       -11.6982 
  97   2.0000      -0.426453       -11.6044 
  98   2.0000      -0.421590       -11.4720 
  99   2.0000      -0.412723       -11.2308 
 100   2.0000      -0.410499       -11.1703 
 101   2.0000      -0.407051       -11.0764 
 102   2.0000      -0.401051       -10.9131 
 103   2.0000      -0.398352       -10.8397 
 104   2.0000      -0.391390       -10.6503 
 105   2.0000      -0.389061       -10.5869 
 106   2.0000      -0.385734       -10.4964 
 107   2.0000      -0.382250       -10.4015 
 108   2.0000      -0.376595       -10.2477 
 109   2.0000      -0.371014       -10.0958 
 110   2.0000      -0.365321        -9.9409 
 111   2.0000      -0.357888        -9.7386 
 112   2.0000      -0.353073        -9.6076 
 113   2.0000      -0.342638        -9.3237 
 114   2.0000      -0.339347        -9.2341 
 115   2.0000      -0.335010        -9.1161 
 116   2.0000      -0.331773        -9.0280 
 117   2.0000      -0.323473        -8.8021 
 118   2.0000      -0.321378        -8.7451 
 119   2.0000      -0.304161        -8.2766 
 120   2.0000      -0.295568        -8.0428 
 121   2.0000      -0.289286        -7.8719 
 122   2.0000      -0.287291        -7.8176 
 123   2.0000      -0.282650        -7.6913 
 124   2.0000      -0.274395        -7.4667 
 125   2.0000      -0.271030        -7.3751 
 126   2.0000      -0.269780        -7.3411 
 127   2.0000      -0.263819        -7.1789 
 128   2.0000      -0.258216        -7.0264 
 129   2.0000      -0.256714        -6.9855 
 130   2.0000      -0.253491        -6.8978 
 131   2.0000      -0.249954        -6.8016 
 132   2.0000      -0.247309        -6.7296 
 133   2.0000      -0.243051        -6.6138 
 134   2.0000      -0.232574        -6.3287 
 135   2.0000      -0.229534        -6.2459 
 136   2.0000      -0.217922        -5.9300 
 137   2.0000      -0.210813        -5.7365 
 138   2.0000      -0.195380        -5.3166 
 139   2.0000      -0.191957        -5.2234 
 140   2.0000      -0.180586        -4.9140 
 141   2.0000      -0.159438        -4.3385 
 142   2.0000      -0.147860        -4.0235 
 143   0.0000       0.051849         1.4109 
 144   0.0000       0.076666         2.0862 
 145   0.0000       0.102362         2.7854 
 146   0.0000       0.127739         3.4759 
 147   0.0000       0.144996         3.9455 
 148   0.0000       0.187356         5.0982 
 149   0.0000       0.191056         5.1989 
 150   0.0000       0.196027         5.3342 
 151   0.0000       0.209798         5.7089 
 152   0.0000       0.215820         5.8728 
 153   0.0000       0.219140         5.9631 
 154   0.0000       0.222435         6.0528 
 155   0.0000       0.222991         6.0679 
 156   0.0000       0.233070         6.3422 
 157   0.0000       0.238449         6.4885 
 158   0.0000       0.246564         6.7094 
 159   0.0000       0.247873         6.7450 
 160   0.0000       0.250127         6.8063 
 161   0.0000       0.259185         7.0528 
 162   0.0000       0.264783         7.2051 
 163   0.0000       0.267615         7.2822 
 164   0.0000       0.268138         7.2964 
 165   0.0000       0.279943         7.6176 
 166   0.0000       0.281435         7.6582 
 167   0.0000       0.284783         7.7493 
 168   0.0000       0.289269         7.8714 
 169   0.0000       0.293013         7.9733 
 170   0.0000       0.296630         8.0717 
 171   0.0000       0.304078         8.2744 
 172   0.0000       0.305995         8.3266 
 173   0.0000       0.310067         8.4373 
 174   0.0000       0.312708         8.5092 
 175   0.0000       0.319289         8.6883 
 176   0.0000       0.320234         8.7140 
 177   0.0000       0.323685         8.8079 
 178   0.0000       0.332125         9.0376 
 179   0.0000       0.333758         9.0820 
 180   0.0000       0.338012         9.1978 
 181   0.0000       0.340460         9.2644 
 182   0.0000       0.347003         9.4424 
 183   0.0000       0.354170         9.6374 
 184   0.0000       0.357198         9.7198 
 185   0.0000       0.361014         9.8237 
 186   0.0000       0.366465         9.9720 
 187   0.0000       0.371310        10.1039 
 188   0.0000       0.374590        10.1931 
 189   0.0000       0.376632        10.2487 
 190   0.0000       0.382645        10.4123 
 191   0.0000       0.390620        10.6293 
 192   0.0000       0.395782        10.7698 
 193   0.0000       0.399664        10.8754 
 194   0.0000       0.401838        10.9346 
 195   0.0000       0.406730        11.0677 
 196   0.0000       0.413887        11.2624 
 197   0.0000       0.418910        11.3991 
 198   0.0000       0.423015        11.5108 
 199   0.0000       0.435984        11.8637 
 200   0.0000       0.450626        12.2622 
 201   0.0000       0.453311        12.3352 
 202   0.0000       0.459429        12.5017 
 203   0.0000       0.479125        13.0377 
 204   0.0000       0.481434        13.1005 
 205   0.0000       0.484579        13.1861 
 206   0.0000       0.485885        13.2216 
 207   0.0000       0.504095        13.7171 
 208   0.0000       0.508112        13.8264 
 209   0.0000       0.534499        14.5445 
 210   0.0000       0.545055        14.8317 
 211   0.0000       0.555830        15.1249 
 212   0.0000       0.566575        15.4173 
 213   0.0000       0.582785        15.8584 
 214   0.0000       0.587429        15.9848 
 215   0.0000       0.595663        16.2088 
 216   0.0000       0.606960        16.5162 
 217   0.0000       0.614799        16.7295 
 218   0.0000       0.615661        16.7530 
 219   0.0000       0.623292        16.9606 
 220   0.0000       0.625175        17.0119 
 221   0.0000       0.627094        17.0641 
 222   0.0000       0.629947        17.1417 
 223   0.0000       0.640396        17.4261 
 224   0.0000       0.642890        17.4939 
 225   0.0000       0.644656        17.5420 
 226   0.0000       0.648972        17.6594 
 227   0.0000       0.654876        17.8201 
 228   0.0000       0.659972        17.9587 
 229   0.0000       0.662241        18.0205 
 230   0.0000       0.668497        18.1907 
 231   0.0000       0.674231        18.3468 
 232   0.0000       0.678028        18.4501 
 233   0.0000       0.684276        18.6201 
 234   0.0000       0.686077        18.6691 
 235   0.0000       0.696778        18.9603 
 236   0.0000       0.699352        19.0303 
 237   0.0000       0.701226        19.0813 
 238   0.0000       0.705626        19.2011 
 239   0.0000       0.717416        19.5219 
 240   0.0000       0.722273        19.6540 
 241   0.0000       0.725924        19.7534 
 242   0.0000       0.728167        19.8144 
 243   0.0000       0.744248        20.2520 
 244   0.0000       0.746617        20.3165 
 245   0.0000       0.750183        20.4135 
 246   0.0000       0.759418        20.6648 
 247   0.0000       0.763301        20.7705 
 248   0.0000       0.765984        20.8435 
 249   0.0000       0.771224        20.9861 
 250   0.0000       0.774617        21.0784 
 251   0.0000       0.777911        21.1680 
 252   0.0000       0.788407        21.4537 
 253   0.0000       0.795212        21.6388 
 254   0.0000       0.800064        21.7708 
 255   0.0000       0.804139        21.8817 
 256   0.0000       0.812057        22.0972 
 257   0.0000       0.816522        22.2187 
 258   0.0000       0.824032        22.4231 
 259   0.0000       0.832235        22.6463 
 260   0.0000       0.836401        22.7596 
 261   0.0000       0.844562        22.9817 
 262   0.0000       0.847940        23.0736 
 263   0.0000       0.853055        23.2128 
 264   0.0000       0.875719        23.8295 
 265   0.0000       0.889290        24.1988 
 266   0.0000       0.891975        24.2719 
 267   0.0000       0.911822        24.8119 
 268   0.0000       0.922626        25.1059 
 269   0.0000       0.938981        25.5510 
 270   0.0000       0.948418        25.8078 
 271   0.0000       0.951707        25.8973 
 272   0.0000       0.966050        26.2876 
 273   0.0000       0.976872        26.5820 
 274   0.0000       0.983978        26.7754 
 275   0.0000       0.986747        26.8507 
 276   0.0000       0.991804        26.9883 
 277   0.0000       0.994624        27.0651 
 278   0.0000       1.001137        27.2423 
 279   0.0000       1.002394        27.2765 
 280   0.0000       1.012940        27.5635 
 281   0.0000       1.018435        27.7130 
 282   0.0000       1.030234        28.0341 
 283   0.0000       1.033594        28.1255 
 284   0.0000       1.038630        28.2625 
 285   0.0000       1.045674        28.4542 
 286   0.0000       1.047179        28.4952 
 287   0.0000       1.055244        28.7147 
 288   0.0000       1.058318        28.7983 
 289   0.0000       1.062175        28.9032 
 290   0.0000       1.063803        28.9476 
 291   0.0000       1.070800        29.1379 
 292   0.0000       1.073197        29.2032 
 293   0.0000       1.079158        29.3654 
 294   0.0000       1.087004        29.5789 
 295   0.0000       1.088458        29.6185 
 296   0.0000       1.091618        29.7044 
 297   0.0000       1.093461        29.7546 
 298   0.0000       1.096658        29.8416 
 299   0.0000       1.102730        30.0068 
 300   0.0000       1.106377        30.1060 
 301   0.0000       1.111277        30.2394 
 302   0.0000       1.116224        30.3740 
 303   0.0000       1.117797        30.4168 
 304   0.0000       1.124719        30.6052 
 305   0.0000       1.127281        30.6749 
 306   0.0000       1.139008        30.9940 
 307   0.0000       1.145347        31.1665 
 308   0.0000       1.156162        31.4608 
 309   0.0000       1.160325        31.5741 
 310   0.0000       1.170086        31.8397 
 311   0.0000       1.179941        32.1078 
 312   0.0000       1.184929        32.2436 
 313   0.0000       1.185728        32.2653 
 314   0.0000       1.199339        32.6357 
 315   0.0000       1.206743        32.8371 
 316   0.0000       1.211018        32.9535 
 317   0.0000       1.214097        33.0373 
 318   0.0000       1.225375        33.3442 
 319   0.0000       1.230964        33.4962 
 320   0.0000       1.234694        33.5977 
 321   0.0000       1.246029        33.9062 
 322   0.0000       1.251369        34.0515 
 323   0.0000       1.254533        34.1376 
 324   0.0000       1.261048        34.3148 
 325   0.0000       1.263150        34.3721 
 326   0.0000       1.272842        34.6358 
 327   0.0000       1.276072        34.7237 
 328   0.0000       1.284080        34.9416 
 329   0.0000       1.293037        35.1853 
 330   0.0000       1.299475        35.3605 
 331   0.0000       1.305119        35.5141 
 332   0.0000       1.306114        35.5412 
 333   0.0000       1.311785        35.6955 
 334   0.0000       1.321445        35.9584 
 335   0.0000       1.324669        36.0461 
 336   0.0000       1.333025        36.2734 
 337   0.0000       1.338239        36.4153 
 338   0.0000       1.340747        36.4836 
 339   0.0000       1.350689        36.7541 
 340   0.0000       1.361154        37.0389 
 341   0.0000       1.365945        37.1693 
 342   0.0000       1.377714        37.4895 
 343   0.0000       1.384809        37.6826 
 344   0.0000       1.397125        38.0177 
 345   0.0000       1.412463        38.4351 
 346   0.0000       1.416016        38.5318 
 347   0.0000       1.426880        38.8274 
 348   0.0000       1.429337        38.8942 
 349   0.0000       1.432919        38.9917 
 350   0.0000       1.441545        39.2264 
 351   0.0000       1.456509        39.6336 
 352   0.0000       1.466155        39.8961 
 353   0.0000       1.472825        40.0776 
 354   0.0000       1.488344        40.4999 
 355   0.0000       1.496014        40.7086 
 356   0.0000       1.501431        40.8560 
 357   0.0000       1.502902        40.8960 
 358   0.0000       1.505710        40.9725 
 359   0.0000       1.509102        41.0648 
 360   0.0000       1.513543        41.1856 
 361   0.0000       1.522248        41.4225 
 362   0.0000       1.524787        41.4916 
 363   0.0000       1.531394        41.6714 
 364   0.0000       1.545445        42.0537 
 365   0.0000       1.547768        42.1169 
 366   0.0000       1.553958        42.2854 
 367   0.0000       1.565451        42.5981 
 368   0.0000       1.568313        42.6760 
 369   0.0000       1.576990        42.9121 
 370   0.0000       1.581132        43.0248 
 371   0.0000       1.592567        43.3360 
 372   0.0000       1.595662        43.4202 
 373   0.0000       1.606088        43.7039 
 374   0.0000       1.609634        43.8004 
 375   0.0000       1.628992        44.3271 
 376   0.0000       1.636190        44.5230 
 377   0.0000       1.648921        44.8694 
 378   0.0000       1.676223        45.6124 
 379   0.0000       1.686091        45.8809 
 380   0.0000       1.689995        45.9871 
 381   0.0000       1.697263        46.1849 
 382   0.0000       1.722433        46.8698 
 383   0.0000       1.734556        47.1997 
 384   0.0000       1.739414        47.3319 
 385   0.0000       1.751132        47.6507 
 386   0.0000       1.755425        47.7675 
 387   0.0000       1.762391        47.9571 
 388   0.0000       1.773469        48.2585 
 389   0.0000       1.782755        48.5112 
 390   0.0000       1.795000        48.8444 
 391   0.0000       1.802753        49.0554 
 392   0.0000       1.818295        49.4783 
 393   0.0000       1.825300        49.6689 
 394   0.0000       1.829249        49.7764 
 395   0.0000       1.843876        50.1744 
 396   0.0000       1.846728        50.2520 
 397   0.0000       1.852057        50.3970 
 398   0.0000       1.869828        50.8806 
 399   0.0000       1.888622        51.3920 
 400   0.0000       1.890796        51.4512 
 401   0.0000       1.904051        51.8119 
 402   0.0000       1.908323        51.9281 
 403   0.0000       1.911761        52.0217 
 404   0.0000       1.915383        52.1202 
 405   0.0000       1.919053        52.2201 
 406   0.0000       1.931219        52.5511 
 407   0.0000       1.933789        52.6211 
 408   0.0000       1.942537        52.8591 
 409   0.0000       1.947014        52.9809 
 410   0.0000       1.949113        53.0381 
 411   0.0000       1.953495        53.1573 
 412   0.0000       1.956869        53.2491 
 413   0.0000       1.964653        53.4609 
 414   0.0000       1.967393        53.5355 
 415   0.0000       1.972354        53.6705 
 416   0.0000       1.979582        53.8672 
 417   0.0000       1.981726        53.9255 
 418   0.0000       1.992542        54.2198 
 419   0.0000       1.998403        54.3793 
 420   0.0000       2.002237        54.4836 
 421   0.0000       2.015812        54.8530 
 422   0.0000       2.016908        54.8829 
 423   0.0000       2.020744        54.9872 
 424   0.0000       2.024255        55.0828 
 425   0.0000       2.033923        55.3459 
 426   0.0000       2.044620        55.6369 
 427   0.0000       2.048158        55.7332 
 428   0.0000       2.057504        55.9875 
 429   0.0000       2.058392        56.0117 
 430   0.0000       2.060750        56.0759 
 431   0.0000       2.064471        56.1771 
 432   0.0000       2.073775        56.4303 
 433   0.0000       2.075999        56.4908 
 434   0.0000       2.085997        56.7629 
 435   0.0000       2.087471        56.8030 
 436   0.0000       2.089677        56.8630 
 437   0.0000       2.090572        56.8873 
 438   0.0000       2.099380        57.1270 
 439   0.0000       2.106293        57.3152 
 440   0.0000       2.111343        57.4526 
 441   0.0000       2.114948        57.5506 
 442   0.0000       2.121097        57.7180 
 443   0.0000       2.131565        58.0028 
 444   0.0000       2.133521        58.0561 
 445   0.0000       2.140408        58.2435 
 446   0.0000       2.147016        58.4233 
 447   0.0000       2.151235        58.5381 
 448   0.0000       2.156972        58.6942 
 449   0.0000       2.165923        58.9378 
 450   0.0000       2.167544        58.9819 
 451   0.0000       2.177579        59.2549 
 452   0.0000       2.180790        59.3423 
 453   0.0000       2.183654        59.4202 
 454   0.0000       2.190208        59.5986 
 455   0.0000       2.201959        59.9183 
 456   0.0000       2.205753        60.0216 
 457   0.0000       2.218988        60.3817 
 458   0.0000       2.226054        60.5740 
 459   0.0000       2.232835        60.7585 
 460   0.0000       2.234708        60.8095 
 461   0.0000       2.243048        61.0364 
 462   0.0000       2.249750        61.2188 
 463   0.0000       2.268478        61.7284 
 464   0.0000       2.270680        61.7884 
 465   0.0000       2.284225        62.1569 
 466   0.0000       2.289958        62.3129 
 467   0.0000       2.299725        62.5787 
 468   0.0000       2.305243        62.7289 
 469   0.0000       2.309391        62.8417 
 470   0.0000       2.315350        63.0039 
 471   0.0000       2.320324        63.1392 
 472   0.0000       2.322354        63.1945 
 473   0.0000       2.327880        63.3448 
 474   0.0000       2.350360        63.9566 
 475   0.0000       2.353436        64.0403 
 476   0.0000       2.359650        64.2093 
 477   0.0000       2.367385        64.4198 
 478   0.0000       2.372040        64.5465 
 479   0.0000       2.389146        65.0120 
 480   0.0000       2.401929        65.3598 
 481   0.0000       2.404666        65.4343 
 482   0.0000       2.413039        65.6621 
 483   0.0000       2.422601        65.9223 
 484   0.0000       2.424534        65.9749 
 485   0.0000       2.442110        66.4532 
 486   0.0000       2.443746        66.4977 
 487   0.0000       2.446828        66.5816 
 488   0.0000       2.458714        66.9050 
 489   0.0000       2.464622        67.0658 
 490   0.0000       2.468989        67.1846 
 491   0.0000       2.478740        67.4499 
 492   0.0000       2.489165        67.7336 
 493   0.0000       2.502453        68.0952 
 494   0.0000       2.515452        68.4489 
 495   0.0000       2.522794        68.6487 
 496   0.0000       2.532519        68.9133 
 497   0.0000       2.537553        69.0503 
 498   0.0000       2.551607        69.4328 
 499   0.0000       2.558579        69.6225 
 500   0.0000       2.573675        70.0333 
 501   0.0000       2.576446        70.1087 
 502   0.0000       2.596591        70.6568 
 503   0.0000       2.609899        71.0190 
 504   0.0000       2.616984        71.2118 
 505   0.0000       2.623559        71.3907 
 506   0.0000       2.639056        71.8124 
 507   0.0000       2.645788        71.9955 
 508   0.0000       2.654220        72.2250 
 509   0.0000       2.657489        72.3140 
 510   0.0000       2.679404        72.9103 
 511   0.0000       2.696016        73.3623 
 512   0.0000       2.709778        73.7368 
 513   0.0000       2.717560        73.9486 
 514   0.0000       2.719796        74.0094 
 515   0.0000       2.730340        74.2963 
 516   0.0000       2.735854        74.4464 
 517   0.0000       2.742748        74.6340 
 518   0.0000       2.750698        74.8503 
 519   0.0000       2.755546        74.9822 
 520   0.0000       2.763667        75.2032 
 521   0.0000       2.766473        75.2795 
 522   0.0000       2.778141        75.5971 
 523   0.0000       2.783016        75.7297 
 524   0.0000       2.798531        76.1519 
 525   0.0000       2.812183        76.5234 
 526   0.0000       2.819767        76.7298 
 527   0.0000       2.824530        76.8594 
 528   0.0000       2.838312        77.2344 
 529   0.0000       2.849424        77.5368 
 530   0.0000       2.856880        77.7396 
 531   0.0000       2.868424        78.0538 
 532   0.0000       2.878148        78.3184 
 533   0.0000       2.883496        78.4639 
 534   0.0000       2.890157        78.6452 
 535   0.0000       2.894684        78.7684 
 536   0.0000       2.906873        79.1000 
 537   0.0000       2.925162        79.5977 
 538   0.0000       2.946722        80.1844 
 539   0.0000       2.955594        80.4258 
 540   0.0000       2.964844        80.6775 
 541   0.0000       2.978598        81.0518 
 542   0.0000       2.987947        81.3062 
 543   0.0000       2.990760        81.3827 
 544   0.0000       3.009637        81.8964 
 545   0.0000       3.026882        82.3656 
 546   0.0000       3.032857        82.5282 
 547   0.0000       3.044099        82.8341 
 548   0.0000       3.050023        82.9953 
 549   0.0000       3.059124        83.2430 
 550   0.0000       3.068694        83.5034 
 551   0.0000       3.078800        83.7784 
 552   0.0000       3.083603        83.9091 
 553   0.0000       3.103723        84.4566 
 554   0.0000       3.108194        84.5783 
 555   0.0000       3.128938        85.1427 
 556   0.0000       3.152994        85.7973 
 557   0.0000       3.156733        85.8991 
 558   0.0000       3.183085        86.6162 
 559   0.0000       3.188082        86.7521 
 560   0.0000       3.211215        87.3816 
 561   0.0000       3.238578        88.1262 
 562   0.0000       3.389542        92.2341 
 563   0.0000       3.411542        92.8328 
 564   0.0000       3.566183        97.0408 
 565   0.0000       3.593638        97.7879 
 566   0.0000      13.515697       367.7808 
 567   0.0000      13.553415       368.8072 
 568   0.0000      13.659526       371.6946 
 569   0.0000      13.692564       372.5936 
 570   0.0000      13.890372       377.9762 
 571   0.0000      13.915889       378.6706 
 572   0.0000      14.004881       381.0922 
 573   0.0000      14.010692       381.2503 
 574   0.0000      14.032597       381.8464 
 575   0.0000      14.043019       382.1300 
 576   0.0000      14.100661       383.6985 
 577   0.0000      14.131515       384.5381 
 578   0.0000      14.142179       384.8282 
 579   0.0000      14.195495       386.2791 
 580   0.0000      14.229505       387.2045 
 581   0.0000      14.270565       388.3218 
 582   0.0000      14.304179       389.2365 
 583   0.0000      14.328020       389.8853 
 584   0.0000      19.369963       527.0835 
 585   0.0000      19.396242       527.7986 
 586   0.0000      19.490089       530.3523 
 587   0.0000      19.517560       531.0998 
 588   0.0000      25.588586       696.3008 
 589   0.0000      25.669229       698.4952 
 590   0.0000      25.710495       699.6181 
 591   0.0000      25.737730       700.3592 
 592   0.0000      25.804818       702.1848 
 593   0.0000      25.813132       702.4110 
 594   0.0000      25.822152       702.6565 
 595   0.0000      25.833652       702.9694 
 596   0.0000      25.847805       703.3545 
 597   0.0000      25.868099       703.9068 
 598   0.0000      25.897729       704.7130 
 599   0.0000      25.905135       704.9146 
 600   0.0000      25.933555       705.6879 
 601   0.0000      25.990102       707.2266 

                    ********************************
                    * MULLIKEN POPULATION ANALYSIS *
                    ********************************

-----------------------
MULLIKEN ATOMIC CHARGES
-----------------------
   0 H :    0.418227
   1 O :   -0.626571
   2 C :   -0.178484
   3 H :    0.188381
   4 H :    0.219801
   5 C :    0.034880
   6 H :    0.236244
   7 O :   -0.509314
   8 C :    0.203764
   9 H :    0.266120
  10 N :   -0.571713
  11 C :    0.085025
  12 H :    0.325028
  13 C :   -0.480897
  14 H :    0.240105
  15 C :    0.559975
  16 O :   -0.440116
  17 N :   -0.732300
  18 H :    0.385114
  19 C :    0.717665
  20 O :   -0.449190
  21 C :   -0.008766
  22 H :    0.268288
  23 C :   -0.053052
  24 H :    0.254073
  25 O :   -0.685114
  26 H :    0.464785
  27 O :   -0.619349
  28 P :    1.366298
  29 O :   -0.739559
  30 O :   -0.726259
  31 O :   -0.615972
  32 C :   -0.139047
  33 H :    0.242227
  34 H :    0.172713
  35 C :    0.012422
  36 H :    0.292435
  37 O :   -0.541806
  38 C :    0.252086
  39 H :    0.289756
  40 N :   -0.587978
  41 C :    0.078733
  42 H :    0.323125
  43 C :   -0.467139
  44 H :    0.263045
  45 C :    0.558239
  46 O :   -0.426738
  47 N :   -0.732486
  48 H :    0.389462
  49 C :    0.718555
  50 O :   -0.444147
  51 C :   -0.053679
  52 H :    0.208805
  53 C :   -0.040232
  54 H :    0.238261
  55 O :   -0.632965
  56 H :    0.427758
  57 O :   -0.621161
  58 H :    0.422639
Sum of atomic charges:   -1.0000000

--------------------------------
MULLIKEN REDUCED ORBITAL CHARGES
--------------------------------
  0 H s       :     0.581773  s :     0.581773
  1 O s       :     3.830051  s :     3.830051
      pz      :     1.586095  p :     4.768128
      px      :     1.264917
      py      :     1.917116
      dz2     :     0.003937  d :     0.028393
      dxz     :     0.015869
      dyz     :     0.002901
      dx2y2   :     0.004125
      dxy     :     0.001562
  2 C s       :     3.273203  s :     3.273203
      pz      :     0.945514  p :     2.839368
      px      :     0.788244
      py      :     1.105610
      dz2     :     0.005896  d :     0.065912
      dxz     :     0.017955
      dyz     :     0.017661
      dx2y2   :     0.014988
      dxy     :     0.009413
  3 H s       :     0.811619  s :     0.811619
  4 H s       :     0.780199  s :     0.780199
  5 C s       :     3.219751  s :     3.219751
      pz      :     0.947597  p :     2.677428
      px      :     1.024856
      py      :     0.704976
      dz2     :     0.007003  d :     0.067941
      dxz     :     0.018175
      dyz     :     0.016417
      dx2y2   :     0.017020
      dxy     :     0.009326
  6 H s       :     0.763756  s :     0.763756
  7 O s       :     3.818631  s :     3.818631
      pz      :     1.377961  p :     4.660859
      px      :     1.776667
      py      :     1.506231
      dz2     :     0.008091  d :     0.029824
      dxz     :     0.006097
      dyz     :     0.005340
      dx2y2   :     0.006423
      dxy     :     0.003873
  8 C s       :     3.156583  s :     3.156583
      pz      :     0.649587  p :     2.555038
      px      :     0.838234
      py      :     1.067216
      dz2     :     0.022132  d :     0.084615
      dxz     :     0.025840
      dyz     :     0.010709
      dx2y2   :     0.008814
      dxy     :     0.017120
  9 H s       :     0.733880  s :     0.733880
 10 N s       :     3.570443  s :     3.570443
      pz      :     1.217562  p :     3.961605
      px      :     1.183086
      py      :     1.560957
      dz2     :     0.009208  d :     0.039665
      dxz     :     0.011684
      dyz     :     0.005034
      dx2y2   :     0.006472
      dxy     :     0.007266
 11 C s       :     3.159976  s :     3.159976
      pz      :     1.041833  p :     2.696711
      px      :     0.776084
      py      :     0.878794
      dz2     :     0.014002  d :     0.058288
      dxz     :     0.013056
      dyz     :     0.004899
      dx2y2   :     0.010934
      dxy     :     0.015397
[...]
      dxz     :     0.013776
      dyz     :     0.001065
      dx2y2   :     0.018518
      dxy     :     0.014276
 21 C s       :     2.877550  s :     2.877550
      pz      :     1.048408  p :     3.001942
      px      :     1.057847
      py      :     0.895686
      dz2     :     0.017710  d :     0.159944
      dxz     :     0.026128
      dyz     :     0.047349
      dx2y2   :     0.032972
      dxy     :     0.035785
 22 H s       :     0.853524  s :     0.853524
 23 C s       :     2.886204  s :     2.886204
      pz      :     1.074977  p :     2.991590
      px      :     0.875959
      py      :     1.040654
      dz2     :     0.037303  d :     0.161305
      dxz     :     0.035440
      dyz     :     0.014487
      dx2y2   :     0.033776
      dxy     :     0.040299
 24 H s       :     0.871123  s :     0.871123
 25 O s       :     3.517023  s :     3.517023
      pz      :     1.850194  p :     4.852882
      px      :     1.394019
      py      :     1.608669
      dz2     :     0.006902  d :     0.048419
      dxz     :     0.010022
      dyz     :     0.003234
      dx2y2   :     0.013636
      dxy     :     0.014624
 26 H s       :     0.686614  s :     0.686614
 27 O s       :     3.487689  s :     3.487689
      pz      :     1.696747  p :     4.804245
      px      :     1.754727
      py      :     1.352771
      dz2     :     0.006224  d :     0.050722
      dxz     :     0.005060
      dyz     :     0.017606
      dx2y2   :     0.010402
      dxy     :     0.011430
 28 P s       :     4.833520  s :     4.833520
      pz      :     2.749934  p :     8.256229
      px      :     2.763017
      py      :     2.743279
      dz2     :     0.154976  d :     1.099104
      dxz     :     0.260906
      dyz     :     0.247610
      dx2y2   :     0.242343
      dxy     :     0.193270
 29 O s       :     3.607704  s :     3.607704
      pz      :     1.660680  p :     4.966586
      px      :     1.706552
      py      :     1.599353
      dz2     :     0.004896  d :     0.034937
      dxz     :     0.003534
      dyz     :     0.012236
      dx2y2   :     0.007270
      dxy     :     0.007002
 30 O s       :     3.609347  s :     3.609347
      pz      :     1.680703  p :     4.958393
      px      :     1.569051
      py      :     1.708639
      dz2     :     0.004661  d :     0.035320
      dxz     :     0.012736
      dyz     :     0.001777
      dx2y2   :     0.010189
      dxy     :     0.005956
 31 O s       :     3.493411  s :     3.493411
      pz      :     1.712456  p :     4.820559
      px      :     1.394767
      py      :     1.713335
      dz2     :     0.007614  d :     0.048113
      dxz     :     0.012176
      dyz     :     0.005087
      dx2y2   :     0.009566
      dxy     :     0.013671
 32 C s       :     2.911548  s :     2.911548
      pz      :     1.075235  p :     3.035625
      px      :     0.890856
      py      :     1.069534
      dz2     :     0.028115  d :     0.140946
      dxz     :     0.037628
      dyz     :     0.007443
      dx2y2   :     0.037894
      dxy     :     0.029866
 33 H s       :     0.860145  s :     0.860145
 34 H s       :     0.895293  s :     0.895293
 35 C s       :     2.892598  s :     2.892598
      pz      :     1.142042  p :     2.979512
      px      :     1.054758
      py      :     0.782712
      dz2     :     0.031308  d :     0.148912
      dxz     :     0.021377
      dyz     :     0.025213
      dx2y2   :     0.043786
      dxy     :     0.027229
 36 H s       :     0.843827  s :     0.843827
 37 O s       :     3.461504  s :     3.461504
      pz      :     1.816119  p :     4.699280
      px      :     1.459193
      py      :     1.423968
      dz2     :     0.006778  d :     0.064624
      dxz     :     0.008108
      dyz     :     0.008996
      dx2y2   :     0.026610
      dxy     :     0.014132
 38 C s       :     2.870974  s :     2.870974
      pz      :     0.968576  p :     2.850442
      px      :     0.853498
      py      :     1.028368
      dz2     :     0.027691  d :     0.182642
      dxz     :     0.038510
      dyz     :     0.042079
      dx2y2   :     0.038869
      dxy     :     0.035492
 39 H s       :     0.850090  s :     0.850090
 40 N s       :     3.073563  s :     3.073563
      pz      :     1.240962  p :     3.923669
      px      :     1.236941
      py      :     1.445765
      dz2     :     0.025804  d :     0.099357
      dxz     :     0.026102
      dyz     :     0.016635
      dx2y2   :     0.016143
      dxy     :     0.014673
 41 C s       :     2.886006  s :     2.886006
      pz      :     0.979781  p :     2.984086
      px      :     1.053026
      py      :     0.951279
      dz2     :     0.041165  d :     0.129934
      dxz     :     0.036077
      dyz     :     0.026503
      dx2y2   :     0.011898
      dxy     :     0.014291
 42 H s       :     0.827734  s :     0.827734
 43 C s       :     2.904970  s :     2.904970
      pz      :     1.096676  p :     3.264023
      px      :     1.064212
      py      :     1.103135
      dz2     :     0.021208  d :     0.081423
      dxz     :     0.023028
      dyz     :     0.011741
      dx2y2   :     0.012871
      dxy     :     0.012576
 44 H s       :     0.836336  s :     0.836336
 45 C s       :     2.819783  s :     2.819783
      pz      :     0.921472  p :     2.784992
      px      :     1.006177
      py      :     0.857343
      dz2     :     0.087756  d :     0.269117
      dxz     :     0.066078
      dyz     :     0.043790
      dx2y2   :     0.033089
      dxy     :     0.038404
 46 O s       :     3.531536  s :     3.531536
      pz      :     1.567313  p :     4.694157
      px      :     1.673741
      py      :     1.453104
      dz2     :     0.012011  d :     0.053596
      dxz     :     0.013650
      dyz     :     0.014063
      dx2y2   :     0.006392
      dxy     :     0.007480
 47 N s       :     3.118149  s :     3.118149
      pz      :     1.242099  p :     4.004759
      px      :     1.270843
      py      :     1.491817
      dz2     :     0.023976  d :     0.076333
      dxz     :     0.019435
      dyz     :     0.015259
      dx2y2   :     0.009647
      dxy     :     0.008015
 48 H s       :     0.716888  s :     0.716888
 49 C s       :     2.782755  s :     2.782755
      pz      :     0.967616  p :     2.746505
      px      :     0.930368
      py      :     0.848521
      dz2     :     0.087750  d :     0.313427
      dxz     :     0.075114
      dyz     :     0.063265
      dx2y2   :     0.048903
      dxy     :     0.038395
 50 O s       :     3.528813  s :     3.528813
      pz      :     1.497744  p :     4.698459
      px      :     1.641617
      py      :     1.559098
      dz2     :     0.017007  d :     0.054913
      dxz     :     0.018995
      dyz     :     0.010398
      dx2y2   :     0.004180
      dxy     :     0.004334
 51 C s       :     2.881373  s :     2.881373
      pz      :     1.043828  p :     3.001635
      px      :     1.076713
      py      :     0.881094
      dz2     :     0.034757  d :     0.158084
      dxz     :     0.015162
      dyz     :     0.033882
      dx2y2   :     0.037951
      dxy     :     0.036331
 52 H s       :     0.885673  s :     0.885673
 53 C s       :     2.889114  s :     2.889114
      pz      :     0.871402  p :     2.996056
      px      :     1.089588
      py      :     1.035066
      dz2     :     0.046686  d :     0.157259
      dxz     :     0.038185
      dyz     :     0.028842
      dx2y2   :     0.021205
      dxy     :     0.022341
 54 H s       :     0.879639  s :     0.879639
 55 O s       :     3.529062  s :     3.529062
      pz      :     1.441230  p :     4.812488
      px      :     1.905377
      py      :     1.465880
      dz2     :     0.022834  d :     0.050731
      dxz     :     0.007297
      dyz     :     0.007514
      dx2y2   :     0.011322
      dxy     :     0.001763
 56 H s       :     0.685653  s :     0.685653
 57 O s       :     3.529853  s :     3.529853
      pz      :     1.752547  p :     4.800580
      px      :     1.620197
      py      :     1.427836
      dz2     :     0.006203  d :     0.051486
      dxz     :     0.007745
      dyz     :     0.013833
      dx2y2   :     0.011312
      dxy     :     0.012394
 58 H s       :     0.681748  s :     0.681748


                      *****************************
                      * MAYER POPULATION ANALYSIS *
                      *****************************

  NA   - Mulliken gross atomic population
  ZA   - Total nuclear charge
  QA   - Mulliken gross atomic charge
  VA   - Mayer's total valence
  BVA  - Mayer's bonded valence
  FA   - Mayer's free valence

  ATOM       NA         ZA         QA         VA         BVA        FA
  0 H      0.5818     1.0000     0.4182     0.8010     0.8010     0.0000
  1 O      8.6266     8.0000    -0.6266     1.8659     1.8659     0.0000
  2 C      6.1785     6.0000    -0.1785     3.7398     3.7398     0.0000
  3 H      0.8116     1.0000     0.1884     0.9069     0.9069     0.0000
  4 H      0.7802     1.0000     0.2198     0.8974     0.8974    -0.0000
  5 C      5.9651     6.0000     0.0349     3.6344     3.6344    -0.0000
  6 H      0.7638     1.0000     0.2362     0.8994     0.8994    -0.0000
  7 O      8.5093     8.0000    -0.5093     2.0116     2.0116    -0.0000
  8 C      5.7962     6.0000     0.2038     3.6469     3.6469     0.0000
  9 H      0.7339     1.0000     0.2661     0.8979     0.8979     0.0000
 10 N      7.5717     7.0000    -0.5717     3.1285     3.1285     0.0000
 11 C      5.9150     6.0000     0.0850     3.5573     3.5573    -0.0000
 12 H      0.6750     1.0000     0.3250     0.8938     0.8938    -0.0000
 13 C      6.4809     6.0000    -0.4809     3.7414     3.7414    -0.0000
 14 H      0.7599     1.0000     0.2401     0.9202     0.9202    -0.0000
 15 C      5.4400     6.0000     0.5600     4.0677     4.0677     0.0000
 16 O      8.4401     8.0000    -0.4401     2.1856     2.1856    -0.0000
 17 N      7.7323     7.0000    -0.7323     3.0063     3.0063     0.0000
 18 H      0.6149     1.0000     0.3851     0.8426     0.8426     0.0000
 19 C      5.2823     6.0000     0.7177     4.0713     4.0713     0.0000
 20 O      8.4492     8.0000    -0.4492     2.1778     2.1778     0.0000
 21 C      6.0088     6.0000    -0.0088     3.6558     3.6558    -0.0000
 22 H      0.7317     1.0000     0.2683     0.9040     0.9040    -0.0000
 23 C      6.0531     6.0000    -0.0531     3.7515     3.7515     0.0000
 24 H      0.7459     1.0000     0.2541     0.8973     0.8973     0.0000
 25 O      8.6851     8.0000    -0.6851     1.7954     1.7954     0.0000
 26 H      0.5352     1.0000     0.4648     0.7946     0.7946     0.0000
 27 O      8.6193     8.0000    -0.6193     1.9339     1.9339    -0.0000
 28 P     13.6337    15.0000     1.3663     5.2111     5.2111     0.0000
 29 O      8.7396     8.0000    -0.7396     1.8938     1.8938     0.0000
 30 O      8.7263     8.0000    -0.7263     1.9127     1.9127    -0.0000
 31 O      8.6160     8.0000    -0.6160     1.9437     1.9437    -0.0000
 32 C      6.1390     6.0000    -0.1390     3.7913     3.7913    -0.0000
 33 H      0.7578     1.0000     0.2422     0.9085     0.9085    -0.0000
 34 H      0.8273     1.0000     0.1727     0.9200     0.9200    -0.0000
 35 C      5.9876     6.0000     0.0124     3.5552     3.5552    -0.0000
 36 H      0.7076     1.0000     0.2924     0.8921     0.8921    -0.0000
 37 O      8.5418     8.0000    -0.5418     2.0098     2.0098     0.0000
 38 C      5.7479     6.0000     0.2521     3.5865     3.5865     0.0000
 39 H      0.7102     1.0000     0.2898     0.8771     0.8771    -0.0000
 40 N      7.5880     7.0000    -0.5880     3.1211     3.1211     0.0000
 41 C      5.9213     6.0000     0.0787     3.6045     3.6045     0.0000
 42 H      0.6769     1.0000     0.3231     0.8725     0.8725    -0.0000
 43 C      6.4671     6.0000    -0.4671     3.7283     3.7283     0.0000
 44 H      0.7370     1.0000     0.2630     0.9097     0.9097     0.0000
 45 C      5.4418     6.0000     0.5582     4.0642     4.0642     0.0000
 46 O      8.4267     8.0000    -0.4267     2.1968     2.1968     0.0000
 47 N      7.7325     7.0000    -0.7325     3.0064     3.0064     0.0000
 48 H      0.6105     1.0000     0.3895     0.8394     0.8394     0.0000
 49 C      5.2814     6.0000     0.7186     4.0643     4.0643     0.0000
 50 O      8.4441     8.0000    -0.4441     2.1796     2.1796    -0.0000
 51 C      6.0537     6.0000    -0.0537     3.7172     3.7172    -0.0000
 52 H      0.7912     1.0000     0.2088     0.9010     0.9010    -0.0000
 53 C      6.0402     6.0000    -0.0402     3.7384     3.7384     0.0000
 54 H      0.7617     1.0000     0.2383     0.9021     0.9021     0.0000
 55 O      8.6330     8.0000    -0.6330     1.8554     1.8554     0.0000
 56 H      0.5722     1.0000     0.4278     0.8134     0.8134     0.0000
 57 O      8.6212     8.0000    -0.6212     1.8838     1.8838     0.0000
 58 H      0.5774     1.0000     0.4226     0.7987     0.7987     0.0000

  Mayer bond orders larger than 0.100000
B(  0-H ,  1-O ) :   0.7907 B(  1-O ,  2-C ) :   0.9896 B(  2-C ,  3-H ) :   0.9063 
B(  2-C ,  4-H ) :   0.8913 B(  2-C ,  5-C ) :   0.9726 B(  5-C ,  6-H ) :   0.8859 
B(  5-C ,  7-O ) :   0.8942 B(  5-C , 21-C ) :   0.9178 B(  7-O ,  8-C ) :   1.0158 
B(  8-C ,  9-H ) :   0.8826 B(  8-C , 10-N ) :   0.8301 B(  8-C , 23-C ) :   0.9280 
B( 10-N , 11-C ) :   1.0966 B( 10-N , 19-C ) :   1.0374 B( 11-C , 12-H ) :   0.8241 
B( 11-C , 13-C ) :   1.5778 B( 13-C , 14-H ) :   0.9212 B( 13-C , 15-C ) :   1.0889 
B( 15-C , 16-O ) :   1.9916 B( 15-C , 17-N ) :   0.9842 B( 17-N , 18-H ) :   0.8062 
B( 17-N , 19-C ) :   1.0633 B( 19-C , 20-O ) :   1.9578 B( 21-C , 22-H ) :   0.8400 
B( 21-C , 23-C ) :   0.9114 B( 21-C , 27-O ) :   0.9563 B( 23-C , 24-H ) :   0.8930 
B( 23-C , 25-O ) :   1.0249 B( 25-O , 26-H ) :   0.6838 B( 27-O , 28-P ) :   0.8558 
B( 28-P , 29-O ) :   1.7076 B( 28-P , 30-O ) :   1.7341 B( 28-P , 31-O ) :   0.8406 
B( 31-O , 32-C ) :   0.9795 B( 32-C , 33-H ) :   0.8758 B( 32-C , 34-H ) :   0.9126 
B( 32-C , 35-C ) :   0.9765 B( 35-C , 36-H ) :   0.8515 B( 35-C , 37-O ) :   0.8370 
B( 35-C , 51-C ) :   0.9150 B( 37-O , 38-C ) :   0.9692 B( 38-C , 39-H ) :   0.8751 
B( 38-C , 40-N ) :   0.8261 B( 38-C , 53-C ) :   0.9214 B( 40-N , 41-C ) :   1.0912 
B( 40-N , 49-C ) :   1.0306 B( 41-C , 42-H ) :   0.8601 B( 41-C , 43-C ) :   1.5902 
B( 43-C , 44-H ) :   0.9112 B( 43-C , 45-C ) :   1.0796 B( 45-C , 46-O ) :   2.0025 
B( 45-C , 47-N ) :   0.9799 B( 47-N , 48-H ) :   0.8036 B( 47-N , 49-C ) :   1.0691 
B( 49-C , 50-O ) :   1.9520 B( 51-C , 52-H ) :   0.8869 B( 51-C , 53-C ) :   0.9317 
B( 51-C , 57-O ) :   1.0050 B( 53-C , 54-H ) :   0.8947 B( 53-C , 55-O ) :   1.0144 
B( 55-O , 56-H ) :   0.7473 B( 57-O , 58-H ) :   0.7858 

-------
TIMINGS
-------

Total SCF time: 0 days 0 hours 15 min 37 sec 

Total time                  ....     937.736 sec
Sum of individual times     ....     927.210 sec  ( 98.9%)

Fock matrix formation       ....     866.490 sec  ( 92.4%)
  Split-RI-J                ....      53.272 sec  (  6.1% of F)
  Chain of spheres X        ....     717.939 sec  ( 82.9% of F)
  XC integration            ....      80.759 sec  (  9.3% of F)
    Basis function eval.    ....      27.541 sec  ( 34.1% of XC)
    Density eval.           ....      18.632 sec  ( 23.1% of XC)
    XC-Functional eval.     ....       5.123 sec  (  6.3% of XC)
    XC-Potential eval.      ....       9.771 sec  ( 12.1% of XC)
Diagonalization             ....       3.727 sec  (  0.4%)
Density matrix formation    ....       0.359 sec  (  0.0%)
Population analysis         ....       0.451 sec  (  0.0%)
Initial guess               ....       0.642 sec  (  0.1%)
Orbital Transformation      ....       0.000 sec  (  0.0%)
Orbital Orthonormalization  ....       0.000 sec  (  0.0%)
DIIS solution               ....       6.651 sec  (  0.7%)
SOSCF solution              ....       5.691 sec  (  0.6%)
Grid generation             ....      43.198 sec  (  4.6%)

Maximum memory used throughout the entire SCF-calculation: 212.0 MB


-------------------------------------------------------------------------------
                          DFT DISPERSION CORRECTION                            
                                                                               
                              DFTD3 V3.1  Rev 1                                
                          USING Becke-Johnson damping                          
-------------------------------------------------------------------------------
The PBEh-3c composite method is recognized
Using three-body term ABC
Active option DFTDOPT                   ...         4   

molecular C6(AA) [au] = 38274.672088 


            DFT-D V3
 parameters
 s6 scaling factor         :     1.0000 
 a1 scaling factor         :     0.4860 
 s8 scaling factor         :     0.0000 
 a2 scaling factor         :     4.5000 
 Damping factor alpha9(ATM):    16.0000 
 ad hoc parameters k1-k3   :    16.0000     1.3333    -4.0000 

 Edisp/kcal,au: -29.591825991805  -0.047157571413 
 E6   /kcal   : -30.003388084 
 E8   /kcal   :  -0.000000000 
 E6(ABC)      :   0.411562093 
 % E8         :   0.000000000 
 % E6(ABC)    :  -1.390796542 

-------------------------   ----------------
Dispersion correction           -0.047157571
-------------------------   ----------------

------------------   -----------------
gCP correction             0.196751108
------------------   -----------------

-------------------------   --------------------
FINAL SINGLE POINT ENERGY     -2308.296137989272
-------------------------   --------------------


                            ***************************************
                            *     ORCA property calculations      *
                            ***************************************

                                    ---------------------
                                    Active property flags
                                    ---------------------
   (+) Dipole Moment


------------------------------------------------------------------------------
                       ORCA ELECTRIC PROPERTIES CALCULATION
------------------------------------------------------------------------------

Dipole Moment Calculation                       ... on
Quadrupole Moment Calculation                   ... off
Polarizability Calculation                      ... off
GBWName                                         ... pbeh-3c.gbw
Electron density                                ... pbeh-3c.scfp
The origin for moment calculation is the CENTER OF MASS  = ( 0.092930, -0.059072  0.249056)

-------------
DIPOLE MOMENT
-------------
                                X             Y             Z
Electronic contribution:     -0.68348      -5.00859       7.82323
Nuclear contribution   :     -2.25539       4.48553      -8.94294
                        -----------------------------------------
Total Dipole Moment    :     -2.93887      -0.52306      -1.11970
                        -----------------------------------------
Magnitude (a.u.)       :      3.18814
Magnitude (Debye)      :      8.10362



--------------------
Rotational spectrum 
--------------------
 
Rotational constants in cm-1:     0.004388     0.002111     0.001665 
Rotational constants in MHz :   131.539644    63.273877    49.913587 

 Dipole components along the rotational axes: 
x,y,z [a.u.] :    -2.670324    -0.354214    -1.705332 
x,y,z [Debye]:    -6.787424    -0.900341    -4.334610 

 

Timings for individual modules:

Sum of individual times         ...      947.901 sec (=  15.798 min)
GTO integral calculation        ...        8.567 sec (=   0.143 min)   0.9 %
SCF iterations                  ...      939.334 sec (=  15.656 min)  99.1 %
                             ****ORCA TERMINATED NORMALLY****
TOTAL RUN TIME: 0 days 0 hours 15 minutes 51 seconds 696 msec
