
                                 *****************
                                 * O   R   C   A *
                                 *****************

                                            #,                                       
                                            ###                                      
                                            ####                                     
                                            #####                                    
                                            ######                                   
                                           ########,                                 
                                     ,,################,,,,,                         
                               ,,#################################,,                 
                          ,,##########################################,,             
                       ,#########################################, ''#####,          
                    ,#############################################,,   '####,        
                  ,##################################################,,,,####,       
                ,###########''''           ''''###############################       
              ,#####''   ,,,,##########,,,,          '''####'''          '####       
            ,##' ,,,,###########################,,,                        '##       
           ' ,,###''''                  '''############,,,                           
         ,,##''                                '''############,,,,        ,,,,,,###''
      ,#''                                            '''#######################'''  
     '                                                          ''''####''''         
             ,#######,   #######,   ,#######,      ##                                
            ,#'     '#,  ##    ##  ,#'     '#,    #''#        ######   ,####,        
            ##       ##  ##   ,#'  ##            #'  '#       #        #'  '#        
            ##       ##  #######   ##           ,######,      #####,   #    #        
            '#,     ,#'  ##    ##  '#,     ,#' ,#      #,         ##   #,  ,#        
             '#######'   ##     ##  '#######'  #'      '#     #####' # '####'        



                  #######################################################
                  #                        -***-                        #
                  #          Department of theory and spectroscopy      #
                  #    Directorship and core code : Frank Neese         #
                  #        Max Planck Institute fuer Kohlenforschung    #
                  #                Kaiser Wilhelm Platz 1               #
                  #                 D-45470 Muelheim/Ruhr               #
                  #                      Germany                        #
                  #                                                     #
                  #                  All rights reserved                #
                  #                        -***-                        #
                  #######################################################


                         Program Version 5.0.3 -  RELEASE  -


 With contributions from (in alphabetic order):
   Daniel Aravena         : Magnetic Suceptibility
   Michael Atanasov       : Ab Initio Ligand Field Theory (pilot matlab implementation)
   Alexander A. Auer      : GIAO ZORA, VPT2 properties, NMR spectrum
   Ute Becker             : Parallelization
   Giovanni Bistoni       : ED, misc. LED, open-shell LED, HFLD
   Martin Brehm           : Molecular dynamics
   Dmytro Bykov           : SCF Hessian
   Vijay G. Chilkuri      : MRCI spin determinant printing, contributions to CSF-ICE
   Dipayan Datta          : RHF DLPNO-CCSD density
   Achintya Kumar Dutta   : EOM-CC, STEOM-CC
   Dmitry Ganyushin       : Spin-Orbit,Spin-Spin,Magnetic field MRCI
   Miquel Garcia          : C-PCM and meta-GGA Hessian, CC/C-PCM, Gaussian charge scheme
   Yang Guo               : DLPNO-NEVPT2, F12-NEVPT2, CIM, IAO-localization
   Andreas Hansen         : Spin unrestricted coupled pair/coupled cluster methods
   Benjamin Helmich-Paris : MC-RPA, TRAH-SCF, COSX integrals
   Lee Huntington         : MR-EOM, pCC
   Robert Izsak           : Overlap fitted RIJCOSX, COSX-SCS-MP3, EOM
   Marcus Kettner         : VPT2
   Christian Kollmar      : KDIIS, OOCD, Brueckner-CCSD(T), CCSD density, CASPT2, CASPT2-K
   Simone Kossmann        : Meta GGA functionals, TD-DFT gradient, OOMP2, MP2 Hessian
   Martin Krupicka        : Initial AUTO-CI
   Lucas Lang             : DCDCAS
   Marvin Lechner         : AUTO-CI (C++ implementation), FIC-MRCC
   Dagmar Lenk            : GEPOL surface, SMD
   Dimitrios Liakos       : Extrapolation schemes; Compound Job, initial MDCI parallelization
   Dimitrios Manganas     : Further ROCIS development; embedding schemes
   Dimitrios Pantazis     : SARC Basis sets
   Anastasios Papadopoulos: AUTO-CI, single reference methods and gradients
   Taras Petrenko         : DFT Hessian,TD-DFT gradient, ASA, ECA, R-Raman, ABS, FL, XAS/XES, NRVS
   Peter Pinski           : DLPNO-MP2, DLPNO-MP2 Gradient
   Christoph Reimann      : Effective Core Potentials
   Marius Retegan         : Local ZFS, SOC
   Christoph Riplinger    : Optimizer, TS searches, QM/MM, DLPNO-CCSD(T), (RO)-DLPNO pert. Triples
   Tobias Risthaus        : Range-separated hybrids, TD-DFT gradient, RPA, STAB
   Michael Roemelt        : Original ROCIS implementation
   Masaaki Saitow         : Open-shell DLPNO-CCSD energy and density
   Barbara Sandhoefer     : DKH picture change effects
   Avijit Sen             : IP-ROCIS
   Kantharuban Sivalingam : CASSCF convergence, NEVPT2, FIC-MRCI
   Bernardo de Souza      : ESD, SOC TD-DFT
   Georgi Stoychev        : AutoAux, RI-MP2 NMR, DLPNO-MP2 response
   Willem Van den Heuvel  : Paramagnetic NMR
   Boris Wezisla          : Elementary symmetry handling
   Frank Wennmohs         : Technical directorship


 We gratefully acknowledge several colleagues who have allowed us to
 interface, adapt or use parts of their codes:
   Stefan Grimme, W. Hujo, H. Kruse, P. Pracht,  : VdW corrections, initial TS optimization,
                  C. Bannwarth, S. Ehlert          DFT functionals, gCP, sTDA/sTD-DF
   Ed Valeev, F. Pavosevic, A. Kumar             : LibInt (2-el integral package), F12 methods
   Garnet Chan, S. Sharma, J. Yang, R. Olivares  : DMRG
   Ulf Ekstrom                                   : XCFun DFT Library
   Mihaly Kallay                                 : mrcc  (arbitrary order and MRCC methods)
   Jiri Pittner, Ondrej Demel                    : Mk-CCSD
   Frank Weinhold                                : gennbo (NPA and NBO analysis)
   Christopher J. Cramer and Donald G. Truhlar   : smd solvation model
   Lars Goerigk                                  : TD-DFT with DH, B97 family of functionals
   V. Asgeirsson, H. Jonsson                     : NEB implementation
   FAccTs GmbH                                   : IRC, NEB, NEB-TS, DLPNO-Multilevel, CI-OPT
                                                   MM, QMMM, 2- and 3-layer-ONIOM, Crystal-QMMM,
                                                   LR-CPCM, SF, NACMEs, symmetry and pop. for TD-DFT,
                                                   nearIR, NL-DFT gradient (VV10), updates on ESD,
                                                   ML-optimized integration grids
   S Lehtola, MJT Oliveira, MAL Marques          : LibXC Library
   Liviu Ungur et al                             : ANISO software


 Your calculation uses the libint2 library for the computation of 2-el integrals
 For citations please refer to: http://libint.valeyev.net

 Your ORCA version has been built with support for libXC version: 5.1.0
 For citations please refer to: https://tddft.org/programs/libxc/

 This ORCA versions uses:
   CBLAS   interface :  Fast vector & matrix operations
   LAPACKE interface :  Fast linear algebra routines
   SCALAPACK package :  Parallel linear algebra routines
   Shared memory     :  Shared parallel matrices
   BLAS/LAPACK       :  OpenBLAS 0.3.15  USE64BITINT DYNAMIC_ARCH NO_AFFINITY Haswell SINGLE_THREADED
        Core in use  :  Haswell
   Copyright (c) 2011-2014, The OpenBLAS Project




***************************************
The coordinates will be read from file: C3.xyz
***************************************


Your calculation utilizes the geometrical counterpoise correction gCP
Please cite in your paper:
H.Kruse, S. Grimme J.Chem.Phys., 136, (2012), 154101 
   

Your calculation utilizes the atom-pairwise dispersion correction
with the Becke-Johnson damping scheme (D3BJ)
Cite in your paper:
S.Grimme, S.Ehrlich, L.Goerigk, J Comput Chem, (2011), 32, 1456–1465 
S.Grimme, J.Antony, S.Ehrlich and H.Krieg, J.Chem.Phys., 132, (2010), 154104 
   

Your calculation employs the composite approach PBEh-3c.
Please cite in your paper:
S. Grimme, J. G. Brandenburg, C. Bannwarth, A. Hansen J.Chem.Phys., 143, (2015), 054107 
   

================================================================================

----- Orbital basis set information -----
Your calculation utilizes the basis: def2-mSVP

----- AuxJ basis set information -----
Your calculation utilizes the auxiliary basis: def2/J
   F. Weigend, Phys. Chem. Chem. Phys. 8, 1057 (2006).

================================================================================
                                        WARNINGS
                       Please study these warnings very carefully!
================================================================================


INFO   : the flag for use of the SHARK integral package has been found!

================================================================================
                                       INPUT FILE
================================================================================
NAME = pbeh-3c.inp
|  1> ! PBEh-3c def2/J TightSCF DefGrid3
|  2> 
|  3> %maxcore 60000
|  4> 
|  5> %pal
|  6> nprocs 4
|  7> end
|  8> 
|  9> *xyzfile 0 1 C3.xyz
| 10> 
| 11>                          ****END OF INPUT****
================================================================================

                       ****************************
                       * Single Point Calculation *
                       ****************************

---------------------------------
CARTESIAN COORDINATES (ANGSTROEM)
---------------------------------
  C      2.813172   -0.364426    0.600595
  C      1.546687   -0.527837   -0.231925
  C      0.276465   -0.330178    0.594429
  C     -1.022963   -0.299144   -0.246753
  C     -1.435181    1.195128   -0.204579
  O     -0.876042    1.936042   -1.276572
  C     -0.895928    1.613147    1.163304
  O      3.909604   -0.498536   -0.318092
  O     -1.970084   -1.146676    0.397811
  O      1.551840    0.411303   -1.312459
  O      0.353539    0.919634    1.296719
  C     -3.080268   -1.498898   -0.416095
  H      2.813960    0.622880    1.073910
  H      2.855853   -1.142324    1.374974
  H      1.527523   -1.549217   -0.644102
  H      0.195595   -1.155757    1.315071
  H     -0.861844   -0.627830   -1.281576
  H     -2.519237    1.316993   -0.273060
  H      0.056958    1.673175   -1.380559
  H     -0.696722    2.685209    1.227859
  H     -1.585632    1.311228    1.965122
  H      4.718006   -0.169704    0.093222
  H      2.456549    0.440274   -1.660042
  H     -3.676077   -0.623468   -0.708404
  H     -2.751770   -2.020902   -1.326898
  H     -3.704000   -2.170118    0.178105

----------------------------
CARTESIAN COORDINATES (A.U.)
----------------------------
  NO LB      ZA    FRAG     MASS         X           Y           Z
   0 C     6.0000    0    12.011    5.316126   -0.688665    1.134960
   1 C     6.0000    0    12.011    2.922814   -0.997467   -0.438275
   2 C     6.0000    0    12.011    0.522443   -0.623946    1.123308
   3 C     6.0000    0    12.011   -1.933120   -0.565300   -0.466296
   4 C     6.0000    0    12.011   -2.712099    2.258465   -0.386599
   5 O     8.0000    0    15.999   -1.655480    3.658589   -2.412372
   6 C     6.0000    0    12.011   -1.693059    3.048406    2.198325
   7 O     8.0000    0    15.999    7.388082   -0.942096   -0.601107
   8 O     8.0000    0    15.999   -3.722920   -2.166903    0.751753
   9 O     8.0000    0    15.999    2.932552    0.777250   -2.480188
  10 O     8.0000    0    15.999    0.668091    1.737856    2.450443
  11 C     6.0000    0    12.011   -5.820863   -2.832506   -0.786306
  12 H     1.0000    0     1.008    5.317613    1.177073    2.029395
  13 H     1.0000    0     1.008    5.396781   -2.158679    2.598324
  14 H     1.0000    0     1.008    2.886599   -2.927595   -1.217177
  15 H     1.0000    0     1.008    0.369620   -2.184064    2.485123
  16 H     1.0000    0     1.008   -1.628650   -1.186427   -2.421828
  17 H     1.0000    0     1.008   -4.760668    2.488756   -0.516009
  18 H     1.0000    0     1.008    0.107634    3.161843   -2.608879
  19 H     1.0000    0     1.008   -1.316614    5.074309    2.320317
  20 H     1.0000    0     1.008   -2.996411    2.477862    3.713542
  21 H     1.0000    0     1.008    8.915740   -0.320694    0.176164
  22 H     1.0000    0     1.008    4.642206    0.831997   -3.137025
  23 H     1.0000    0     1.008   -6.946779   -1.178184   -1.338690
  24 H     1.0000    0     1.008   -5.200092   -3.818951   -2.507474
  25 H     1.0000    0     1.008   -6.999546   -4.100928    0.336569

--------------------------------
INTERNAL COORDINATES (ANGSTROEM)
--------------------------------
 C      0   0   0     0.000000000000     0.00000000     0.00000000
 C      1   0   0     1.524394712737     0.00000000     0.00000000
 C      2   1   0     1.528199492487   112.41938385     0.00000000
 C      3   2   1     1.548245178768   113.97963661   172.22515421
 C      4   3   2     1.550661419179   103.15879966   252.48348719
 O      5   4   3     1.418012202410   112.21721474    90.26615355
 C      5   4   3     1.528606329466   101.19087760   329.25454164
 O      1   2   3     1.436709506966   105.95097495   183.29259421
 O      4   3   2     1.425065352977   107.46610609   133.33253333
 O      2   1   3     1.431629775546   109.80901315   121.58424729
 O      7   5   4     1.435244710002   104.96063536    38.21510874
 C      9   4   3     1.420919281993   114.05518086   195.43167822
 H      1   2   3     1.094897508494   109.47214905   303.17627692
 H      1   2   3     1.098457778593   109.96056018    63.51398493
 H      2   1   3     1.101577939101   108.55363994   240.68018752
 H      3   2   1     1.098838125049   108.57964657   292.68956807
 H      4   3   2     1.097657621083   112.52053591    11.79917920
 H      5   4   3     1.093031527409   111.67769314   209.88114745
 H      6   5   4     0.974885181283   108.48892332   316.51863240
 H      7   5   4     1.092321864677   112.68175163   155.56552110
 H      7   5   4     1.099890356036   110.85903786   279.23410390
 H      8   1   2     0.964791938412   109.57416686   164.60743349
 H     10   2   1     0.969615008077   107.06886192    40.67644184
 H     12   9   4     1.098549156002   112.24890179   297.34056569
 H     12   9   4     1.099982288343   111.01382003    59.16452378
 H     12   9   4     1.092085807745   106.67442059   178.07425804

---------------------------
INTERNAL COORDINATES (A.U.)
---------------------------
 C      0   0   0     0.000000000000     0.00000000     0.00000000
 C      1   0   0     2.880688527070     0.00000000     0.00000000
 C      2   1   0     2.887878518797   112.41938385     0.00000000
 C      3   2   1     2.925759376036   113.97963661   172.22515421
 C      4   3   2     2.930325408686   103.15879966   252.48348719
 O      5   4   3     2.679654717114   112.21721474    90.26615355
 C      5   4   3     2.888647329269   101.19087760   329.25454164
 O      1   2   3     2.714987502167   105.95097495   183.29259421
 O      4   3   2     2.692983240066   107.46610609   133.33253333
 O      2   1   3     2.705388200949   109.80901315   121.58424729
 O      7   5   4     2.712219437064   104.96063536    38.21510874
 C      9   4   3     2.685148301375   114.05518086   195.43167822
 H      1   2   3     2.069056435766   109.47214905   303.17627692
 H      1   2   3     2.075784371216   109.96056018    63.51398493
 H      2   1   3     2.081680620070   108.55363994   240.68018752
 H      3   2   1     2.076503121854   108.57964657   292.68956807
 H      4   3   2     2.074272292658   112.52053591    11.79917920
 H      5   4   3     2.065530242545   111.67769314   209.88114745
 H      6   5   4     1.842266004642   108.48892332   316.51863240
 H      7   5   4     2.064189174334   112.68175163   155.56552110
 H      7   5   4     2.078491550249   110.85903786   279.23410390
 H      8   1   2     1.823192539813   109.57416686   164.60743349
 H     10   2   1     1.832306820605   107.06886192    40.67644184
 H     12   9   4     2.075957049494   112.24890179   297.34056569
 H     12   9   4     2.078665277132   111.01382003    59.16452378
 H     12   9   4     2.063743091380   106.67442059   178.07425804

---------------------
BASIS SET INFORMATION
---------------------
There are 3 groups of distinct atoms

 Group   1 Type C   : 8s4p1d contracted to 4s2p1d pattern {5111/31/1}
 Group   2 Type O   : 8s4p1d contracted to 4s2p1d pattern {5111/31/1}
 Group   3 Type H   : 4s contracted to 2s pattern {31}

Atom   0C    basis set group =>   1
Atom   1C    basis set group =>   1
Atom   2C    basis set group =>   1
Atom   3C    basis set group =>   1
Atom   4C    basis set group =>   1
Atom   5O    basis set group =>   2
Atom   6C    basis set group =>   1
Atom   7O    basis set group =>   2
Atom   8O    basis set group =>   2
Atom   9O    basis set group =>   2
Atom  10O    basis set group =>   2
Atom  11C    basis set group =>   1
Atom  12H    basis set group =>   3
Atom  13H    basis set group =>   3
Atom  14H    basis set group =>   3
Atom  15H    basis set group =>   3
Atom  16H    basis set group =>   3
Atom  17H    basis set group =>   3
Atom  18H    basis set group =>   3
Atom  19H    basis set group =>   3
Atom  20H    basis set group =>   3
Atom  21H    basis set group =>   3
Atom  22H    basis set group =>   3
Atom  23H    basis set group =>   3
Atom  24H    basis set group =>   3
Atom  25H    basis set group =>   3
---------------------------------
AUXILIARY/J BASIS SET INFORMATION
---------------------------------
There are 3 groups of distinct atoms

 Group   1 Type C   : 12s5p4d2f1g contracted to 6s4p3d1f1g pattern {711111/2111/211/2/1}
 Group   2 Type O   : 12s5p4d2f1g contracted to 6s4p3d1f1g pattern {711111/2111/211/2/1}
 Group   3 Type H   : 5s2p1d contracted to 3s1p1d pattern {311/2/1}

Atom   0C    basis set group =>   1
Atom   1C    basis set group =>   1
Atom   2C    basis set group =>   1
Atom   3C    basis set group =>   1
Atom   4C    basis set group =>   1
Atom   5O    basis set group =>   2
Atom   6C    basis set group =>   1
Atom   7O    basis set group =>   2
Atom   8O    basis set group =>   2
Atom   9O    basis set group =>   2
Atom  10O    basis set group =>   2
Atom  11C    basis set group =>   1
Atom  12H    basis set group =>   3
Atom  13H    basis set group =>   3
Atom  14H    basis set group =>   3
Atom  15H    basis set group =>   3
Atom  16H    basis set group =>   3
Atom  17H    basis set group =>   3
Atom  18H    basis set group =>   3
Atom  19H    basis set group =>   3
Atom  20H    basis set group =>   3
Atom  21H    basis set group =>   3
Atom  22H    basis set group =>   3
Atom  23H    basis set group =>   3
Atom  24H    basis set group =>   3
Atom  25H    basis set group =>   3


           ************************************************************
           *        Program running with 4 parallel MPI-processes     *
           *              working on a common directory               *
           ************************************************************
------------------------------------------------------------------------------
                           ORCA GTO INTEGRAL CALCULATION
                           -- RI-GTO INTEGRALS CHOSEN --
------------------------------------------------------------------------------
------------------------------------------------------------------------------
                   ___                                                        
                  /   \      - P O W E R E D   B Y -                         
                 /     \                                                     
                 |  |  |   _    _      __       _____    __    __             
                 |  |  |  | |  | |    /  \     |  _  \  |  |  /  |          
                  \  \/   | |  | |   /    \    | | | |  |  | /  /          
                 / \  \   | |__| |  /  /\  \   | |_| |  |  |/  /          
                |  |  |   |  __  | /  /__\  \  |    /   |      \           
                |  |  |   | |  | | |   __   |  |    \   |  |\   \          
                \     /   | |  | | |  |  |  |  | |\  \  |  | \   \       
                 \___/    |_|  |_| |__|  |__|  |_| \__\ |__|  \__/        
                                                                              
                      - O R C A' S   B I G   F R I E N D -                    
                                      &                                       
                       - I N T E G R A L  F E E D E R -                       
                                                                              
 v1 FN, 2020, v2 2021                                                         
------------------------------------------------------------------------------


Reading SHARK input file pbeh-3c.SHARKINP.tmp ... ok
----------------------
SHARK INTEGRAL PACKAGE
----------------------

Number of atoms                             ...     26
Number of basis functions                   ...    208
Number of shells                            ...    112
Maximum angular momentum                    ...      2
Integral batch strategy                     ... SHARK/LIBINT Hybrid
RI-J (if used) integral strategy            ... SPLIT-RIJ (Revised 2003 algorithm where possible)
Printlevel                                  ...      1
Contraction scheme used                     ... SEGMENTED contraction
Coulomb Range Separation                    ... NOT USED
Exchange Range Separation                   ... NOT USED
Finite Nucleus Model                        ... NOT USED
Auxiliary Coulomb fitting basis             ... AVAILABLE
   # of basis functions in Aux-J            ...    742
   # of shells in Aux-J                     ...    250
   Maximum angular momentum in Aux-J        ...      4
Auxiliary J/K fitting basis                 ... NOT available
Auxiliary Correlation fitting basis         ... NOT available
Auxiliary 'external' fitting basis          ... NOT available
Integral threshold                          ...     2.500000e-11
Primitive cut-off                           ...     2.500000e-12
Primitive pair pre-selection threshold      ...     2.500000e-12

Calculating pre-screening integrals         ... done (  0.0 sec) Dimension = 112
Organizing shell pair data                  ... done (  0.4 sec)
Shell pair information
Total number of shell pairs                 ...      6328
Shell pairs after pre-screening             ...      5256
Total number of primitive shell pairs       ...     22776
Primitive shell pairs kept                  ...     12681
          la=0 lb=0:   2249 shell pairs
          la=1 lb=0:   1632 shell pairs
          la=1 lb=1:    288 shell pairs
          la=2 lb=0:    748 shell pairs
          la=2 lb=1:    270 shell pairs
          la=2 lb=2:     69 shell pairs

Calculating one electron integrals          ... done (  0.1 sec)
Calculating RI/J V-Matrix + Cholesky decomp.... done (  0.3 sec)
Calculating Nuclear repulsion               ... done (  0.0 sec) ENN=    819.358778172279 Eh

SHARK setup successfully completed in   2.0 seconds

Maximum memory used throughout the entire GTOINT-calculation: 13.7 MB


           ************************************************************
           *        Program running with 4 parallel MPI-processes     *
           *              working on a common directory               *
           ************************************************************
-------------------------------------------------------------------------------
                                 ORCA SCF
-------------------------------------------------------------------------------

------------
SCF SETTINGS
------------
Hamiltonian:
 Density Functional     Method          .... DFT(GTOs)
 Exchange Functional    Exchange        .... PBE
   PBE kappa parameter   XKappa         ....  1.024500
   PBE mue parameter    XMuePBE         ....  0.123457
 Correlation Functional Correlation     .... PBE
   PBE beta parameter  CBetaPBE         ....  0.030000
 LDA part of GGA corr.  LDAOpt          .... PW91-LDA
 Gradients option       PostSCFGGA      .... off
 Hybrid DFT is turned on
   Fraction HF Exchange ScalHFX         ....  0.420000
   Scaling of DF-GGA-X  ScalDFX         ....  0.580000
   Scaling of DF-GGA-C  ScalDFC         ....  1.000000
   Scaling of DF-LDA-C  ScalLDAC        ....  1.000000
   Perturbative correction              ....  0.000000
   Density functional embedding theory  .... OFF
 RI-approximation to the Coulomb term is turned on
   Number of AuxJ basis functions       .... 742
   RIJ-ON(X) (HFX calculated with O(N)) .... on
   Number of AuxJ basis functions       .... 742
   RIJ-COSX (HFX calculated with COS-X)).... on


General Settings:
 Integral files         IntName         .... pbeh-3c
 Hartree-Fock type      HFTyp           .... RHF
 Total Charge           Charge          ....    0
 Multiplicity           Mult            ....    1
 Number of Electrons    NEL             ....   96
 Basis Dimension        Dim             ....  208
 Nuclear Repulsion      ENuc            ....    819.3587781723 Eh

Convergence Acceleration:
 DIIS                   CNVDIIS         .... on
   Start iteration      DIISMaxIt       ....    12
   Startup error        DIISStart       ....  0.200000
   # of expansion vecs  DIISMaxEq       ....     5
   Bias factor          DIISBfac        ....   1.050
   Max. coefficient     DIISMaxC        ....  10.000
 Trust-Rad. Augm. Hess. CNVTRAH         .... auto
   Auto Start mean grad. ratio tolernc. ....  1.125000
   Auto Start start iteration           ....    20
   Auto Start num. interpolation iter.  ....    10
   Max. Number of Micro iterations      ....    16
   Max. Number of Macro iterations      .... Maxiter - #DIIS iter
   Number of Davidson start vectors     ....     2
   Converg. threshold I  (grad. norm)   ....   1.000e-05
   Converg. threshold II (energy diff.) ....   1.000e-08
   Grad. Scal. Fac. for Micro threshold ....   0.100
   Minimum threshold for Micro iter.    ....   0.010
   NR start threshold (gradient norm)   ....   0.001
   Initial trust radius                 ....   0.400
   Minimum AH scaling param. (alpha)    ....   1.000
   Maximum AH scaling param. (alpha)    .... 1000.000
   Orbital update algorithm             .... Taylor
   White noise on init. David. guess    .... on
   Maximum white noise                  ....   0.010
   Quad. conv. algorithm                .... NR
   COSX micro iterations for RIJONX calc.... off
 SOSCF                  CNVSOSCF        .... on
   Start iteration      SOSCFMaxIt      ....   150
   Startup grad/error   SOSCFStart      ....  0.003300
 Level Shifting         CNVShift        .... on
   Level shift para.    LevelShift      ....    0.2500
   Turn off err/grad.   ShiftErr        ....    0.0010
 Zerner damping         CNVZerner       .... off
 Static damping         CNVDamp         .... on
   Fraction old density DampFac         ....    0.7000
   Max. Damping (<1)    DampMax         ....    0.9800
   Min. Damping (>=0)   DampMin         ....    0.0000
   Turn off err/grad.   DampErr         ....    0.1000
 Fernandez-Rico         CNVRico         .... off

SCF Procedure:
 Maximum # iterations   MaxIter         ....   125
 SCF integral mode      SCFMode         .... Direct
   Integral package                     .... SHARK and LIBINT hybrid scheme
 Reset frequency        DirectResetFreq ....    20
 Integral Threshold     Thresh          ....  2.500e-11 Eh
 Primitive CutOff       TCut            ....  2.500e-12 Eh

Convergence Tolerance:
 Convergence Check Mode ConvCheckMode   .... Total+1el-Energy
 Convergence forced     ConvForced      .... 0
 Energy Change          TolE            ....  1.000e-08 Eh
 1-El. energy change                    ....  1.000e-05 Eh
 Orbital Gradient       TolG            ....  1.000e-05
 Orbital Rotation angle TolX            ....  1.000e-05
 DIIS Error             TolErr          ....  5.000e-07


Diagonalization of the overlap matrix:
Smallest eigenvalue                        ... 3.060e-03
Time for diagonalization                   ...    0.032 sec
Threshold for overlap eigenvalues          ... 1.000e-08
Number of eigenvalues below threshold      ... 0
Time for construction of square roots      ...    0.323 sec
Total time needed                          ...    0.458 sec

--------------------------------
INITIAL GUESS: MINIMAL BASIS EHT
--------------------------------
The minimal basis has 74 functions
EHT matrix was diagonalized
Basis set overlap was calculated now projecting the orbitals
Using GuessMode=FMatrix for the initial guess
C*T matrix was formed
Effective Fockian was calculated
Effective Fockian was diagonalized
Initial density was built
                      ------------------
                      INITIAL GUESS DONE
                      ------------------
-------------------
DFT GRID GENERATION
-------------------

General Integration Accuracy     IntAcc      ... 4.959
Radial Grid Type                 RadialGrid  ... OptM3 with GC (2021)
Angular Grid (max. ang.)         AngularGrid ... 6 (Lebedev-590)
Angular grid pruning method      GridPruning ... 4 (adaptive)
Weight generation scheme         WeightScheme... Becke
Basis function cutoff            BFCut       ... 1.0000e-11
Integration weight cutoff        WCut        ... 1.0000e-14
Angular grids for H and He will be reduced by one unit
Partially contracted basis set               ... off
Rotationally invariant grid construction     ... off

Total number of grid points                  ...   291108
Total number of batches                      ...     4561
Average number of points per batch           ...       63
Average number of grid points per atom       ...    11196
Time for grid setup =    7.234 sec

--------------------
COSX GRID GENERATION
--------------------

GRIDX 1
-------
General Integration Accuracy     IntAcc      ... 4.020
Radial Grid Type                 RadialGrid  ... OptM3 with GC (2021)
Angular Grid (max. ang.)         AngularGrid ... 2 (Lebedev-110)
Angular grid pruning method      GridPruning ... 4 (adaptive)
Weight generation scheme         WeightScheme... Becke
Basis function cutoff            BFCut       ... 1.0000e-11
Integration weight cutoff        WCut        ... 1.0000e-14
Angular grids for H and He will be reduced by one unit
Partially contracted basis set               ... on
Rotationally invariant grid construction     ... off

Total number of grid points                  ...    31725
Total number of batches                      ...      507
Average number of points per batch           ...       62
Average number of grid points per atom       ...     1220
UseSFitting                                  ... on

GRIDX 2
-------
General Integration Accuracy     IntAcc      ... 4.338
Radial Grid Type                 RadialGrid  ... OptM3 with GC (2021)
Angular Grid (max. ang.)         AngularGrid ... 3 (Lebedev-194)
Angular grid pruning method      GridPruning ... 4 (adaptive)
Weight generation scheme         WeightScheme... Becke
Basis function cutoff            BFCut       ... 1.0000e-11
Integration weight cutoff        WCut        ... 1.0000e-14
Angular grids for H and He will be reduced by one unit
Partially contracted basis set               ... on
Rotationally invariant grid construction     ... off

Total number of grid points                  ...    69292
Total number of batches                      ...     1096
Average number of points per batch           ...       63
Average number of grid points per atom       ...     2665
UseSFitting                                  ... on

GRIDX 3
-------
General Integration Accuracy     IntAcc      ... 4.871
Radial Grid Type                 RadialGrid  ... OptM3 with GC (2021)
Angular Grid (max. ang.)         AngularGrid ... 4 (Lebedev-302)
Angular grid pruning method      GridPruning ... 4 (adaptive)
Weight generation scheme         WeightScheme... Becke
Basis function cutoff            BFCut       ... 1.0000e-11
Integration weight cutoff        WCut        ... 1.0000e-14
Angular grids for H and He will be reduced by one unit
Partially contracted basis set               ... on
Rotationally invariant grid construction     ... off

Total number of grid points                  ...   133045
Total number of batches                      ...     2095
Average number of points per batch           ...       63
Average number of grid points per atom       ...     5117
UseSFitting                                  ... on

Time for X-Grid setup             =    5.927 sec

--------------
SCF ITERATIONS
--------------
ITER       Energy         Delta-E        Max-DP      RMS-DP      [F,P]     Damp
               ***  Starting incremental Fock matrix formation  ***
  0   -648.0471309502   0.000000000000 0.16903612  0.00540164  0.4929034 0.7000
  1   -648.7377223450  -0.690591394787 0.09340281  0.00319497  0.2638232 0.7000
                               ***Turning on DIIS***
  2   -649.0948870054  -0.357164660404 0.04726086  0.00178438  0.1898857 0.7000
  3   -649.3376622161  -0.242775210708 0.02454307  0.00112585  0.1353821 0.7000
  4   -649.5105106057  -0.172848389553 0.06027255  0.00277135  0.0943794 0.0000
  5   -649.9254384632  -0.414927857567 0.01023661  0.00025845  0.0108169 0.0000
  6   -649.9259439001  -0.000505436878 0.00302496  0.00007241  0.0058295 0.0000
                      *** Initiating the SOSCF procedure ***
                           *** Shutting down DIIS ***
                      *** Re-Reading the Fockian *** 
                      *** Removing any level shift *** 
ITER      Energy       Delta-E        Grad      Rot      Max-DP    RMS-DP
  7   -649.92611205  -0.0001681505  0.000389  0.000389  0.001009  0.000034
               *** Restarting incremental Fock matrix formation ***
  8   -649.92612835  -0.0000162978  0.000148  0.000293  0.000536  0.000017
  9   -649.92613015  -0.0000018031  0.000043  0.000142  0.000296  0.000009
 10   -649.92613032  -0.0000001668  0.000023  0.000049  0.000115  0.000004
 11   -649.92613041  -0.0000000963  0.000007  0.000007  0.000039  0.000001
 12   -649.92613042  -0.0000000061  0.000005  0.000004  0.000019  0.000000
                  ***Gradient check signals convergence***
              ***Rediagonalizing the Fockian in SOSCF/NRSCF***

               *****************************************************
               *                     SUCCESS                       *
               *           SCF CONVERGED AFTER  13 CYCLES          *
               *****************************************************

Old exchange energy                            =    -34.632808028 Eh
New exchange energy                            =    -34.632810729 Eh
Exchange energy change after final integration =     -0.000002701 Eh
Total energy after final integration           =   -649.926133124 Eh
Final COS-X integration done in                =    10.618 sec

----------------
TOTAL SCF ENERGY
----------------

Total Energy       :         -649.92613312 Eh          -17685.38919 eV

Components:
Nuclear Repulsion  :          819.35877817 Eh           22295.88586 eV
Electronic Energy  :        -1469.28491130 Eh          -39981.27505 eV
One Electron Energy:        -2517.75330701 Eh          -68511.55054 eV
Two Electron Energy:         1048.46839571 Eh           28530.27550 eV
Max COSX asymmetry :            0.00000207 Eh               0.00006 eV

Virial components:
Potential Energy   :        -1295.03549409 Eh          -35239.70735 eV
Kinetic Energy     :          645.10936096 Eh           17554.31816 eV
Virial Ratio       :            2.00746660


DFT components:
N(Alpha)           :       48.000010330944 electrons
N(Beta)            :       48.000010330944 electrons
N(Total)           :       96.000020661888 electrons
E(X)               :      -46.072195381917 Eh       
E(C)               :       -4.267304573718 Eh       
E(XC)              :      -50.339499955635 Eh       
DFET-embed. en.    :        0.000000000000 Eh       

---------------
SCF CONVERGENCE
---------------

  Last Energy change         ...   -2.7300e-09  Tolerance :   1.0000e-08
  Last MAX-Density change    ...    1.9984e-15  Tolerance :   1.0000e-07
  Last RMS-Density change    ...    4.5799e-17  Tolerance :   5.0000e-09
  Last Orbital Gradient      ...    4.4187e-07  Tolerance :   1.0000e-05
  Last Orbital Rotation      ...    5.9930e-07  Tolerance :   1.0000e-05

             **** THE GBW FILE WAS UPDATED (pbeh-3c.gbw) ****
             **** DENSITY pbeh-3c.scfp WAS UPDATED ****
             **** ENERGY FILE WAS UPDATED (pbeh-3c.en.tmp) ****
             **** THE GBW FILE WAS UPDATED (pbeh-3c.gbw) ****
             **** DENSITY pbeh-3c.scfp WAS UPDATED ****
----------------
ORBITAL ENERGIES
----------------

  NO   OCC          E(Eh)            E(eV) 
   0   2.0000     -19.507694      -530.8314 
   1   2.0000     -19.502629      -530.6935 
   2   2.0000     -19.501201      -530.6547 
   3   2.0000     -19.493760      -530.4522 
   4   2.0000     -19.468233      -529.7575 
   5   2.0000     -10.500609      -285.7361 
   6   2.0000     -10.495075      -285.5855 
   7   2.0000     -10.493646      -285.5466 
   8   2.0000     -10.493350      -285.5386 
   9   2.0000     -10.484020      -285.2847 
  10   2.0000     -10.481905      -285.2271 
  11   2.0000     -10.474391      -285.0227 
  12   2.0000      -1.160107       -31.5681 
  13   2.0000      -1.147058       -31.2130 
  14   2.0000      -1.132296       -30.8113 
  15   2.0000      -1.120553       -30.4918 
  16   2.0000      -1.102074       -29.9890 
  17   2.0000      -0.874281       -23.7904 
  18   2.0000      -0.846605       -23.0373 
  19   2.0000      -0.801208       -21.8020 
  20   2.0000      -0.757310       -20.6075 
  21   2.0000      -0.705805       -19.2059 
  22   2.0000      -0.665859       -18.1189 
  23   2.0000      -0.650888       -17.7116 
  24   2.0000      -0.609341       -16.5810 
  25   2.0000      -0.592613       -16.1258 
  26   2.0000      -0.563100       -15.3227 
  27   2.0000      -0.558664       -15.2020 
  28   2.0000      -0.544205       -14.8086 
  29   2.0000      -0.538341       -14.6490 
  30   2.0000      -0.518776       -14.1166 
  31   2.0000      -0.507841       -13.8190 
  32   2.0000      -0.487439       -13.2639 
  33   2.0000      -0.479500       -13.0479 
  34   2.0000      -0.472820       -12.8661 
  35   2.0000      -0.457632       -12.4528 
  36   2.0000      -0.440422       -11.9845 
  37   2.0000      -0.428977       -11.6730 
  38   2.0000      -0.420540       -11.4435 
  39   2.0000      -0.401322       -10.9205 
  40   2.0000      -0.398910       -10.8549 
  41   2.0000      -0.374795       -10.1987 
  42   2.0000      -0.365856        -9.9555 
  43   2.0000      -0.348500        -9.4832 
  44   2.0000      -0.339538        -9.2393 
  45   2.0000      -0.335486        -9.1290 
  46   2.0000      -0.309613        -8.4250 
  47   2.0000      -0.291228        -7.9247 
  48   0.0000       0.101459         2.7609 
  49   0.0000       0.125569         3.4169 
  50   0.0000       0.131713         3.5841 
  51   0.0000       0.155921         4.2428 
  52   0.0000       0.162560         4.4235 
  53   0.0000       0.170663         4.6440 
  54   0.0000       0.187780         5.1098 
  55   0.0000       0.192736         5.2446 
  56   0.0000       0.204909         5.5759 
  57   0.0000       0.207349         5.6423 
  58   0.0000       0.209361         5.6970 
  59   0.0000       0.212609         5.7854 
  60   0.0000       0.216058         5.8792 
  61   0.0000       0.228323         6.2130 
  62   0.0000       0.232019         6.3136 
  63   0.0000       0.242457         6.5976 
  64   0.0000       0.249559         6.7908 
  65   0.0000       0.250352         6.8124 
  66   0.0000       0.274409         7.4670 
  67   0.0000       0.279182         7.5969 
  68   0.0000       0.297121         8.0851 
  69   0.0000       0.315400         8.5825 
  70   0.0000       0.325254         8.8506 
  71   0.0000       0.332946         9.0599 
  72   0.0000       0.364905         9.9296 
  73   0.0000       0.387696        10.5497 
  74   0.0000       0.505249        13.7485 
  75   0.0000       0.523634        14.2488 
  76   0.0000       0.533990        14.5306 
  77   0.0000       0.552540        15.0354 
  78   0.0000       0.556496        15.1430 
  79   0.0000       0.573503        15.6058 
  80   0.0000       0.579828        15.7779 
  81   0.0000       0.583696        15.8832 
  82   0.0000       0.596569        16.2335 
  83   0.0000       0.602988        16.4081 
  84   0.0000       0.618497        16.8302 
  85   0.0000       0.636332        17.3155 
  86   0.0000       0.648458        17.6455 
  87   0.0000       0.669566        18.2198 
  88   0.0000       0.690934        18.8013 
  89   0.0000       0.706789        19.2327 
  90   0.0000       0.721818        19.6417 
  91   0.0000       0.764076        20.7916 
  92   0.0000       0.800730        21.7890 
  93   0.0000       0.826921        22.5017 
  94   0.0000       0.849914        23.1273 
  95   0.0000       0.869079        23.6488 
  96   0.0000       0.911920        24.8146 
  97   0.0000       0.926956        25.2238 
  98   0.0000       0.945257        25.7218 
  99   0.0000       0.966010        26.2865 
 100   0.0000       0.973428        26.4883 
 101   0.0000       0.975411        26.5423 
 102   0.0000       0.989551        26.9271 
 103   0.0000       0.995878        27.0992 
 104   0.0000       1.003915        27.3179 
 105   0.0000       1.010419        27.4949 
 106   0.0000       1.021948        27.8086 
 107   0.0000       1.029664        28.0186 
 108   0.0000       1.043612        28.3981 
 109   0.0000       1.071779        29.1646 
 110   0.0000       1.085295        29.5324 
 111   0.0000       1.102245        29.9936 
 112   0.0000       1.106735        30.1158 
 113   0.0000       1.129172        30.7263 
 114   0.0000       1.169594        31.8263 
 115   0.0000       1.182256        32.1708 
 116   0.0000       1.189835        32.3771 
 117   0.0000       1.205626        32.8067 
 118   0.0000       1.222170        33.2569 
 119   0.0000       1.238094        33.6902 
 120   0.0000       1.279947        34.8291 
 121   0.0000       1.286232        35.0001 
 122   0.0000       1.304445        35.4957 
 123   0.0000       1.333273        36.2802 
 124   0.0000       1.367344        37.2073 
 125   0.0000       1.385141        37.6916 
 126   0.0000       1.413935        38.4751 
 127   0.0000       1.434434        39.0329 
 128   0.0000       1.463870        39.8339 
 129   0.0000       1.469299        39.9816 
 130   0.0000       1.498038        40.7637 
 131   0.0000       1.533536        41.7296 
 132   0.0000       1.553486        42.2725 
 133   0.0000       1.580411        43.0052 
 134   0.0000       1.598525        43.4981 
 135   0.0000       1.647568        44.8326 
 136   0.0000       1.660188        45.1760 
 137   0.0000       1.687533        45.9201 
 138   0.0000       1.723435        46.8971 
 139   0.0000       1.765014        48.0285 
 140   0.0000       1.778098        48.3845 
 141   0.0000       1.790875        48.7322 
 142   0.0000       1.817635        49.4604 
 143   0.0000       1.831038        49.8251 
 144   0.0000       1.860204        50.6187 
 145   0.0000       1.873792        50.9885 
 146   0.0000       1.876382        51.0590 
 147   0.0000       1.919708        52.2379 
 148   0.0000       1.941386        52.8278 
 149   0.0000       1.958262        53.2870 
 150   0.0000       1.962787        53.4102 
 151   0.0000       1.982594        53.9491 
 152   0.0000       2.006791        54.6076 
 153   0.0000       2.046398        55.6853 
 154   0.0000       2.061659        56.1006 
 155   0.0000       2.063136        56.1408 
 156   0.0000       2.081120        56.6302 
 157   0.0000       2.087732        56.8101 
 158   0.0000       2.111396        57.4540 
 159   0.0000       2.127085        57.8809 
 160   0.0000       2.140227        58.2385 
 161   0.0000       2.156412        58.6789 
 162   0.0000       2.167773        58.9881 
 163   0.0000       2.188710        59.5578 
 164   0.0000       2.195955        59.7550 
 165   0.0000       2.217085        60.3300 
 166   0.0000       2.241021        60.9813 
 167   0.0000       2.244116        61.0655 
 168   0.0000       2.320643        63.1479 
 169   0.0000       2.348482        63.9055 
 170   0.0000       2.360928        64.2441 
 171   0.0000       2.389338        65.0172 
 172   0.0000       2.429652        66.1142 
 173   0.0000       2.447321        66.5950 
 174   0.0000       2.457678        66.8768 
 175   0.0000       2.475022        67.3488 
 176   0.0000       2.503151        68.1142 
 177   0.0000       2.565005        69.7973 
 178   0.0000       2.606472        70.9257 
 179   0.0000       2.615870        71.1815 
 180   0.0000       2.633669        71.6658 
 181   0.0000       2.641900        71.8898 
 182   0.0000       2.665032        72.5192 
 183   0.0000       2.700656        73.4886 
 184   0.0000       2.711972        73.7965 
 185   0.0000       2.721793        74.0638 
 186   0.0000       2.765822        75.2618 
 187   0.0000       2.841258        77.3146 
 188   0.0000       2.867642        78.0325 
 189   0.0000       2.883426        78.4620 
 190   0.0000       2.902729        78.9873 
 191   0.0000       2.954815        80.4046 
 192   0.0000       2.970472        80.8306 
 193   0.0000       2.996677        81.5437 
 194   0.0000       3.072284        83.6011 
 195   0.0000       3.125874        85.0594 
 196   0.0000      13.573250       369.3469 
 197   0.0000      13.725807       373.4982 
 198   0.0000      13.766070       374.5938 
 199   0.0000      13.946858       379.5133 
 200   0.0000      13.982788       380.4910 
 201   0.0000      14.125871       384.3845 
 202   0.0000      14.155939       385.2027 
 203   0.0000      25.507316       694.0894 
 204   0.0000      25.582130       696.1251 
 205   0.0000      25.685483       698.9375 
 206   0.0000      25.697839       699.2738 
 207   0.0000      25.781883       701.5607 

                    ********************************
                    * MULLIKEN POPULATION ANALYSIS *
                    ********************************

-----------------------
MULLIKEN ATOMIC CHARGES
-----------------------
   0 C :   -0.179568
   1 C :    0.022347
   2 C :    0.022646
   3 C :   -0.036099
   4 C :   -0.003589
   5 O :   -0.649797
   6 C :   -0.166685
   7 O :   -0.653194
   8 O :   -0.481791
   9 O :   -0.672724
  10 O :   -0.494708
  11 C :   -0.373831
  12 H :    0.227634
  13 H :    0.191383
  14 H :    0.208899
  15 H :    0.232396
  16 H :    0.235012
  17 H :    0.224006
  18 H :    0.438738
  19 H :    0.230892
  20 H :    0.196388
  21 H :    0.428383
  22 H :    0.442618
  23 H :    0.193633
  24 H :    0.192281
  25 H :    0.224729
Sum of atomic charges:    0.0000000

--------------------------------
MULLIKEN REDUCED ORBITAL CHARGES
--------------------------------
  0 C s       :     3.265872  s :     3.265872
      pz      :     0.916040  p :     2.848811
      px      :     0.793711
      py      :     1.139059
      dz2     :     0.006926  d :     0.064886
      dxz     :     0.017799
      dyz     :     0.017531
      dx2y2   :     0.015814
      dxy     :     0.006816
  1 C s       :     3.229220  s :     3.229220
      pz      :     0.820893  p :     2.677459
      px      :     0.926509
      py      :     0.930057
      dz2     :     0.012932  d :     0.070973
      dxz     :     0.015504
      dyz     :     0.018326
      dx2y2   :     0.018767
      dxy     :     0.005446
  2 C s       :     3.231357  s :     3.231357
      pz      :     0.944304  p :     2.676722
      px      :     0.900657
      py      :     0.831761
      dz2     :     0.007120  d :     0.069274
      dxz     :     0.012724
      dyz     :     0.021628
      dx2y2   :     0.019671
      dxy     :     0.008130
  3 C s       :     3.242510  s :     3.242510
      pz      :     1.029807  p :     2.724083
      px      :     0.821358
      py      :     0.872918
      dz2     :     0.014300  d :     0.069506
      dxz     :     0.014038
      dyz     :     0.010342
      dx2y2   :     0.017832
      dxy     :     0.012993
  4 C s       :     3.216630  s :     3.216630
      pz      :     0.802673  p :     2.714606
      px      :     1.068277
      py      :     0.843656
      dz2     :     0.022767  d :     0.072352
      dxz     :     0.010732
      dyz     :     0.014586
      dx2y2   :     0.016900
      dxy     :     0.007368
  5 O s       :     3.813518  s :     3.813518
      pz      :     1.612203  p :     4.808081
      px      :     1.443123
      py      :     1.752755
      dz2     :     0.006878  d :     0.028197
      dxz     :     0.001983
      dyz     :     0.006655
      dx2y2   :     0.007580
      dxy     :     0.005101
  6 C s       :     3.278567  s :     3.278567
      pz      :     0.994602  p :     2.822980
      px      :     0.790138
      py      :     1.038241
      dz2     :     0.011495  d :     0.065138
      dxz     :     0.017562
      dyz     :     0.005649
      dx2y2   :     0.017611
      dxy     :     0.012821
  7 O s       :     3.820576  s :     3.820576
      pz      :     1.636633  p :     4.804628
      px      :     1.297740
      py      :     1.870256
      dz2     :     0.004150  d :     0.027990
      dxz     :     0.011667
      dyz     :     0.004026
      dx2y2   :     0.003724
      dxy     :     0.004423
  8 O s       :     3.806109  s :     3.806109
      pz      :     1.620785  p :     4.645443
      px      :     1.358336
      py      :     1.666323
      dz2     :     0.004401  d :     0.030239
      dxz     :     0.010335
      dyz     :     0.005558
      dx2y2   :     0.004649
      dxy     :     0.005296
  9 O s       :     3.821612  s :     3.821612
      pz      :     1.583565  p :     4.824092
      px      :     1.549851
      py      :     1.690677
      dz2     :     0.004271  d :     0.027020
      dxz     :     0.005090
      dyz     :     0.005777
      dx2y2   :     0.009683
      dxy     :     0.002199
 10 O s       :     3.810547  s :     3.810547
      pz      :     1.758267  p :     4.653870
      px      :     1.531001
      py      :     1.364602
      dz2     :     0.004033  d :     0.030291
      dxz     :     0.004659
      dyz     :     0.006532
      dx2y2   :     0.008802
      dxy     :     0.006265
 11 C s       :     3.326128  s :     3.326128
      pz      :     1.007972  p :     2.986291
      px      :     0.878814
      py      :     1.099505
      dz2     :     0.009010  d :     0.061412
      dxz     :     0.015795
      dyz     :     0.012954
      dx2y2   :     0.007643
      dxy     :     0.016009
 12 H s       :     0.772366  s :     0.772366
 13 H s       :     0.808617  s :     0.808617
 14 H s       :     0.791101  s :     0.791101
 15 H s       :     0.767604  s :     0.767604
 16 H s       :     0.764988  s :     0.764988
 17 H s       :     0.775994  s :     0.775994
 18 H s       :     0.561262  s :     0.561262
 19 H s       :     0.769108  s :     0.769108
 20 H s       :     0.803612  s :     0.803612
 21 H s       :     0.571617  s :     0.571617
 22 H s       :     0.557382  s :     0.557382
 23 H s       :     0.806367  s :     0.806367
 24 H s       :     0.807719  s :     0.807719
 25 H s       :     0.775271  s :     0.775271


                     *******************************
                     * LOEWDIN POPULATION ANALYSIS *
                     *******************************

----------------------
LOEWDIN ATOMIC CHARGES
----------------------
   0 C :   -0.103864
   1 C :   -0.032998
   2 C :   -0.014279
   3 C :   -0.028761
   4 C :   -0.042004
   5 O :   -0.405474
   6 C :   -0.089969
   7 O :   -0.425055
   8 O :   -0.257771
   9 O :   -0.403564
  10 O :   -0.265491
  11 C :   -0.183637
  12 H :    0.123383
  13 H :    0.110854
  14 H :    0.115516
  15 H :    0.130393
  16 H :    0.124298
  17 H :    0.123929
  18 H :    0.309528
  19 H :    0.130266
  20 H :    0.110946
  21 H :    0.316347
  22 H :    0.322184
  23 H :    0.104060
  24 H :    0.105229
  25 H :    0.125934

-------------------------------
LOEWDIN REDUCED ORBITAL CHARGES
-------------------------------
  0 C s       :     2.921972  s :     2.921972
      pz      :     1.004834  p :     3.044719
      px      :     0.915046
      py      :     1.124839
      dz2     :     0.014430  d :     0.137172
      dxz     :     0.041574
      dyz     :     0.033442
      dx2y2   :     0.033379
      dxy     :     0.014348
  1 C s       :     2.882710  s :     2.882710
      pz      :     0.946005  p :     2.993034
      px      :     1.061273
      py      :     0.985757
      dz2     :     0.027350  d :     0.157254
      dxz     :     0.037809
      dyz     :     0.040212
      dx2y2   :     0.041148
      dxy     :     0.010734
  2 C s       :     2.883337  s :     2.883337
      pz      :     1.019962  p :     2.978986
      px      :     1.045959
      py      :     0.913065
      dz2     :     0.014293  d :     0.151957
      dxz     :     0.030413
      dyz     :     0.045110
      dx2y2   :     0.045176
      dxy     :     0.016965
  3 C s       :     2.889840  s :     2.889840
      pz      :     1.050635  p :     2.984877
      px      :     0.948103
      py      :     0.986140
      dz2     :     0.030289  d :     0.154044
      dxz     :     0.031415
      dyz     :     0.020922
      dx2y2   :     0.042175
      dxy     :     0.029243
  4 C s       :     2.882884  s :     2.882884
      pz      :     0.956380  p :     2.997577
      px      :     1.052349
      py      :     0.988848
      dz2     :     0.052811  d :     0.161543
      dxz     :     0.023137
      dyz     :     0.033279
      dx2y2   :     0.036806
      dxy     :     0.015512
  5 O s       :     3.514718  s :     3.514718
      pz      :     1.635968  p :     4.840891
      px      :     1.445102
      py      :     1.759821
      dz2     :     0.012312  d :     0.049865
      dxz     :     0.005652
      dyz     :     0.011491
      dx2y2   :     0.012473
      dxy     :     0.007937
  6 C s       :     2.927350  s :     2.927350
      pz      :     1.081944  p :     3.025763
      px      :     0.894494
      py      :     1.049325
      dz2     :     0.025235  d :     0.136857
      dxz     :     0.037751
      dyz     :     0.010614
      dx2y2   :     0.036113
      dxy     :     0.027145
  7 O s       :     3.529091  s :     3.529091
      pz      :     1.660076  p :     4.846989
      px      :     1.310306
      py      :     1.876608
      dz2     :     0.007628  d :     0.048975
      dxz     :     0.019857
      dyz     :     0.005772
      dx2y2   :     0.007702
      dxy     :     0.008016
  8 O s       :     3.462768  s :     3.462768
      pz      :     1.650053  p :     4.727238
      px      :     1.404025
      py      :     1.673160
      dz2     :     0.009442  d :     0.067765
      dxz     :     0.021785
      dyz     :     0.010516
      dx2y2   :     0.012603
      dxy     :     0.013418
  9 O s       :     3.513563  s :     3.513563
      pz      :     1.592893  p :     4.841520
      px      :     1.528328
      py      :     1.720300
      dz2     :     0.008791  d :     0.048480
      dxz     :     0.009935
      dyz     :     0.010899
      dx2y2   :     0.014670
      dxy     :     0.004185
 10 O s       :     3.471721  s :     3.471721
      pz      :     1.762037  p :     4.727844
      px      :     1.551394
      py      :     1.414412
      dz2     :     0.007820  d :     0.065926
      dxz     :     0.008307
      dyz     :     0.014285
      dx2y2   :     0.020127
      dxy     :     0.015387
 11 C s       :     2.957473  s :     2.957473
      pz      :     1.045904  p :     3.104568
      px      :     0.947417
      py      :     1.111247
      dz2     :     0.018031  d :     0.121596
      dxz     :     0.033352
      dyz     :     0.024123
      dx2y2   :     0.015494
      dxy     :     0.030595
 12 H s       :     0.876617  s :     0.876617
 13 H s       :     0.889146  s :     0.889146
 14 H s       :     0.884484  s :     0.884484
 15 H s       :     0.869607  s :     0.869607
 16 H s       :     0.875702  s :     0.875702
 17 H s       :     0.876071  s :     0.876071
 18 H s       :     0.690472  s :     0.690472
 19 H s       :     0.869734  s :     0.869734
 20 H s       :     0.889054  s :     0.889054
 21 H s       :     0.683653  s :     0.683653
 22 H s       :     0.677816  s :     0.677816
 23 H s       :     0.895940  s :     0.895940
 24 H s       :     0.894771  s :     0.894771
 25 H s       :     0.874066  s :     0.874066


                      *****************************
                      * MAYER POPULATION ANALYSIS *
                      *****************************

  NA   - Mulliken gross atomic population
  ZA   - Total nuclear charge
  QA   - Mulliken gross atomic charge
  VA   - Mayer's total valence
  BVA  - Mayer's bonded valence
  FA   - Mayer's free valence

  ATOM       NA         ZA         QA         VA         BVA        FA
  0 C      6.1796     6.0000    -0.1796     3.7392     3.7392     0.0000
  1 C      5.9777     6.0000     0.0223     3.7205     3.7205     0.0000
  2 C      5.9774     6.0000     0.0226     3.6330     3.6330     0.0000
  3 C      6.0361     6.0000    -0.0361     3.6589     3.6589     0.0000
  4 C      6.0036     6.0000    -0.0036     3.7717     3.7717     0.0000
  5 O      8.6498     8.0000    -0.6498     1.8441     1.8441     0.0000
  6 C      6.1667     6.0000    -0.1667     3.6738     3.6738     0.0000
  7 O      8.6532     8.0000    -0.6532     1.8433     1.8433     0.0000
  8 O      8.4818     8.0000    -0.4818     1.9744     1.9744     0.0000
  9 O      8.6727     8.0000    -0.6727     1.8472     1.8472     0.0000
 10 O      8.4947     8.0000    -0.4947     1.9940     1.9940     0.0000
 11 C      6.3738     6.0000    -0.3738     3.7247     3.7247    -0.0000
 12 H      0.7724     1.0000     0.2276     0.9052     0.9052     0.0000
 13 H      0.8086     1.0000     0.1914     0.9070     0.9070    -0.0000
 14 H      0.7911     1.0000     0.2089     0.8975     0.8975     0.0000
 15 H      0.7676     1.0000     0.2324     0.9023     0.9023    -0.0000
 16 H      0.7650     1.0000     0.2350     0.9059     0.9059    -0.0000
 17 H      0.7760     1.0000     0.2240     0.9065     0.9065     0.0000
 18 H      0.5613     1.0000     0.4387     0.8136     0.8136     0.0000
 19 H      0.7691     1.0000     0.2309     0.9102     0.9102    -0.0000
 20 H      0.8036     1.0000     0.1964     0.9088     0.9088    -0.0000
 21 H      0.5716     1.0000     0.4284     0.7934     0.7934     0.0000
 22 H      0.5574     1.0000     0.4426     0.7980     0.7980    -0.0000
 23 H      0.8064     1.0000     0.1936     0.9122     0.9122    -0.0000
 24 H      0.8077     1.0000     0.1923     0.9149     0.9149     0.0000
 25 H      0.7753     1.0000     0.2247     0.9147     0.9147    -0.0000

  Mayer bond orders larger than 0.100000
B(  0-C ,  1-C ) :   0.9738 B(  0-C ,  7-O ) :   0.9930 B(  0-C , 12-H ) :   0.8888 
B(  0-C , 13-H ) :   0.8978 B(  1-C ,  2-C ) :   0.9161 B(  1-C ,  9-O ) :   0.9555 
B(  1-C , 14-H ) :   0.8929 B(  2-C ,  3-C ) :   0.9404 B(  2-C , 10-O ) :   0.9582 
B(  2-C , 15-H ) :   0.8907 B(  3-C ,  4-C ) :   0.9140 B(  3-C ,  8-O ) :   0.9267 
B(  3-C , 16-H ) :   0.8896 B(  4-C ,  5-O ) :   1.0466 B(  4-C ,  6-C ) :   0.9300 
B(  4-C , 17-H ) :   0.9066 B(  5-O , 18-H ) :   0.7187 B(  6-C , 10-O ) :   0.9573 
B(  6-C , 19-H ) :   0.9157 B(  6-C , 20-H ) :   0.8967 B(  7-O , 21-H ) :   0.7843 
B(  8-O , 11-C ) :   0.9689 B(  9-O , 22-H ) :   0.7482 B( 11-C , 23-H ) :   0.9081 
B( 11-C , 24-H ) :   0.9133 B( 11-C , 25-H ) :   0.9285 

-------
TIMINGS
-------

Total SCF time: 0 days 0 hours 2 min 42 sec 

Total time                  ....     162.430 sec
Sum of individual times     ....     157.162 sec  ( 96.8%)

Fock matrix formation       ....     136.400 sec  ( 84.0%)
  Split-RI-J                ....      11.126 sec  (  8.2% of F)
  Chain of spheres X        ....      84.277 sec  ( 61.8% of F)
  XC integration            ....      28.076 sec  ( 20.6% of F)
    Basis function eval.    ....       7.582 sec  ( 27.0% of XC)
    Density eval.           ....       4.337 sec  ( 15.4% of XC)
    XC-Functional eval.     ....       2.103 sec  (  7.5% of XC)
    XC-Potential eval.      ....       2.798 sec  ( 10.0% of XC)
Diagonalization             ....       2.304 sec  (  1.4%)
Density matrix formation    ....       0.542 sec  (  0.3%)
Population analysis         ....       0.039 sec  (  0.0%)
Initial guess               ....       0.146 sec  (  0.1%)
Orbital Transformation      ....       0.000 sec  (  0.0%)
Orbital Orthonormalization  ....       0.000 sec  (  0.0%)
DIIS solution               ....       4.088 sec  (  2.5%)
SOSCF solution              ....       0.480 sec  (  0.3%)
Grid generation             ....      13.161 sec  (  8.1%)

Maximum memory used throughout the entire SCF-calculation: 70.9 MB


-------------------------------------------------------------------------------
                          DFT DISPERSION CORRECTION                            
                                                                               
                              DFTD3 V3.1  Rev 1                                
                          USING Becke-Johnson damping                          
-------------------------------------------------------------------------------
The PBEh-3c composite method is recognized
Using three-body term ABC
Active option DFTDOPT                   ...         4   

molecular C6(AA) [au] = 4932.512010 


            DFT-D V3
 parameters
 s6 scaling factor         :     1.0000 
 a1 scaling factor         :     0.4860 
 s8 scaling factor         :     0.0000 
 a2 scaling factor         :     4.5000 
 Damping factor alpha9(ATM):    16.0000 
 ad hoc parameters k1-k3   :    16.0000     1.3333    -4.0000 

 Edisp/kcal,au: -9.010454679378  -0.014359071999 
 E6   /kcal   :  -9.099906655 
 E8   /kcal   :  -0.000000000 
 E6(ABC)      :   0.089451975 
 % E8         :   0.000000000 
 % E6(ABC)    :  -0.992757620 

-------------------------   ----------------
Dispersion correction           -0.014359072
-------------------------   ----------------

------------------   -----------------
gCP correction             0.089384653
------------------   -----------------

-------------------------   --------------------
FINAL SINGLE POINT ENERGY      -649.851107543503
-------------------------   --------------------


                            ***************************************
                            *     ORCA property calculations      *
                            ***************************************

                                    ---------------------
                                    Active property flags
                                    ---------------------
   (+) Dipole Moment


------------------------------------------------------------------------------
                       ORCA ELECTRIC PROPERTIES CALCULATION
------------------------------------------------------------------------------

Dipole Moment Calculation                       ... on
Quadrupole Moment Calculation                   ... off
Polarizability Calculation                      ... off
GBWName                                         ... pbeh-3c.gbw
Electron density                                ... pbeh-3c.scfp
The origin for moment calculation is the CENTER OF MASS  = ( 0.262194,  0.233076 -0.045874)

-------------
DIPOLE MOMENT
-------------
                                X             Y             Z
Electronic contribution:      3.51809       2.36324       0.02084
Nuclear contribution   :     -2.88718      -2.92754       0.25919
                        -----------------------------------------
Total Dipole Moment    :      0.63091      -0.56430       0.28003
                        -----------------------------------------
Magnitude (a.u.)       :      0.89157
Magnitude (Debye)      :      2.26619



--------------------
Rotational spectrum 
--------------------
 
Rotational constants in cm-1:     0.049179     0.019453     0.017849 
Rotational constants in MHz :  1474.353317   583.172252   535.103697 

 Dipole components along the rotational axes: 
x,y,z [a.u.] :    -0.634966     0.571676    -0.254762 
x,y,z [Debye]:    -1.613956     1.453084    -0.647552 

 

Timings for individual modules:

Sum of individual times         ...      166.372 sec (=   2.773 min)
GTO integral calculation        ...        3.496 sec (=   0.058 min)   2.1 %
SCF iterations                  ...      162.876 sec (=   2.715 min)  97.9 %
                             ****ORCA TERMINATED NORMALLY****
TOTAL RUN TIME: 0 days 0 hours 2 minutes 48 seconds 460 msec
