
                                 *****************
                                 * O   R   C   A *
                                 *****************

                                            #,                                       
                                            ###                                      
                                            ####                                     
                                            #####                                    
                                            ######                                   
                                           ########,                                 
                                     ,,################,,,,,                         
                               ,,#################################,,                 
                          ,,##########################################,,             
                       ,#########################################, ''#####,          
                    ,#############################################,,   '####,        
                  ,##################################################,,,,####,       
                ,###########''''           ''''###############################       
              ,#####''   ,,,,##########,,,,          '''####'''          '####       
            ,##' ,,,,###########################,,,                        '##       
           ' ,,###''''                  '''############,,,                           
         ,,##''                                '''############,,,,        ,,,,,,###''
      ,#''                                            '''#######################'''  
     '                                                          ''''####''''         
             ,#######,   #######,   ,#######,      ##                                
            ,#'     '#,  ##    ##  ,#'     '#,    #''#        ######   ,####,        
            ##       ##  ##   ,#'  ##            #'  '#       #        #'  '#        
            ##       ##  #######   ##           ,######,      #####,   #    #        
            '#,     ,#'  ##    ##  '#,     ,#' ,#      #,         ##   #,  ,#        
             '#######'   ##     ##  '#######'  #'      '#     #####' # '####'        



                  #######################################################
                  #                        -***-                        #
                  #          Department of theory and spectroscopy      #
                  #    Directorship and core code : Frank Neese         #
                  #        Max Planck Institute fuer Kohlenforschung    #
                  #                Kaiser Wilhelm Platz 1               #
                  #                 D-45470 Muelheim/Ruhr               #
                  #                      Germany                        #
                  #                                                     #
                  #                  All rights reserved                #
                  #                        -***-                        #
                  #######################################################


                         Program Version 5.0.3 -  RELEASE  -


 With contributions from (in alphabetic order):
   Daniel Aravena         : Magnetic Suceptibility
   Michael Atanasov       : Ab Initio Ligand Field Theory (pilot matlab implementation)
   Alexander A. Auer      : GIAO ZORA, VPT2 properties, NMR spectrum
   Ute Becker             : Parallelization
   Giovanni Bistoni       : ED, misc. LED, open-shell LED, HFLD
   Martin Brehm           : Molecular dynamics
   Dmytro Bykov           : SCF Hessian
   Vijay G. Chilkuri      : MRCI spin determinant printing, contributions to CSF-ICE
   Dipayan Datta          : RHF DLPNO-CCSD density
   Achintya Kumar Dutta   : EOM-CC, STEOM-CC
   Dmitry Ganyushin       : Spin-Orbit,Spin-Spin,Magnetic field MRCI
   Miquel Garcia          : C-PCM and meta-GGA Hessian, CC/C-PCM, Gaussian charge scheme
   Yang Guo               : DLPNO-NEVPT2, F12-NEVPT2, CIM, IAO-localization
   Andreas Hansen         : Spin unrestricted coupled pair/coupled cluster methods
   Benjamin Helmich-Paris : MC-RPA, TRAH-SCF, COSX integrals
   Lee Huntington         : MR-EOM, pCC
   Robert Izsak           : Overlap fitted RIJCOSX, COSX-SCS-MP3, EOM
   Marcus Kettner         : VPT2
   Christian Kollmar      : KDIIS, OOCD, Brueckner-CCSD(T), CCSD density, CASPT2, CASPT2-K
   Simone Kossmann        : Meta GGA functionals, TD-DFT gradient, OOMP2, MP2 Hessian
   Martin Krupicka        : Initial AUTO-CI
   Lucas Lang             : DCDCAS
   Marvin Lechner         : AUTO-CI (C++ implementation), FIC-MRCC
   Dagmar Lenk            : GEPOL surface, SMD
   Dimitrios Liakos       : Extrapolation schemes; Compound Job, initial MDCI parallelization
   Dimitrios Manganas     : Further ROCIS development; embedding schemes
   Dimitrios Pantazis     : SARC Basis sets
   Anastasios Papadopoulos: AUTO-CI, single reference methods and gradients
   Taras Petrenko         : DFT Hessian,TD-DFT gradient, ASA, ECA, R-Raman, ABS, FL, XAS/XES, NRVS
   Peter Pinski           : DLPNO-MP2, DLPNO-MP2 Gradient
   Christoph Reimann      : Effective Core Potentials
   Marius Retegan         : Local ZFS, SOC
   Christoph Riplinger    : Optimizer, TS searches, QM/MM, DLPNO-CCSD(T), (RO)-DLPNO pert. Triples
   Tobias Risthaus        : Range-separated hybrids, TD-DFT gradient, RPA, STAB
   Michael Roemelt        : Original ROCIS implementation
   Masaaki Saitow         : Open-shell DLPNO-CCSD energy and density
   Barbara Sandhoefer     : DKH picture change effects
   Avijit Sen             : IP-ROCIS
   Kantharuban Sivalingam : CASSCF convergence, NEVPT2, FIC-MRCI
   Bernardo de Souza      : ESD, SOC TD-DFT
   Georgi Stoychev        : AutoAux, RI-MP2 NMR, DLPNO-MP2 response
   Willem Van den Heuvel  : Paramagnetic NMR
   Boris Wezisla          : Elementary symmetry handling
   Frank Wennmohs         : Technical directorship


 We gratefully acknowledge several colleagues who have allowed us to
 interface, adapt or use parts of their codes:
   Stefan Grimme, W. Hujo, H. Kruse, P. Pracht,  : VdW corrections, initial TS optimization,
                  C. Bannwarth, S. Ehlert          DFT functionals, gCP, sTDA/sTD-DF
   Ed Valeev, F. Pavosevic, A. Kumar             : LibInt (2-el integral package), F12 methods
   Garnet Chan, S. Sharma, J. Yang, R. Olivares  : DMRG
   Ulf Ekstrom                                   : XCFun DFT Library
   Mihaly Kallay                                 : mrcc  (arbitrary order and MRCC methods)
   Jiri Pittner, Ondrej Demel                    : Mk-CCSD
   Frank Weinhold                                : gennbo (NPA and NBO analysis)
   Christopher J. Cramer and Donald G. Truhlar   : smd solvation model
   Lars Goerigk                                  : TD-DFT with DH, B97 family of functionals
   V. Asgeirsson, H. Jonsson                     : NEB implementation
   FAccTs GmbH                                   : IRC, NEB, NEB-TS, DLPNO-Multilevel, CI-OPT
                                                   MM, QMMM, 2- and 3-layer-ONIOM, Crystal-QMMM,
                                                   LR-CPCM, SF, NACMEs, symmetry and pop. for TD-DFT,
                                                   nearIR, NL-DFT gradient (VV10), updates on ESD,
                                                   ML-optimized integration grids
   S Lehtola, MJT Oliveira, MAL Marques          : LibXC Library
   Liviu Ungur et al                             : ANISO software


 Your calculation uses the libint2 library for the computation of 2-el integrals
 For citations please refer to: http://libint.valeyev.net

 Your ORCA version has been built with support for libXC version: 5.1.0
 For citations please refer to: https://tddft.org/programs/libxc/

 This ORCA versions uses:
   CBLAS   interface :  Fast vector & matrix operations
   LAPACKE interface :  Fast linear algebra routines
   SCALAPACK package :  Parallel linear algebra routines
   Shared memory     :  Shared parallel matrices
   BLAS/LAPACK       :  OpenBLAS 0.3.15  USE64BITINT DYNAMIC_ARCH NO_AFFINITY Haswell SINGLE_THREADED
        Core in use  :  Haswell
   Copyright (c) 2011-2014, The OpenBLAS Project




***************************************
The coordinates will be read from file: AD7.xyz
***************************************


Your calculation utilizes the geometrical counterpoise correction gCP
Please cite in your paper:
H.Kruse, S. Grimme J.Chem.Phys., 136, (2012), 154101 
   

Your calculation utilizes the atom-pairwise dispersion correction
with the Becke-Johnson damping scheme (D3BJ)
Cite in your paper:
S.Grimme, S.Ehrlich, L.Goerigk, J Comput Chem, (2011), 32, 1456–1465 
S.Grimme, J.Antony, S.Ehrlich and H.Krieg, J.Chem.Phys., 132, (2010), 154104 
   

Your calculation employs the composite approach PBEh-3c.
Please cite in your paper:
S. Grimme, J. G. Brandenburg, C. Bannwarth, A. Hansen J.Chem.Phys., 143, (2015), 054107 
   

================================================================================

----- Orbital basis set information -----
Your calculation utilizes the basis: def2-mSVP

----- AuxJ basis set information -----
Your calculation utilizes the auxiliary basis: def2/J
   F. Weigend, Phys. Chem. Chem. Phys. 8, 1057 (2006).

================================================================================
                                        WARNINGS
                       Please study these warnings very carefully!
================================================================================


INFO   : the flag for use of the SHARK integral package has been found!

================================================================================
                                       INPUT FILE
================================================================================
NAME = pbeh-3c.inp
|  1> ! PBEh-3c def2/J TightSCF DefGrid3
|  2> 
|  3> %maxcore 60000
|  4> 
|  5> %pal
|  6> nprocs 4
|  7> end
|  8> 
|  9> *xyzfile 0 1 AD7.xyz
| 10> 
| 11>                          ****END OF INPUT****
================================================================================

                       ****************************
                       * Single Point Calculation *
                       ****************************

---------------------------------
CARTESIAN COORDINATES (ANGSTROEM)
---------------------------------
  C     -1.909877    0.090593    0.000000
  C     -1.909877   -0.749523    1.275258
  C     -1.909877   -0.749523   -1.275258
  C     -1.909877    0.089113    2.551380
  C     -1.909877    0.089113   -2.551380
  C     -1.909877   -0.761592    3.818785
  C     -1.909877   -0.761592   -3.818785
  H     -1.031014    0.749629    0.000000
  H     -2.788742    0.749629    0.000000
  H     -1.031086   -1.408761    1.275653
  H     -2.788670   -1.408761    1.275653
  H     -1.031086   -1.408761   -1.275653
  H     -2.788670   -1.408761   -1.275653
  H     -1.031854    0.747185    2.549277
  H     -2.787902    0.747185    2.549277
  H     -1.031854    0.747185   -2.549277
  H     -2.787902    0.747185   -2.549277
  H     -1.025826   -1.405785    3.855216
  H     -2.793930   -1.405785    3.855216
  H     -1.909877   -0.139913    4.719020
  H     -1.025826   -1.405785   -3.855216
  H     -2.793930   -1.405785   -3.855216
  H     -1.909877   -0.139913   -4.719020
  C      1.909877   -0.090593    0.000000
  C      1.909877    0.749523   -1.275258
  C      1.909877    0.749523    1.275258
  C      1.909877   -0.089113   -2.551380
  C      1.909877   -0.089113    2.551380
  C      1.909877    0.761592   -3.818785
  C      1.909877    0.761592    3.818785
  H      2.788742   -0.749629    0.000000
  H      1.031014   -0.749629    0.000000
  H      2.788670    1.408761   -1.275653
  H      1.031086    1.408761   -1.275653
  H      2.788670    1.408761    1.275653
  H      1.031086    1.408761    1.275653
  H      2.787902   -0.747185   -2.549277
  H      1.031854   -0.747185   -2.549277
  H      2.787902   -0.747185    2.549277
  H      1.031854   -0.747185    2.549277
  H      2.793930    1.405785   -3.855216
  H      1.025826    1.405785   -3.855216
  H      1.909877    0.139913   -4.719020
  H      2.793930    1.405785    3.855216
  H      1.025826    1.405785    3.855216
  H      1.909877    0.139913    4.719020

----------------------------
CARTESIAN COORDINATES (A.U.)
----------------------------
  NO LB      ZA    FRAG     MASS         X           Y           Z
   0 C     6.0000    0    12.011   -3.609145    0.171196    0.000000
   1 C     6.0000    0    12.011   -3.609145   -1.416394    2.409889
   2 C     6.0000    0    12.011   -3.609145   -1.416394   -2.409889
   3 C     6.0000    0    12.011   -3.609145    0.168399    4.821409
   4 C     6.0000    0    12.011   -3.609145    0.168399   -4.821409
   5 C     6.0000    0    12.011   -3.609145   -1.439201    7.216458
   6 C     6.0000    0    12.011   -3.609145   -1.439201   -7.216458
   7 H     1.0000    0     1.008   -1.948335    1.416594    0.000000
   8 H     1.0000    0     1.008   -5.269958    1.416594    0.000000
   9 H     1.0000    0     1.008   -1.948471   -2.662173    2.410636
  10 H     1.0000    0     1.008   -5.269822   -2.662173    2.410636
  11 H     1.0000    0     1.008   -1.948471   -2.662173   -2.410636
  12 H     1.0000    0     1.008   -5.269822   -2.662173   -2.410636
  13 H     1.0000    0     1.008   -1.949922    1.411975    4.817435
  14 H     1.0000    0     1.008   -5.268371    1.411975    4.817435
  15 H     1.0000    0     1.008   -1.949922    1.411975   -4.817435
  16 H     1.0000    0     1.008   -5.268371    1.411975   -4.817435
  17 H     1.0000    0     1.008   -1.938531   -2.656549    7.285303
  18 H     1.0000    0     1.008   -5.279762   -2.656549    7.285303
  19 H     1.0000    0     1.008   -3.609145   -0.264397    8.917656
  20 H     1.0000    0     1.008   -1.938531   -2.656549   -7.285303
  21 H     1.0000    0     1.008   -5.279762   -2.656549   -7.285303
  22 H     1.0000    0     1.008   -3.609145   -0.264397   -8.917656
  23 C     6.0000    0    12.011    3.609145   -0.171196    0.000000
  24 C     6.0000    0    12.011    3.609145    1.416394   -2.409889
  25 C     6.0000    0    12.011    3.609145    1.416394    2.409889
  26 C     6.0000    0    12.011    3.609145   -0.168399   -4.821409
  27 C     6.0000    0    12.011    3.609145   -0.168399    4.821409
  28 C     6.0000    0    12.011    3.609145    1.439201   -7.216458
  29 C     6.0000    0    12.011    3.609145    1.439201    7.216458
  30 H     1.0000    0     1.008    5.269958   -1.416594    0.000000
  31 H     1.0000    0     1.008    1.948335   -1.416594    0.000000
  32 H     1.0000    0     1.008    5.269822    2.662173   -2.410636
  33 H     1.0000    0     1.008    1.948471    2.662173   -2.410636
  34 H     1.0000    0     1.008    5.269822    2.662173    2.410636
  35 H     1.0000    0     1.008    1.948471    2.662173    2.410636
  36 H     1.0000    0     1.008    5.268371   -1.411975   -4.817435
  37 H     1.0000    0     1.008    1.949922   -1.411975   -4.817435
  38 H     1.0000    0     1.008    5.268371   -1.411975    4.817435
  39 H     1.0000    0     1.008    1.949922   -1.411975    4.817435
  40 H     1.0000    0     1.008    5.279762    2.656549   -7.285303
  41 H     1.0000    0     1.008    1.938531    2.656549   -7.285303
  42 H     1.0000    0     1.008    3.609145    0.264397   -8.917656
  43 H     1.0000    0     1.008    5.279762    2.656549    7.285303
  44 H     1.0000    0     1.008    1.938531    2.656549    7.285303
  45 H     1.0000    0     1.008    3.609145    0.264397    8.917656

--------------------------------
INTERNAL COORDINATES (ANGSTROEM)
--------------------------------
 C      0   0   0     0.000000000000     0.00000000     0.00000000
 C      1   0   0     1.527114670309     0.00000000     0.00000000
 C      1   2   0     1.527114670309   113.24772214     0.00000000
 C      2   1   3     1.527022019574   113.31190690   180.00000000
 C      3   1   2     1.527022019574   113.31190690   180.00000000
 C      4   2   1     1.526438922871   112.81782642   180.00000000
 C      5   3   1     1.526438922871   112.81782642   180.00000000
 H      1   2   3     1.098512283602   109.27145633   237.94511442
 H      1   2   3     1.098513163656   109.27144028   122.05485333
 H      2   1   3     1.098575957120   109.29466138    57.94527976
 H      2   1   3     1.098576837050   109.29464532   302.05468798
 H      3   1   2     1.098575957120   109.29466138   302.05472024
 H      3   1   2     1.098576837050   109.29464532    57.94531202
 H      4   2   1     1.097263953094   109.13368573   302.11490035
 H      4   2   1     1.097264833307   109.13366978    57.88513197
 H      5   3   1     1.097263953094   109.13368573    57.88509965
 H      5   3   1     1.097264833307   109.13366978   302.11486803
 H      6   4   2     1.094467277222   110.83435598    59.79799721
 H      6   4   2     1.094468165742   110.83433828   300.20197180
 H      6   4   2     1.094033108746   111.50182320   180.00000085
 H      7   5   3     1.094467277222   110.83435598   300.20200279
 H      7   5   3     1.094468165742   110.83433828    59.79802820
 H      7   5   3     1.094033108746   111.50182320   180.00000085
 C      8   1   2     3.058564683750   127.18993359    62.20821662
 C     24   8   1     1.527114670309    81.30771352   122.35162982
 C     24   8   1     1.527114670309    81.30771352   237.64837018
 C     25  24   8     1.527022019574   113.31190690   256.58099359
 C     26  24   8     1.527022019574   113.31190690   103.41900641
 C     27  25  24     1.526438922871   112.81782642   180.00000000
 C     28  26  24     1.526438922871   112.81782642   180.00000000
 H     24   8   1     1.098513163656   159.07958542     0.00000000
 H     24   8   1     1.098512283602    52.81006641     0.00000000
 H     25  24   8     1.098576837050   109.29464532   134.52630561
 H     25  24   8     1.098575957120   109.29466138    18.63571383
 H     26  24   8     1.098576837050   109.29464532   225.47369439
 H     26  24   8     1.098575957120   109.29466138   341.36428617
 H     27  25  24     1.097264833307   109.13366978   302.11486803
 H     27  25  24     1.097263953094   109.13368573    57.88509965
 H     28  26  24     1.097264833307   109.13366978    57.88513197
 H     28  26  24     1.097263953094   109.13368573   302.11490035
 H     29  27  25     1.094468165742   110.83433828    59.79802820
 H     29  27  25     1.094467277222   110.83435598   300.20200279
 H     29  27  25     1.094033108746   111.50182320   180.00000085
 H     30  28  26     1.094468165742   110.83433828   300.20197180
 H     30  28  26     1.094467277222   110.83435598    59.79799721
 H     30  28  26     1.094033108746   111.50182320   180.00000085

---------------------------
INTERNAL COORDINATES (A.U.)
---------------------------
 C      0   0   0     0.000000000000     0.00000000     0.00000000
 C      1   0   0     2.885828501977     0.00000000     0.00000000
 C      1   2   0     2.885828501977   113.24772214     0.00000000
 C      2   1   3     2.885653417462   113.31190690   180.00000000
 C      3   1   2     2.885653417462   113.31190690   180.00000000
 C      4   2   1     2.884551524384   112.81782642   180.00000000
 C      5   3   1     2.884551524384   112.81782642   180.00000000
 H      1   2   3     2.075887370756   109.27145633   237.94511442
 H      1   2   3     2.075889033817   109.27144028   122.05485333
 H      2   1   3     2.076007696267   109.29466138    57.94527976
 H      2   1   3     2.076009359095   109.29464532   302.05468798
 H      3   1   2     2.076007696267   109.29466138   302.05472024
 H      3   1   2     2.076009359095   109.29464532    57.94531202
 H      4   2   1     2.073528367972   109.13368573   302.11490035
 H      4   2   1     2.073530031333   109.13366978    57.88513197
 H      5   3   1     2.073528367972   109.13368573    57.88509965
 H      5   3   1     2.073530031333   109.13366978   302.11486803
 H      6   4   2     2.068243416487   110.83435598    59.79799721
 H      6   4   2     2.068245095547   110.83433828   300.20197180
 H      6   4   2     2.067422956972   111.50182320   180.00000085
 H      7   5   3     2.068243416487   110.83435598   300.20200279
 H      7   5   3     2.068245095547   110.83433828    59.79802820
 H      7   5   3     2.067422956972   111.50182320   180.00000085
 C      8   1   2     5.779849615170   127.18993359    62.20821662
 C     24   8   1     2.885828501977    81.30771352   122.35162982
 C     24   8   1     2.885828501977    81.30771352   237.64837018
 C     25  24   8     2.885653417462   113.31190690   256.58099359
 C     26  24   8     2.885653417462   113.31190690   103.41900641
 C     27  25  24     2.884551524384   112.81782642   180.00000000
 C     28  26  24     2.884551524384   112.81782642   180.00000000
 H     24   8   1     2.075889033817   159.07958542     0.00000000
 H     24   8   1     2.075887370756    52.81006641     0.00000000
 H     25  24   8     2.076009359095   109.29464532   134.52630561
 H     25  24   8     2.076007696267   109.29466138    18.63571383
 H     26  24   8     2.076009359095   109.29464532   225.47369439
 H     26  24   8     2.076007696267   109.29466138   341.36428617
 H     27  25  24     2.073530031333   109.13366978   302.11486803
 H     27  25  24     2.073528367972   109.13368573    57.88509965
 H     28  26  24     2.073530031333   109.13366978    57.88513197
 H     28  26  24     2.073528367972   109.13368573   302.11490035
 H     29  27  25     2.068245095547   110.83433828    59.79802820
 H     29  27  25     2.068243416487   110.83435598   300.20200279
 H     29  27  25     2.067422956972   111.50182320   180.00000085
 H     30  28  26     2.068245095547   110.83433828   300.20197180
 H     30  28  26     2.068243416487   110.83435598    59.79799721
 H     30  28  26     2.067422956972   111.50182320   180.00000085

---------------------
BASIS SET INFORMATION
---------------------
There are 2 groups of distinct atoms

 Group   1 Type C   : 8s4p1d contracted to 4s2p1d pattern {5111/31/1}
 Group   2 Type H   : 4s contracted to 2s pattern {31}

Atom   0C    basis set group =>   1
Atom   1C    basis set group =>   1
Atom   2C    basis set group =>   1
Atom   3C    basis set group =>   1
Atom   4C    basis set group =>   1
Atom   5C    basis set group =>   1
Atom   6C    basis set group =>   1
Atom   7H    basis set group =>   2
Atom   8H    basis set group =>   2
Atom   9H    basis set group =>   2
Atom  10H    basis set group =>   2
Atom  11H    basis set group =>   2
Atom  12H    basis set group =>   2
Atom  13H    basis set group =>   2
Atom  14H    basis set group =>   2
Atom  15H    basis set group =>   2
Atom  16H    basis set group =>   2
Atom  17H    basis set group =>   2
Atom  18H    basis set group =>   2
Atom  19H    basis set group =>   2
Atom  20H    basis set group =>   2
Atom  21H    basis set group =>   2
Atom  22H    basis set group =>   2
Atom  23C    basis set group =>   1
Atom  24C    basis set group =>   1
Atom  25C    basis set group =>   1
Atom  26C    basis set group =>   1
Atom  27C    basis set group =>   1
Atom  28C    basis set group =>   1
Atom  29C    basis set group =>   1
Atom  30H    basis set group =>   2
Atom  31H    basis set group =>   2
Atom  32H    basis set group =>   2
Atom  33H    basis set group =>   2
Atom  34H    basis set group =>   2
Atom  35H    basis set group =>   2
Atom  36H    basis set group =>   2
Atom  37H    basis set group =>   2
Atom  38H    basis set group =>   2
Atom  39H    basis set group =>   2
Atom  40H    basis set group =>   2
Atom  41H    basis set group =>   2
Atom  42H    basis set group =>   2
Atom  43H    basis set group =>   2
Atom  44H    basis set group =>   2
Atom  45H    basis set group =>   2
---------------------------------
AUXILIARY/J BASIS SET INFORMATION
---------------------------------
There are 2 groups of distinct atoms

 Group   1 Type C   : 12s5p4d2f1g contracted to 6s4p3d1f1g pattern {711111/2111/211/2/1}
 Group   2 Type H   : 5s2p1d contracted to 3s1p1d pattern {311/2/1}

Atom   0C    basis set group =>   1
Atom   1C    basis set group =>   1
Atom   2C    basis set group =>   1
Atom   3C    basis set group =>   1
Atom   4C    basis set group =>   1
Atom   5C    basis set group =>   1
Atom   6C    basis set group =>   1
Atom   7H    basis set group =>   2
Atom   8H    basis set group =>   2
Atom   9H    basis set group =>   2
Atom  10H    basis set group =>   2
Atom  11H    basis set group =>   2
Atom  12H    basis set group =>   2
Atom  13H    basis set group =>   2
Atom  14H    basis set group =>   2
Atom  15H    basis set group =>   2
Atom  16H    basis set group =>   2
Atom  17H    basis set group =>   2
Atom  18H    basis set group =>   2
Atom  19H    basis set group =>   2
Atom  20H    basis set group =>   2
Atom  21H    basis set group =>   2
Atom  22H    basis set group =>   2
Atom  23C    basis set group =>   1
Atom  24C    basis set group =>   1
Atom  25C    basis set group =>   1
Atom  26C    basis set group =>   1
Atom  27C    basis set group =>   1
Atom  28C    basis set group =>   1
Atom  29C    basis set group =>   1
Atom  30H    basis set group =>   2
Atom  31H    basis set group =>   2
Atom  32H    basis set group =>   2
Atom  33H    basis set group =>   2
Atom  34H    basis set group =>   2
Atom  35H    basis set group =>   2
Atom  36H    basis set group =>   2
Atom  37H    basis set group =>   2
Atom  38H    basis set group =>   2
Atom  39H    basis set group =>   2
Atom  40H    basis set group =>   2
Atom  41H    basis set group =>   2
Atom  42H    basis set group =>   2
Atom  43H    basis set group =>   2
Atom  44H    basis set group =>   2
Atom  45H    basis set group =>   2


           ************************************************************
           *        Program running with 4 parallel MPI-processes     *
           *              working on a common directory               *
           ************************************************************
------------------------------------------------------------------------------
                           ORCA GTO INTEGRAL CALCULATION
                           -- RI-GTO INTEGRALS CHOSEN --
------------------------------------------------------------------------------
------------------------------------------------------------------------------
                   ___                                                        
                  /   \      - P O W E R E D   B Y -                         
                 /     \                                                     
                 |  |  |   _    _      __       _____    __    __             
                 |  |  |  | |  | |    /  \     |  _  \  |  |  /  |          
                  \  \/   | |  | |   /    \    | | | |  |  | /  /          
                 / \  \   | |__| |  /  /\  \   | |_| |  |  |/  /          
                |  |  |   |  __  | /  /__\  \  |    /   |      \           
                |  |  |   | |  | | |   __   |  |    \   |  |\   \          
                \     /   | |  | | |  |  |  |  | |\  \  |  | \   \       
                 \___/    |_|  |_| |__|  |__|  |_| \__\ |__|  \__/        
                                                                              
                      - O R C A' S   B I G   F R I E N D -                    
                                      &                                       
                       - I N T E G R A L  F E E D E R -                       
                                                                              
 v1 FN, 2020, v2 2021                                                         
------------------------------------------------------------------------------


Reading SHARK input file pbeh-3c.SHARKINP.tmp ... ok
----------------------
SHARK INTEGRAL PACKAGE
----------------------

Number of atoms                             ...     46
Number of basis functions                   ...    274
Number of shells                            ...    162
Maximum angular momentum                    ...      2
Integral batch strategy                     ... SHARK/LIBINT Hybrid
RI-J (if used) integral strategy            ... SPLIT-RIJ (Revised 2003 algorithm where possible)
Printlevel                                  ...      1
Contraction scheme used                     ... SEGMENTED contraction
Coulomb Range Separation                    ... NOT USED
Exchange Range Separation                   ... NOT USED
Finite Nucleus Model                        ... NOT USED
Auxiliary Coulomb fitting basis             ... AVAILABLE
   # of basis functions in Aux-J            ...   1038
   # of shells in Aux-J                     ...    370
   Maximum angular momentum in Aux-J        ...      4
Auxiliary J/K fitting basis                 ... NOT available
Auxiliary Correlation fitting basis         ... NOT available
Auxiliary 'external' fitting basis          ... NOT available
Integral threshold                          ...     2.500000e-11
Primitive cut-off                           ...     2.500000e-12
Primitive pair pre-selection threshold      ...     2.500000e-12

Calculating pre-screening integrals         ... done (  0.1 sec) Dimension = 162
Organizing shell pair data                  ... done (  0.6 sec)
Shell pair information
Total number of shell pairs                 ...     13203
Shell pairs after pre-screening             ...      9830
Total number of primitive shell pairs       ...     48483
Primitive shell pairs kept                  ...     22562
          la=0 lb=0:   5139 shell pairs
          la=1 lb=0:   2812 shell pairs
          la=1 lb=1:    384 shell pairs
          la=2 lb=0:   1092 shell pairs
          la=2 lb=1:    336 shell pairs
          la=2 lb=2:     67 shell pairs

Calculating one electron integrals          ... done (  0.2 sec)
Calculating RI/J V-Matrix + Cholesky decomp.... done (  0.8 sec)
Calculating Nuclear repulsion               ... done (  0.2 sec) ENN=    973.508794940709 Eh

SHARK setup successfully completed in   3.5 seconds

Maximum memory used throughout the entire GTOINT-calculation: 19.5 MB


           ************************************************************
           *        Program running with 4 parallel MPI-processes     *
           *              working on a common directory               *
           ************************************************************
-------------------------------------------------------------------------------
                                 ORCA SCF
-------------------------------------------------------------------------------

------------
SCF SETTINGS
------------
Hamiltonian:
 Density Functional     Method          .... DFT(GTOs)
 Exchange Functional    Exchange        .... PBE
   PBE kappa parameter   XKappa         ....  1.024500
   PBE mue parameter    XMuePBE         ....  0.123457
 Correlation Functional Correlation     .... PBE
   PBE beta parameter  CBetaPBE         ....  0.030000
 LDA part of GGA corr.  LDAOpt          .... PW91-LDA
 Gradients option       PostSCFGGA      .... off
 Hybrid DFT is turned on
   Fraction HF Exchange ScalHFX         ....  0.420000
   Scaling of DF-GGA-X  ScalDFX         ....  0.580000
   Scaling of DF-GGA-C  ScalDFC         ....  1.000000
   Scaling of DF-LDA-C  ScalLDAC        ....  1.000000
   Perturbative correction              ....  0.000000
   Density functional embedding theory  .... OFF
 RI-approximation to the Coulomb term is turned on
   Number of AuxJ basis functions       .... 1038
   RIJ-ON(X) (HFX calculated with O(N)) .... on
   Number of AuxJ basis functions       .... 1038
   RIJ-COSX (HFX calculated with COS-X)).... on


General Settings:
 Integral files         IntName         .... pbeh-3c
 Hartree-Fock type      HFTyp           .... RHF
 Total Charge           Charge          ....    0
 Multiplicity           Mult            ....    1
 Number of Electrons    NEL             ....  116
 Basis Dimension        Dim             ....  274
 Nuclear Repulsion      ENuc            ....    973.5087949407 Eh

Convergence Acceleration:
 DIIS                   CNVDIIS         .... on
   Start iteration      DIISMaxIt       ....    12
   Startup error        DIISStart       ....  0.200000
   # of expansion vecs  DIISMaxEq       ....     5
   Bias factor          DIISBfac        ....   1.050
   Max. coefficient     DIISMaxC        ....  10.000
 Trust-Rad. Augm. Hess. CNVTRAH         .... auto
   Auto Start mean grad. ratio tolernc. ....  1.125000
   Auto Start start iteration           ....    20
   Auto Start num. interpolation iter.  ....    10
   Max. Number of Micro iterations      ....    16
   Max. Number of Macro iterations      .... Maxiter - #DIIS iter
   Number of Davidson start vectors     ....     2
   Converg. threshold I  (grad. norm)   ....   1.000e-05
   Converg. threshold II (energy diff.) ....   1.000e-08
   Grad. Scal. Fac. for Micro threshold ....   0.100
   Minimum threshold for Micro iter.    ....   0.010
   NR start threshold (gradient norm)   ....   0.001
   Initial trust radius                 ....   0.400
   Minimum AH scaling param. (alpha)    ....   1.000
   Maximum AH scaling param. (alpha)    .... 1000.000
   Orbital update algorithm             .... Taylor
   White noise on init. David. guess    .... on
   Maximum white noise                  ....   0.010
   Quad. conv. algorithm                .... NR
   COSX micro iterations for RIJONX calc.... off
 SOSCF                  CNVSOSCF        .... on
   Start iteration      SOSCFMaxIt      ....   150
   Startup grad/error   SOSCFStart      ....  0.003300
 Level Shifting         CNVShift        .... on
   Level shift para.    LevelShift      ....    0.2500
   Turn off err/grad.   ShiftErr        ....    0.0010
 Zerner damping         CNVZerner       .... off
 Static damping         CNVDamp         .... on
   Fraction old density DampFac         ....    0.7000
   Max. Damping (<1)    DampMax         ....    0.9800
   Min. Damping (>=0)   DampMin         ....    0.0000
   Turn off err/grad.   DampErr         ....    0.1000
 Fernandez-Rico         CNVRico         .... off

SCF Procedure:
 Maximum # iterations   MaxIter         ....   125
 SCF integral mode      SCFMode         .... Direct
   Integral package                     .... SHARK and LIBINT hybrid scheme
 Reset frequency        DirectResetFreq ....    20
 Integral Threshold     Thresh          ....  2.500e-11 Eh
 Primitive CutOff       TCut            ....  2.500e-12 Eh

Convergence Tolerance:
 Convergence Check Mode ConvCheckMode   .... Total+1el-Energy
 Convergence forced     ConvForced      .... 0
 Energy Change          TolE            ....  1.000e-08 Eh
 1-El. energy change                    ....  1.000e-05 Eh
 Orbital Gradient       TolG            ....  1.000e-05
 Orbital Rotation angle TolX            ....  1.000e-05
 DIIS Error             TolErr          ....  5.000e-07


Diagonalization of the overlap matrix:
Smallest eigenvalue                        ... 3.834e-03
Time for diagonalization                   ...    0.079 sec
Threshold for overlap eigenvalues          ... 1.000e-08
Number of eigenvalues below threshold      ... 0
Time for construction of square roots      ...    0.478 sec
Total time needed                          ...    0.630 sec

--------------------------------
INITIAL GUESS: MINIMAL BASIS EHT
--------------------------------
The minimal basis has 102 functions
EHT matrix was diagonalized
Basis set overlap was calculated now projecting the orbitals
Using GuessMode=FMatrix for the initial guess
C*T matrix was formed
Effective Fockian was calculated
Effective Fockian was diagonalized
Initial density was built
                      ------------------
                      INITIAL GUESS DONE
                      ------------------
-------------------
DFT GRID GENERATION
-------------------

General Integration Accuracy     IntAcc      ... 4.959
Radial Grid Type                 RadialGrid  ... OptM3 with GC (2021)
Angular Grid (max. ang.)         AngularGrid ... 6 (Lebedev-590)
Angular grid pruning method      GridPruning ... 4 (adaptive)
Weight generation scheme         WeightScheme... Becke
Basis function cutoff            BFCut       ... 1.0000e-11
Integration weight cutoff        WCut        ... 1.0000e-14
Angular grids for H and He will be reduced by one unit
Partially contracted basis set               ... off
Rotationally invariant grid construction     ... off

Total number of grid points                  ...   467886
Total number of batches                      ...     7332
Average number of points per batch           ...       63
Average number of grid points per atom       ...    10171
Time for grid setup =    9.748 sec

--------------------
COSX GRID GENERATION
--------------------

GRIDX 1
-------
General Integration Accuracy     IntAcc      ... 4.020
Radial Grid Type                 RadialGrid  ... OptM3 with GC (2021)
Angular Grid (max. ang.)         AngularGrid ... 2 (Lebedev-110)
Angular grid pruning method      GridPruning ... 4 (adaptive)
Weight generation scheme         WeightScheme... Becke
Basis function cutoff            BFCut       ... 1.0000e-11
Integration weight cutoff        WCut        ... 1.0000e-14
Angular grids for H and He will be reduced by one unit
Partially contracted basis set               ... on
Rotationally invariant grid construction     ... off

Total number of grid points                  ...    47796
Total number of batches                      ...      770
Average number of points per batch           ...       62
Average number of grid points per atom       ...     1039
UseSFitting                                  ... on

GRIDX 2
-------
General Integration Accuracy     IntAcc      ... 4.338
Radial Grid Type                 RadialGrid  ... OptM3 with GC (2021)
Angular Grid (max. ang.)         AngularGrid ... 3 (Lebedev-194)
Angular grid pruning method      GridPruning ... 4 (adaptive)
Weight generation scheme         WeightScheme... Becke
Basis function cutoff            BFCut       ... 1.0000e-11
Integration weight cutoff        WCut        ... 1.0000e-14
Angular grids for H and He will be reduced by one unit
Partially contracted basis set               ... on
Rotationally invariant grid construction     ... off

Total number of grid points                  ...   103382
Total number of batches                      ...     1640
Average number of points per batch           ...       63
Average number of grid points per atom       ...     2247
UseSFitting                                  ... on

GRIDX 3
-------
General Integration Accuracy     IntAcc      ... 4.871
Radial Grid Type                 RadialGrid  ... OptM3 with GC (2021)
Angular Grid (max. ang.)         AngularGrid ... 4 (Lebedev-302)
Angular grid pruning method      GridPruning ... 4 (adaptive)
Weight generation scheme         WeightScheme... Becke
Basis function cutoff            BFCut       ... 1.0000e-11
Integration weight cutoff        WCut        ... 1.0000e-14
Angular grids for H and He will be reduced by one unit
Partially contracted basis set               ... on
Rotationally invariant grid construction     ... off

Total number of grid points                  ...   205744
Total number of batches                      ...     3238
Average number of points per batch           ...       63
Average number of grid points per atom       ...     4473
UseSFitting                                  ... on

Time for X-Grid setup             =    8.358 sec

--------------
SCF ITERATIONS
--------------
ITER       Energy         Delta-E        Max-DP      RMS-DP      [F,P]     Damp
               ***  Starting incremental Fock matrix formation  ***
  0   -550.6024199141   0.000000000000 0.02354060  0.00141486  0.3965244 0.7000
  1   -550.9007247906  -0.298304876581 0.01728734  0.00107883  0.2809905 0.7000
                               ***Turning on DIIS***
  2   -551.1141221016  -0.213397310936 0.01218848  0.00080389  0.1982147 0.7000
  3   -551.2653622104  -0.151240108808 0.00941654  0.00062342  0.1397071 0.7000
  4   -551.3723167082  -0.106954497841 0.02393995  0.00155706  0.0978827 0.0000
                      *** Initiating the SOSCF procedure ***
                           *** Shutting down DIIS ***
                      *** Re-Reading the Fockian *** 
                      *** Removing any level shift *** 
ITER      Energy       Delta-E        Grad      Rot      Max-DP    RMS-DP
  5   -551.62596522  -0.2536485074  0.001150  0.001150  0.001524  0.000097
               *** Restarting incremental Fock matrix formation ***
  6   -551.62603624  -0.0000710258  0.000317  0.000666  0.000736  0.000031
  7   -551.62603850  -0.0000022608  0.000242  0.000179  0.000341  0.000011
  8   -551.62604294  -0.0000044382  0.000016  0.000037  0.000019  0.000001
  9   -551.62604296  -0.0000000226  0.000004  0.000011  0.000009  0.000000
                  ***Gradient check signals convergence***
              ***Rediagonalizing the Fockian in SOSCF/NRSCF***

               *****************************************************
               *                     SUCCESS                       *
               *           SCF CONVERGED AFTER  10 CYCLES          *
               *****************************************************

Old exchange energy                            =    -35.260070250 Eh
New exchange energy                            =    -35.260018456 Eh
Exchange energy change after final integration =      0.000051794 Eh
Total energy after final integration           =   -551.625991168 Eh
Final COS-X integration done in                =    21.220 sec

----------------
TOTAL SCF ENERGY
----------------

Total Energy       :         -551.62599117 Eh          -15010.50634 eV

Components:
Nuclear Repulsion  :          973.50879494 Eh           26490.52106 eV
Electronic Energy  :        -1525.13478611 Eh          -41501.02740 eV
One Electron Energy:        -2674.89688356 Eh          -72787.64465 eV
Two Electron Energy:         1149.76209745 Eh           31286.61725 eV
Max COSX asymmetry :            0.00000106 Eh               0.00003 eV

Virial components:
Potential Energy   :        -1098.32644882 Eh          -29886.98210 eV
Kinetic Energy     :          546.70045765 Eh           14876.47576 eV
Virial Ratio       :            2.00900957


DFT components:
N(Alpha)           :       57.999919266626 electrons
N(Beta)            :       57.999919266626 electrons
N(Total)           :      115.999838533253 electrons
E(X)               :      -46.689960955843 Eh       
E(C)               :       -4.892648283308 Eh       
E(XC)              :      -51.582609239151 Eh       
DFET-embed. en.    :        0.000000000000 Eh       

---------------
SCF CONVERGENCE
---------------

  Last Energy change         ...    1.6614e-09  Tolerance :   1.0000e-08
  Last MAX-Density change    ...    1.4433e-15  Tolerance :   1.0000e-07
  Last RMS-Density change    ...    2.8308e-17  Tolerance :   5.0000e-09
  Last Orbital Gradient      ...    1.5386e-06  Tolerance :   1.0000e-05
  Last Orbital Rotation      ...    4.3176e-06  Tolerance :   1.0000e-05

             **** THE GBW FILE WAS UPDATED (pbeh-3c.gbw) ****
             **** DENSITY pbeh-3c.scfp WAS UPDATED ****
             **** ENERGY FILE WAS UPDATED (pbeh-3c.en.tmp) ****
             **** THE GBW FILE WAS UPDATED (pbeh-3c.gbw) ****
             **** DENSITY pbeh-3c.scfp WAS UPDATED ****
----------------
ORBITAL ENERGIES
----------------

  NO   OCC          E(Eh)            E(eV) 
   0   2.0000     -10.429219      -283.7935 
   1   2.0000     -10.429212      -283.7933 
   2   2.0000     -10.429211      -283.7933 
   3   2.0000     -10.429199      -283.7929 
   4   2.0000     -10.427802      -283.7549 
   5   2.0000     -10.427796      -283.7547 
   6   2.0000     -10.427692      -283.7519 
   7   2.0000     -10.427687      -283.7518 
   8   2.0000     -10.427484      -283.7463 
   9   2.0000     -10.427477      -283.7461 
  10   2.0000     -10.421137      -283.5736 
  11   2.0000     -10.421132      -283.5734 
  12   2.0000     -10.421132      -283.5734 
  13   2.0000     -10.421126      -283.5733 
  14   2.0000      -0.902169       -24.5493 
  15   2.0000      -0.897926       -24.4338 
  16   2.0000      -0.869647       -23.6643 
  17   2.0000      -0.865666       -23.5560 
  18   2.0000      -0.817943       -22.2574 
  19   2.0000      -0.814414       -22.1613 
  20   2.0000      -0.752150       -20.4671 
  21   2.0000      -0.750258       -20.4156 
  22   2.0000      -0.684534       -18.6271 
  23   2.0000      -0.683030       -18.5862 
  24   2.0000      -0.646919       -17.6036 
  25   2.0000      -0.644447       -17.5363 
  26   2.0000      -0.642108       -17.4726 
  27   2.0000      -0.642023       -17.4703 
  28   2.0000      -0.554630       -15.0922 
  29   2.0000      -0.530798       -14.4437 
  30   2.0000      -0.524766       -14.2796 
  31   2.0000      -0.503240       -13.6939 
  32   2.0000      -0.491153       -13.3649 
  33   2.0000      -0.488237       -13.2856 
  34   2.0000      -0.482107       -13.1188 
  35   2.0000      -0.481466       -13.1014 
  36   2.0000      -0.480149       -13.0655 
  37   2.0000      -0.463148       -12.6029 
  38   2.0000      -0.454648       -12.3716 
  39   2.0000      -0.452802       -12.3214 
  40   2.0000      -0.428698       -11.6655 
  41   2.0000      -0.423149       -11.5145 
  42   2.0000      -0.421484       -11.4692 
  43   2.0000      -0.420789       -11.4503 
  44   2.0000      -0.408915       -11.1272 
  45   2.0000      -0.407954       -11.1010 
  46   2.0000      -0.389568       -10.6007 
  47   2.0000      -0.387683       -10.5494 
  48   2.0000      -0.385731       -10.4963 
  49   2.0000      -0.380503       -10.3540 
  50   2.0000      -0.374258       -10.1841 
  51   2.0000      -0.373841       -10.1727 
  52   2.0000      -0.373811       -10.1719 
  53   2.0000      -0.364739        -9.9250 
  54   2.0000      -0.364504        -9.9187 
  55   2.0000      -0.356685        -9.7059 
  56   2.0000      -0.350608        -9.5405 
  57   2.0000      -0.349747        -9.5171 
  58   0.0000       0.086615         2.3569 
  59   0.0000       0.104146         2.8340 
  60   0.0000       0.130078         3.5396 
  61   0.0000       0.136154         3.7049 
  62   0.0000       0.157198         4.2776 
  63   0.0000       0.162683         4.4268 
  64   0.0000       0.167208         4.5500 
  65   0.0000       0.173806         4.7295 
  66   0.0000       0.176890         4.8134 
  67   0.0000       0.180510         4.9119 
  68   0.0000       0.191890         5.2216 
  69   0.0000       0.196042         5.3346 
  70   0.0000       0.203440         5.5359 
  71   0.0000       0.206286         5.6133 
  72   0.0000       0.210334         5.7235 
  73   0.0000       0.219162         5.9637 
  74   0.0000       0.219774         5.9804 
  75   0.0000       0.219895         5.9836 
  76   0.0000       0.222091         6.0434 
  77   0.0000       0.226449         6.1620 
  78   0.0000       0.228880         6.2282 
  79   0.0000       0.231685         6.3045 
  80   0.0000       0.234908         6.3922 
  81   0.0000       0.236707         6.4411 
  82   0.0000       0.240475         6.5437 
  83   0.0000       0.241960         6.5841 
  84   0.0000       0.248149         6.7525 
  85   0.0000       0.248265         6.7556 
  86   0.0000       0.251232         6.8364 
  87   0.0000       0.260161         7.0793 
  88   0.0000       0.265296         7.2191 
  89   0.0000       0.277453         7.5499 
  90   0.0000       0.285106         7.7581 
  91   0.0000       0.285121         7.7585 
  92   0.0000       0.293930         7.9983 
  93   0.0000       0.301613         8.2073 
  94   0.0000       0.302195         8.2232 
  95   0.0000       0.304422         8.2838 
  96   0.0000       0.309054         8.4098 
  97   0.0000       0.327154         8.9023 
  98   0.0000       0.328347         8.9348 
  99   0.0000       0.339660         9.2426 
 100   0.0000       0.342609         9.3229 
 101   0.0000       0.342996         9.3334 
 102   0.0000       0.461930        12.5698 
 103   0.0000       0.465797        12.6750 
 104   0.0000       0.484440        13.1823 
 105   0.0000       0.491298        13.3689 
 106   0.0000       0.505219        13.7477 
 107   0.0000       0.508219        13.8294 
 108   0.0000       0.512009        13.9325 
 109   0.0000       0.519563        14.1380 
 110   0.0000       0.535239        14.5646 
 111   0.0000       0.541371        14.7315 
 112   0.0000       0.541541        14.7361 
 113   0.0000       0.545580        14.8460 
 114   0.0000       0.598547        16.2873 
 115   0.0000       0.603674        16.4268 
 116   0.0000       0.603829        16.4310 
 117   0.0000       0.610563        16.6143 
 118   0.0000       0.622497        16.9390 
 119   0.0000       0.627127        17.0650 
 120   0.0000       0.637150        17.3377 
 121   0.0000       0.653593        17.7852 
 122   0.0000       0.670385        18.2421 
 123   0.0000       0.690926        18.8011 
 124   0.0000       0.693114        18.8606 
 125   0.0000       0.700923        19.0731 
 126   0.0000       0.709660        19.3108 
 127   0.0000       0.716747        19.5037 
 128   0.0000       0.717087        19.5129 
 129   0.0000       0.733896        19.9703 
 130   0.0000       0.736915        20.0525 
 131   0.0000       0.738439        20.0939 
 132   0.0000       0.744887        20.2694 
 133   0.0000       0.750646        20.4261 
 134   0.0000       0.759851        20.6766 
 135   0.0000       0.790182        21.5020 
 136   0.0000       0.818209        22.2646 
 137   0.0000       0.829531        22.5727 
 138   0.0000       0.832871        22.6636 
 139   0.0000       0.843594        22.9554 
 140   0.0000       0.889688        24.2096 
 141   0.0000       0.916754        24.9462 
 142   0.0000       0.922214        25.0947 
 143   0.0000       0.962156        26.1816 
 144   0.0000       0.966272        26.2936 
 145   0.0000       0.985631        26.8204 
 146   0.0000       0.986592        26.8465 
 147   0.0000       0.987249        26.8644 
 148   0.0000       0.988689        26.9036 
 149   0.0000       1.018977        27.7278 
 150   0.0000       1.019319        27.7371 
 151   0.0000       1.030137        28.0315 
 152   0.0000       1.032869        28.1058 
 153   0.0000       1.033562        28.1246 
 154   0.0000       1.047363        28.5002 
 155   0.0000       1.048018        28.5180 
 156   0.0000       1.049647        28.5623 
 157   0.0000       1.053790        28.6751 
 158   0.0000       1.060276        28.8516 
 159   0.0000       1.065988        29.0070 
 160   0.0000       1.066640        29.0247 
 161   0.0000       1.066934        29.0328 
 162   0.0000       1.072846        29.1936 
 163   0.0000       1.073112        29.2009 
 164   0.0000       1.079115        29.3642 
 165   0.0000       1.086257        29.5586 
 166   0.0000       1.091536        29.7022 
 167   0.0000       1.102840        30.0098 
 168   0.0000       1.106279        30.1034 
 169   0.0000       1.106816        30.1180 
 170   0.0000       1.127418        30.6786 
 171   0.0000       1.182960        32.1900 
 172   0.0000       1.202002        32.7081 
 173   0.0000       1.215516        33.0759 
 174   0.0000       1.247441        33.9446 
 175   0.0000       1.247858        33.9559 
 176   0.0000       1.249400        33.9979 
 177   0.0000       1.297834        35.3159 
 178   0.0000       1.306390        35.5487 
 179   0.0000       1.339464        36.4487 
 180   0.0000       1.376579        37.4586 
 181   0.0000       1.382124        37.6095 
 182   0.0000       1.406758        38.2798 
 183   0.0000       1.422267        38.7018 
 184   0.0000       1.446284        39.3554 
 185   0.0000       1.446810        39.3697 
 186   0.0000       1.452571        39.5265 
 187   0.0000       1.476057        40.1656 
 188   0.0000       1.508474        41.0477 
 189   0.0000       1.509636        41.0793 
 190   0.0000       1.512740        41.1638 
 191   0.0000       1.567430        42.6520 
 192   0.0000       1.576869        42.9088 
 193   0.0000       1.592773        43.3416 
 194   0.0000       1.643611        44.7249 
 195   0.0000       1.653437        44.9923 
 196   0.0000       1.738118        47.2966 
 197   0.0000       1.776086        48.3297 
 198   0.0000       1.780828        48.4588 
 199   0.0000       1.791836        48.7583 
 200   0.0000       1.805860        49.1400 
 201   0.0000       1.848370        50.2967 
 202   0.0000       1.852686        50.4142 
 203   0.0000       1.930865        52.5415 
 204   0.0000       1.934582        52.6427 
 205   0.0000       1.958000        53.2799 
 206   0.0000       1.963981        53.4426 
 207   0.0000       1.965571        53.4859 
 208   0.0000       1.971780        53.6549 
 209   0.0000       1.976393        53.7804 
 210   0.0000       1.979405        53.8623 
 211   0.0000       2.001497        54.4635 
 212   0.0000       2.006788        54.6075 
 213   0.0000       2.010656        54.7127 
 214   0.0000       2.017399        54.8962 
 215   0.0000       2.019583        54.9557 
 216   0.0000       2.031245        55.2730 
 217   0.0000       2.071052        56.3562 
 218   0.0000       2.082880        56.6780 
 219   0.0000       2.085420        56.7472 
 220   0.0000       2.086880        56.7869 
 221   0.0000       2.090791        56.8933 
 222   0.0000       2.103104        57.2284 
 223   0.0000       2.157319        58.7036 
 224   0.0000       2.174529        59.1720 
 225   0.0000       2.176310        59.2204 
 226   0.0000       2.183977        59.4290 
 227   0.0000       2.219789        60.4035 
 228   0.0000       2.282644        62.1139 
 229   0.0000       2.285104        62.1808 
 230   0.0000       2.324478        63.2523 
 231   0.0000       2.328369        63.3582 
 232   0.0000       2.339483        63.6606 
 233   0.0000       2.359925        64.2168 
 234   0.0000       2.367803        64.4312 
 235   0.0000       2.401594        65.3507 
 236   0.0000       2.406351        65.4801 
 237   0.0000       2.409476        65.5652 
 238   0.0000       2.427720        66.0616 
 239   0.0000       2.461620        66.9841 
 240   0.0000       2.473389        67.3043 
 241   0.0000       2.481625        67.5284 
 242   0.0000       2.521006        68.6001 
 243   0.0000       2.526956        68.7620 
 244   0.0000       2.530755        68.8653 
 245   0.0000       2.534451        68.9659 
 246   0.0000       2.555622        69.5420 
 247   0.0000       2.563075        69.7448 
 248   0.0000       2.589390        70.4609 
 249   0.0000       2.595565        70.6289 
 250   0.0000       2.617639        71.2296 
 251   0.0000       2.633516        71.6616 
 252   0.0000       2.668481        72.6131 
 253   0.0000       2.677478        72.8579 
 254   0.0000       2.726883        74.2023 
 255   0.0000       2.730607        74.3036 
 256   0.0000       2.863250        77.9130 
 257   0.0000       2.868198        78.0476 
 258   0.0000       2.890774        78.6619 
 259   0.0000       2.902181        78.9723 
 260   0.0000      13.537293       368.3685 
 261   0.0000      13.559241       368.9657 
 262   0.0000      13.681005       372.2791 
 263   0.0000      13.703500       372.8912 
 264   0.0000      13.812698       375.8626 
 265   0.0000      13.834482       376.4554 
 266   0.0000      13.915773       378.6674 
 267   0.0000      13.929357       379.0371 
 268   0.0000      13.970577       380.1587 
 269   0.0000      14.026475       381.6798 
 270   0.0000      14.041149       382.0791 
 271   0.0000      14.068432       382.8215 
 272   0.0000      14.126968       384.4143 
 273   0.0000      14.130443       384.5089 

                    ********************************
                    * MULLIKEN POPULATION ANALYSIS *
                    ********************************

-----------------------
MULLIKEN ATOMIC CHARGES
-----------------------
   0 C :   -0.413025
   1 C :   -0.399928
   2 C :   -0.399928
   3 C :   -0.422874
   4 C :   -0.422874
   5 C :   -0.638759
   6 C :   -0.638759
   7 H :    0.210431
   8 H :    0.204035
   9 H :    0.200466
  10 H :    0.202486
  11 H :    0.200466
  12 H :    0.202486
  13 H :    0.212992
  14 H :    0.208166
  15 H :    0.212992
  16 H :    0.208166
  17 H :    0.209371
  18 H :    0.209423
  19 H :    0.217936
  20 H :    0.209371
  21 H :    0.209423
  22 H :    0.217936
  23 C :   -0.413025
  24 C :   -0.399928
  25 C :   -0.399928
  26 C :   -0.422875
  27 C :   -0.422874
  28 C :   -0.638759
  29 C :   -0.638759
  30 H :    0.204035
  31 H :    0.210431
  32 H :    0.202486
  33 H :    0.200466
  34 H :    0.202486
  35 H :    0.200466
  36 H :    0.208166
  37 H :    0.212993
  38 H :    0.208166
  39 H :    0.212993
  40 H :    0.209423
  41 H :    0.209371
  42 H :    0.217936
  43 H :    0.209423
  44 H :    0.209371
  45 H :    0.217936
Sum of atomic charges:    0.0000000

--------------------------------
MULLIKEN REDUCED ORBITAL CHARGES
--------------------------------
  0 C s       :     3.326704  s :     3.326704
      pz      :     0.908900  p :     3.042641
      px      :     1.112319
      py      :     1.021422
      dz2     :     0.012748  d :     0.043680
      dxz     :     0.003396
      dyz     :     0.009845
      dx2y2   :     0.002286
      dxy     :     0.015405
  1 C s       :     3.322894  s :     3.322894
      pz      :     0.907699  p :     3.033313
      px      :     1.106140
      py      :     1.019474
      dz2     :     0.012760  d :     0.043721
      dxz     :     0.003394
      dyz     :     0.009892
      dx2y2   :     0.002264
      dxy     :     0.015411
  2 C s       :     3.322894  s :     3.322894
      pz      :     0.907699  p :     3.033313
      px      :     1.106140
      py      :     1.019474
      dz2     :     0.012760  d :     0.043721
      dxz     :     0.003394
      dyz     :     0.009892
      dx2y2   :     0.002264
      dxy     :     0.015411
  3 C s       :     3.328663  s :     3.328663
      pz      :     0.908204  p :     3.050277
      px      :     1.118826
      py      :     1.023248
      dz2     :     0.012891  d :     0.043934
      dxz     :     0.003424
      dyz     :     0.009984
      dx2y2   :     0.002334
      dxy     :     0.015301
  4 C s       :     3.328663  s :     3.328663
      pz      :     0.908204  p :     3.050277
      px      :     1.118826
      py      :     1.023248
      dz2     :     0.012891  d :     0.043934
      dxz     :     0.003424
      dyz     :     0.009984
      dx2y2   :     0.002334
      dxy     :     0.015301
  5 C s       :     3.380230  s :     3.380230
      pz      :     1.023048  p :     3.221527
      px      :     1.120302
      py      :     1.078178
      dz2     :     0.010282  d :     0.037002
      dxz     :     0.001655
      dyz     :     0.009939
      dx2y2   :     0.002335
      dxy     :     0.012791
  6 C s       :     3.380230  s :     3.380230
      pz      :     1.023048  p :     3.221528
      px      :     1.120302
      py      :     1.078178
      dz2     :     0.010282  d :     0.037002
      dxz     :     0.001655
      dyz     :     0.009939
      dx2y2   :     0.002335
      dxy     :     0.012791
  7 H s       :     0.789569  s :     0.789569
  8 H s       :     0.795965  s :     0.795965
  9 H s       :     0.799534  s :     0.799534
 10 H s       :     0.797514  s :     0.797514
 11 H s       :     0.799534  s :     0.799534
 12 H s       :     0.797514  s :     0.797514
 13 H s       :     0.787008  s :     0.787008
 14 H s       :     0.791834  s :     0.791834
 15 H s       :     0.787008  s :     0.787008
 16 H s       :     0.791834  s :     0.791834
 17 H s       :     0.790629  s :     0.790629
 18 H s       :     0.790577  s :     0.790577
 19 H s       :     0.782064  s :     0.782064
 20 H s       :     0.790629  s :     0.790629
 21 H s       :     0.790577  s :     0.790577
 22 H s       :     0.782064  s :     0.782064
 23 C s       :     3.326703  s :     3.326703
      pz      :     0.908900  p :     3.042641
      px      :     1.112319
      py      :     1.021422
      dz2     :     0.012748  d :     0.043680
      dxz     :     0.003396
      dyz     :     0.009845
      dx2y2   :     0.002286
      dxy     :     0.015405
 24 C s       :     3.322894  s :     3.322894
      pz      :     0.907699  p :     3.033313
      px      :     1.106140
      py      :     1.019473
      dz2     :     0.012760  d :     0.043721
      dxz     :     0.003394
      dyz     :     0.009892
      dx2y2   :     0.002264
      dxy     :     0.015411
 25 C s       :     3.322894  s :     3.322894
      pz      :     0.907699  p :     3.033313
      px      :     1.106140
      py      :     1.019473
      dz2     :     0.012760  d :     0.043721
      dxz     :     0.003394
      dyz     :     0.009892
      dx2y2   :     0.002264
      dxy     :     0.015411
 26 C s       :     3.328663  s :     3.328663
      pz      :     0.908204  p :     3.050277
      px      :     1.118826
      py      :     1.023247
      dz2     :     0.012891  d :     0.043934
      dxz     :     0.003424
      dyz     :     0.009984
      dx2y2   :     0.002334
      dxy     :     0.015301
 27 C s       :     3.328663  s :     3.328663
      pz      :     0.908204  p :     3.050277
      px      :     1.118826
      py      :     1.023247
      dz2     :     0.012891  d :     0.043934
      dxz     :     0.003424
      dyz     :     0.009984
      dx2y2   :     0.002334
      dxy     :     0.015301
 28 C s       :     3.380230  s :     3.380230
      pz      :     1.023048  p :     3.221527
      px      :     1.120302
      py      :     1.078177
      dz2     :     0.010282  d :     0.037002
      dxz     :     0.001655
      dyz     :     0.009939
      dx2y2   :     0.002335
      dxy     :     0.012791
 29 C s       :     3.380230  s :     3.380230
      pz      :     1.023048  p :     3.221527
      px      :     1.120302
      py      :     1.078177
      dz2     :     0.010282  d :     0.037002
      dxz     :     0.001655
      dyz     :     0.009939
      dx2y2   :     0.002335
      dxy     :     0.012791
 30 H s       :     0.795965  s :     0.795965
 31 H s       :     0.789569  s :     0.789569
 32 H s       :     0.797514  s :     0.797514
 33 H s       :     0.799534  s :     0.799534
 34 H s       :     0.797514  s :     0.797514
 35 H s       :     0.799534  s :     0.799534
 36 H s       :     0.791834  s :     0.791834
 37 H s       :     0.787007  s :     0.787007
 38 H s       :     0.791834  s :     0.791834
 39 H s       :     0.787007  s :     0.787007
 40 H s       :     0.790577  s :     0.790577
 41 H s       :     0.790629  s :     0.790629
 42 H s       :     0.782064  s :     0.782064
 43 H s       :     0.790577  s :     0.790577
 44 H s       :     0.790629  s :     0.790629
 45 H s       :     0.782064  s :     0.782064


                     *******************************
                     * LOEWDIN POPULATION ANALYSIS *
                     *******************************

----------------------
LOEWDIN ATOMIC CHARGES
----------------------
   0 C :   -0.238449
   1 C :   -0.238704
   2 C :   -0.238704
   3 C :   -0.245958
   4 C :   -0.245958
   5 C :   -0.361069
   6 C :   -0.361069
   7 H :    0.118990
   8 H :    0.119553
   9 H :    0.116153
  10 H :    0.118903
  11 H :    0.116153
  12 H :    0.118903
  13 H :    0.118722
  14 H :    0.119863
  15 H :    0.118722
  16 H :    0.119863
  17 H :    0.122348
  18 H :    0.123382
  19 H :    0.126313
  20 H :    0.122348
  21 H :    0.123382
  22 H :    0.126313
  23 C :   -0.238449
  24 C :   -0.238704
  25 C :   -0.238704
  26 C :   -0.245958
  27 C :   -0.245958
  28 C :   -0.361069
  29 C :   -0.361069
  30 H :    0.119553
  31 H :    0.118990
  32 H :    0.118903
  33 H :    0.116153
  34 H :    0.118903
  35 H :    0.116153
  36 H :    0.119863
  37 H :    0.118722
  38 H :    0.119863
  39 H :    0.118722
  40 H :    0.123382
  41 H :    0.122348
  42 H :    0.126313
  43 H :    0.123382
  44 H :    0.122348
  45 H :    0.126313

-------------------------------
LOEWDIN REDUCED ORBITAL CHARGES
-------------------------------
  0 C s       :     2.909064  s :     2.909064
      pz      :     1.042118  p :     3.240622
      px      :     1.107814
      py      :     1.090689
      dz2     :     0.026795  d :     0.088762
      dxz     :     0.007125
      dyz     :     0.023423
      dx2y2   :     0.004309
      dxy     :     0.027110
  1 C s       :     2.911044  s :     2.911044
      pz      :     1.042348  p :     3.238660
      px      :     1.106978
      py      :     1.089335
      dz2     :     0.026855  d :     0.088999
      dxz     :     0.007169
      dyz     :     0.023456
      dx2y2   :     0.004287
      dxy     :     0.027233
  2 C s       :     2.911044  s :     2.911044
      pz      :     1.042348  p :     3.238660
      px      :     1.106978
      py      :     1.089335
      dz2     :     0.026855  d :     0.088999
      dxz     :     0.007169
      dyz     :     0.023456
      dx2y2   :     0.004287
      dxy     :     0.027233
  3 C s       :     2.910417  s :     2.910417
      pz      :     1.046987  p :     3.246339
      px      :     1.109498
      py      :     1.089854
      dz2     :     0.026941  d :     0.089202
      dxz     :     0.007156
      dyz     :     0.023848
      dx2y2   :     0.004326
      dxy     :     0.026931
  4 C s       :     2.910417  s :     2.910417
      pz      :     1.046987  p :     3.246339
      px      :     1.109498
      py      :     1.089855
      dz2     :     0.026941  d :     0.089202
      dxz     :     0.007156
      dyz     :     0.023848
      dx2y2   :     0.004326
      dxy     :     0.026931
  5 C s       :     2.953577  s :     2.953577
      pz      :     1.089900  p :     3.338596
      px      :     1.130990
      py      :     1.117707
      dz2     :     0.019770  d :     0.068896
      dxz     :     0.003585
      dyz     :     0.019504
      dx2y2   :     0.004116
      dxy     :     0.021922
  6 C s       :     2.953577  s :     2.953577
      pz      :     1.089900  p :     3.338596
      px      :     1.130990
      py      :     1.117707
      dz2     :     0.019770  d :     0.068896
      dxz     :     0.003585
      dyz     :     0.019504
      dx2y2   :     0.004116
      dxy     :     0.021922
  7 H s       :     0.881010  s :     0.881010
  8 H s       :     0.880447  s :     0.880447
  9 H s       :     0.883847  s :     0.883847
 10 H s       :     0.881097  s :     0.881097
 11 H s       :     0.883847  s :     0.883847
 12 H s       :     0.881097  s :     0.881097
 13 H s       :     0.881278  s :     0.881278
 14 H s       :     0.880137  s :     0.880137
 15 H s       :     0.881278  s :     0.881278
 16 H s       :     0.880137  s :     0.880137
 17 H s       :     0.877652  s :     0.877652
 18 H s       :     0.876618  s :     0.876618
 19 H s       :     0.873687  s :     0.873687
 20 H s       :     0.877652  s :     0.877652
 21 H s       :     0.876618  s :     0.876618
 22 H s       :     0.873687  s :     0.873687
 23 C s       :     2.909064  s :     2.909064
      pz      :     1.042118  p :     3.240622
      px      :     1.107814
      py      :     1.090689
      dz2     :     0.026795  d :     0.088762
      dxz     :     0.007125
      dyz     :     0.023423
      dx2y2   :     0.004309
      dxy     :     0.027110
 24 C s       :     2.911044  s :     2.911044
      pz      :     1.042348  p :     3.238660
      px      :     1.106978
      py      :     1.089335
      dz2     :     0.026855  d :     0.088999
      dxz     :     0.007169
      dyz     :     0.023456
      dx2y2   :     0.004287
      dxy     :     0.027233
 25 C s       :     2.911044  s :     2.911044
      pz      :     1.042348  p :     3.238660
      px      :     1.106978
      py      :     1.089335
      dz2     :     0.026855  d :     0.088999
      dxz     :     0.007169
      dyz     :     0.023456
      dx2y2   :     0.004287
      dxy     :     0.027233
 26 C s       :     2.910417  s :     2.910417
      pz      :     1.046987  p :     3.246339
      px      :     1.109498
      py      :     1.089854
      dz2     :     0.026941  d :     0.089202
      dxz     :     0.007156
      dyz     :     0.023848
      dx2y2   :     0.004326
      dxy     :     0.026931
 27 C s       :     2.910417  s :     2.910417
      pz      :     1.046987  p :     3.246339
      px      :     1.109498
      py      :     1.089854
      dz2     :     0.026941  d :     0.089202
      dxz     :     0.007156
      dyz     :     0.023848
      dx2y2   :     0.004326
      dxy     :     0.026931
 28 C s       :     2.953577  s :     2.953577
      pz      :     1.089900  p :     3.338596
      px      :     1.130990
      py      :     1.117707
      dz2     :     0.019770  d :     0.068896
      dxz     :     0.003585
      dyz     :     0.019504
      dx2y2   :     0.004116
      dxy     :     0.021922
 29 C s       :     2.953577  s :     2.953577
      pz      :     1.089900  p :     3.338596
      px      :     1.130990
      py      :     1.117707
      dz2     :     0.019770  d :     0.068896
      dxz     :     0.003585
      dyz     :     0.019504
      dx2y2   :     0.004116
      dxy     :     0.021922
 30 H s       :     0.880447  s :     0.880447
 31 H s       :     0.881010  s :     0.881010
 32 H s       :     0.881097  s :     0.881097
 33 H s       :     0.883847  s :     0.883847
 34 H s       :     0.881097  s :     0.881097
 35 H s       :     0.883847  s :     0.883847
 36 H s       :     0.880137  s :     0.880137
 37 H s       :     0.881278  s :     0.881278
 38 H s       :     0.880137  s :     0.880137
 39 H s       :     0.881278  s :     0.881278
 40 H s       :     0.876618  s :     0.876618
 41 H s       :     0.877652  s :     0.877652
 42 H s       :     0.873687  s :     0.873687
 43 H s       :     0.876618  s :     0.876618
 44 H s       :     0.877652  s :     0.877652
 45 H s       :     0.873687  s :     0.873687


                      *****************************
                      * MAYER POPULATION ANALYSIS *
                      *****************************

  NA   - Mulliken gross atomic population
  ZA   - Total nuclear charge
  QA   - Mulliken gross atomic charge
  VA   - Mayer's total valence
  BVA  - Mayer's bonded valence
  FA   - Mayer's free valence

  ATOM       NA         ZA         QA         VA         BVA        FA
  0 C      6.4130     6.0000    -0.4130     3.7393     3.7393     0.0000
  1 C      6.3999     6.0000    -0.3999     3.7305     3.7305     0.0000
  2 C      6.3999     6.0000    -0.3999     3.7305     3.7305     0.0000
  3 C      6.4229     6.0000    -0.4229     3.7499     3.7499     0.0000
  4 C      6.4229     6.0000    -0.4229     3.7499     3.7499     0.0000
  5 C      6.6388     6.0000    -0.6388     3.7421     3.7421     0.0000
  6 C      6.6388     6.0000    -0.6388     3.7421     3.7421     0.0000
  7 H      0.7896     1.0000     0.2104     0.9087     0.9087    -0.0000
  8 H      0.7960     1.0000     0.2040     0.9113     0.9113     0.0000
  9 H      0.7995     1.0000     0.2005     0.9152     0.9152    -0.0000
 10 H      0.7975     1.0000     0.2025     0.9111     0.9111     0.0000
 11 H      0.7995     1.0000     0.2005     0.9152     0.9152     0.0000
 12 H      0.7975     1.0000     0.2025     0.9111     0.9111     0.0000
 13 H      0.7870     1.0000     0.2130     0.9065     0.9065     0.0000
 14 H      0.7918     1.0000     0.2082     0.9081     0.9081     0.0000
 15 H      0.7870     1.0000     0.2130     0.9065     0.9065    -0.0000
 16 H      0.7918     1.0000     0.2082     0.9081     0.9081     0.0000
 17 H      0.7906     1.0000     0.2094     0.9163     0.9163    -0.0000
 18 H      0.7906     1.0000     0.2094     0.9145     0.9145     0.0000
 19 H      0.7821     1.0000     0.2179     0.9145     0.9145     0.0000
 20 H      0.7906     1.0000     0.2094     0.9163     0.9163    -0.0000
 21 H      0.7906     1.0000     0.2094     0.9145     0.9145     0.0000
 22 H      0.7821     1.0000     0.2179     0.9145     0.9145    -0.0000
 23 C      6.4130     6.0000    -0.4130     3.7393     3.7393     0.0000
 24 C      6.3999     6.0000    -0.3999     3.7305     3.7305     0.0000
 25 C      6.3999     6.0000    -0.3999     3.7305     3.7305     0.0000
 26 C      6.4229     6.0000    -0.4229     3.7499     3.7499    -0.0000
 27 C      6.4229     6.0000    -0.4229     3.7499     3.7499    -0.0000
 28 C      6.6388     6.0000    -0.6388     3.7421     3.7421     0.0000
 29 C      6.6388     6.0000    -0.6388     3.7421     3.7421    -0.0000
 30 H      0.7960     1.0000     0.2040     0.9113     0.9113    -0.0000
 31 H      0.7896     1.0000     0.2104     0.9087     0.9087     0.0000
 32 H      0.7975     1.0000     0.2025     0.9111     0.9111    -0.0000
 33 H      0.7995     1.0000     0.2005     0.9152     0.9152     0.0000
 34 H      0.7975     1.0000     0.2025     0.9111     0.9111     0.0000
 35 H      0.7995     1.0000     0.2005     0.9152     0.9152     0.0000
 36 H      0.7918     1.0000     0.2082     0.9081     0.9081     0.0000
 37 H      0.7870     1.0000     0.2130     0.9065     0.9065     0.0000
 38 H      0.7918     1.0000     0.2082     0.9081     0.9081    -0.0000
 39 H      0.7870     1.0000     0.2130     0.9065     0.9065     0.0000
 40 H      0.7906     1.0000     0.2094     0.9145     0.9145     0.0000
 41 H      0.7906     1.0000     0.2094     0.9163     0.9163     0.0000
 42 H      0.7821     1.0000     0.2179     0.9145     0.9145     0.0000
 43 H      0.7906     1.0000     0.2094     0.9145     0.9145    -0.0000
 44 H      0.7906     1.0000     0.2094     0.9163     0.9163    -0.0000
 45 H      0.7821     1.0000     0.2179     0.9145     0.9145     0.0000

  Mayer bond orders larger than 0.100000
B(  0-C ,  1-C ) :   0.9919 B(  0-C ,  2-C ) :   0.9919 B(  0-C ,  7-H ) :   0.9063 
B(  0-C ,  8-H ) :   0.9177 B(  1-C ,  3-C ) :   0.9873 B(  1-C ,  9-H ) :   0.9130 
B(  1-C , 10-H ) :   0.9176 B(  2-C ,  4-C ) :   0.9873 B(  2-C , 11-H ) :   0.9130 
B(  2-C , 12-H ) :   0.9176 B(  3-C ,  5-C ) :   0.9956 B(  3-C , 13-H ) :   0.9085 
B(  3-C , 14-H ) :   0.9197 B(  4-C ,  6-C ) :   0.9956 B(  4-C , 15-H ) :   0.9085 
B(  4-C , 16-H ) :   0.9197 B(  5-C , 17-H ) :   0.9264 B(  5-C , 18-H ) :   0.9286 
B(  5-C , 19-H ) :   0.9322 B(  6-C , 20-H ) :   0.9264 B(  6-C , 21-H ) :   0.9286 
B(  6-C , 22-H ) :   0.9322 B( 23-C , 24-C ) :   0.9919 B( 23-C , 25-C ) :   0.9919 
B( 23-C , 30-H ) :   0.9177 B( 23-C , 31-H ) :   0.9063 B( 24-C , 26-C ) :   0.9873 
B( 24-C , 32-H ) :   0.9176 B( 24-C , 33-H ) :   0.9130 B( 25-C , 27-C ) :   0.9873 
B( 25-C , 34-H ) :   0.9176 B( 25-C , 35-H ) :   0.9130 B( 26-C , 28-C ) :   0.9956 
B( 26-C , 36-H ) :   0.9197 B( 26-C , 37-H ) :   0.9085 B( 27-C , 29-C ) :   0.9956 
B( 27-C , 38-H ) :   0.9197 B( 27-C , 39-H ) :   0.9085 B( 28-C , 40-H ) :   0.9286 
B( 28-C , 41-H ) :   0.9264 B( 28-C , 42-H ) :   0.9322 B( 29-C , 43-H ) :   0.9286 
B( 29-C , 44-H ) :   0.9264 B( 29-C , 45-H ) :   0.9322 

-------
TIMINGS
-------

Total SCF time: 0 days 0 hours 3 min 1 sec 

Total time                  ....     181.315 sec
Sum of individual times     ....     174.677 sec  ( 96.3%)

Fock matrix formation       ....     152.641 sec  ( 84.2%)
  Split-RI-J                ....      10.728 sec  (  7.0% of F)
  Chain of spheres X        ....     101.608 sec  ( 66.6% of F)
  XC integration            ....      29.426 sec  ( 19.3% of F)
    Basis function eval.    ....       8.340 sec  ( 28.3% of XC)
    Density eval.           ....       4.486 sec  ( 15.2% of XC)
    XC-Functional eval.     ....       2.024 sec  (  6.9% of XC)
    XC-Potential eval.      ....       2.412 sec  (  8.2% of XC)
Diagonalization             ....       1.036 sec  (  0.6%)
Density matrix formation    ....       0.029 sec  (  0.0%)
Population analysis         ....       0.914 sec  (  0.5%)
Initial guess               ....       0.088 sec  (  0.0%)
Orbital Transformation      ....       0.000 sec  (  0.0%)
Orbital Orthonormalization  ....       0.000 sec  (  0.0%)
DIIS solution               ....       1.464 sec  (  0.8%)
SOSCF solution              ....       0.398 sec  (  0.2%)
Grid generation             ....      18.106 sec  ( 10.0%)

Maximum memory used throughout the entire SCF-calculation: 114.5 MB


-------------------------------------------------------------------------------
                          DFT DISPERSION CORRECTION                            
                                                                               
                              DFTD3 V3.1  Rev 1                                
                          USING Becke-Johnson damping                          
-------------------------------------------------------------------------------
The PBEh-3c composite method is recognized
Using three-body term ABC
Active option DFTDOPT                   ...         4   

molecular C6(AA) [au] = 13435.390107 


            DFT-D V3
 parameters
 s6 scaling factor         :     1.0000 
 a1 scaling factor         :     0.4860 
 s8 scaling factor         :     0.0000 
 a2 scaling factor         :     4.5000 
 Damping factor alpha9(ATM):    16.0000 
 ad hoc parameters k1-k3   :    16.0000     1.3333    -4.0000 

 Edisp/kcal,au: -16.717086095424  -0.026640369593 
 E6   /kcal   : -16.979602125 
 E8   /kcal   :  -0.000000000 
 E6(ABC)      :   0.262516029 
 % E8         :   0.000000000 
 % E6(ABC)    :  -1.570345620 

-------------------------   ----------------
Dispersion correction           -0.026640370
-------------------------   ----------------

------------------   -----------------
gCP correction             0.065791631
------------------   -----------------

-------------------------   --------------------
FINAL SINGLE POINT ENERGY      -551.586839906410
-------------------------   --------------------


                            ***************************************
                            *     ORCA property calculations      *
                            ***************************************

                                    ---------------------
                                    Active property flags
                                    ---------------------
   (+) Dipole Moment


------------------------------------------------------------------------------
                       ORCA ELECTRIC PROPERTIES CALCULATION
------------------------------------------------------------------------------

Dipole Moment Calculation                       ... on
Quadrupole Moment Calculation                   ... off
Polarizability Calculation                      ... off
GBWName                                         ... pbeh-3c.gbw
Electron density                                ... pbeh-3c.scfp
The origin for moment calculation is the CENTER OF MASS  = (-0.000000,  0.000000 -0.000000)

-------------
DIPOLE MOMENT
-------------
                                X             Y             Z
Electronic contribution:     -0.00000       0.00000      -0.00000
Nuclear contribution   :     -0.00000      -0.00000       0.00000
                        -----------------------------------------
Total Dipole Moment    :     -0.00000       0.00000      -0.00000
                        -----------------------------------------
Magnitude (a.u.)       :      0.00000
Magnitude (Debye)      :      0.00000



--------------------
Rotational spectrum 
--------------------
 
Rotational constants in cm-1:     0.019900     0.011814     0.007828 
Rotational constants in MHz :   596.595534   354.180203   234.671014 

 Dipole components along the rotational axes: 
x,y,z [a.u.] :    -0.000000     0.000000    -0.000000 
x,y,z [Debye]:    -0.000000     0.000000    -0.000001 

 

Timings for individual modules:

Sum of individual times         ...      186.352 sec (=   3.106 min)
GTO integral calculation        ...        4.664 sec (=   0.078 min)   2.5 %
SCF iterations                  ...      181.688 sec (=   3.028 min)  97.5 %
                             ****ORCA TERMINATED NORMALLY****
TOTAL RUN TIME: 0 days 0 hours 3 minutes 10 seconds 202 msec
