
                                 *****************
                                 * O   R   C   A *
                                 *****************

                                            #,                                       
                                            ###                                      
                                            ####                                     
                                            #####                                    
                                            ######                                   
                                           ########,                                 
                                     ,,################,,,,,                         
                               ,,#################################,,                 
                          ,,##########################################,,             
                       ,#########################################, ''#####,          
                    ,#############################################,,   '####,        
                  ,##################################################,,,,####,       
                ,###########''''           ''''###############################       
              ,#####''   ,,,,##########,,,,          '''####'''          '####       
            ,##' ,,,,###########################,,,                        '##       
           ' ,,###''''                  '''############,,,                           
         ,,##''                                '''############,,,,        ,,,,,,###''
      ,#''                                            '''#######################'''  
     '                                                          ''''####''''         
             ,#######,   #######,   ,#######,      ##                                
            ,#'     '#,  ##    ##  ,#'     '#,    #''#        ######   ,####,        
            ##       ##  ##   ,#'  ##            #'  '#       #        #'  '#        
            ##       ##  #######   ##           ,######,      #####,   #    #        
            '#,     ,#'  ##    ##  '#,     ,#' ,#      #,         ##   #,  ,#        
             '#######'   ##     ##  '#######'  #'      '#     #####' # '####'        



                  #######################################################
                  #                        -***-                        #
                  #          Department of theory and spectroscopy      #
                  #    Directorship and core code : Frank Neese         #
                  #        Max Planck Institute fuer Kohlenforschung    #
                  #                Kaiser Wilhelm Platz 1               #
                  #                 D-45470 Muelheim/Ruhr               #
                  #                      Germany                        #
                  #                                                     #
                  #                  All rights reserved                #
                  #                        -***-                        #
                  #######################################################


                         Program Version 5.0.3 -  RELEASE  -


 With contributions from (in alphabetic order):
   Daniel Aravena         : Magnetic Suceptibility
   Michael Atanasov       : Ab Initio Ligand Field Theory (pilot matlab implementation)
   Alexander A. Auer      : GIAO ZORA, VPT2 properties, NMR spectrum
   Ute Becker             : Parallelization
   Giovanni Bistoni       : ED, misc. LED, open-shell LED, HFLD
   Martin Brehm           : Molecular dynamics
   Dmytro Bykov           : SCF Hessian
   Vijay G. Chilkuri      : MRCI spin determinant printing, contributions to CSF-ICE
   Dipayan Datta          : RHF DLPNO-CCSD density
   Achintya Kumar Dutta   : EOM-CC, STEOM-CC
   Dmitry Ganyushin       : Spin-Orbit,Spin-Spin,Magnetic field MRCI
   Miquel Garcia          : C-PCM and meta-GGA Hessian, CC/C-PCM, Gaussian charge scheme
   Yang Guo               : DLPNO-NEVPT2, F12-NEVPT2, CIM, IAO-localization
   Andreas Hansen         : Spin unrestricted coupled pair/coupled cluster methods
   Benjamin Helmich-Paris : MC-RPA, TRAH-SCF, COSX integrals
   Lee Huntington         : MR-EOM, pCC
   Robert Izsak           : Overlap fitted RIJCOSX, COSX-SCS-MP3, EOM
   Marcus Kettner         : VPT2
   Christian Kollmar      : KDIIS, OOCD, Brueckner-CCSD(T), CCSD density, CASPT2, CASPT2-K
   Simone Kossmann        : Meta GGA functionals, TD-DFT gradient, OOMP2, MP2 Hessian
   Martin Krupicka        : Initial AUTO-CI
   Lucas Lang             : DCDCAS
   Marvin Lechner         : AUTO-CI (C++ implementation), FIC-MRCC
   Dagmar Lenk            : GEPOL surface, SMD
   Dimitrios Liakos       : Extrapolation schemes; Compound Job, initial MDCI parallelization
   Dimitrios Manganas     : Further ROCIS development; embedding schemes
   Dimitrios Pantazis     : SARC Basis sets
   Anastasios Papadopoulos: AUTO-CI, single reference methods and gradients
   Taras Petrenko         : DFT Hessian,TD-DFT gradient, ASA, ECA, R-Raman, ABS, FL, XAS/XES, NRVS
   Peter Pinski           : DLPNO-MP2, DLPNO-MP2 Gradient
   Christoph Reimann      : Effective Core Potentials
   Marius Retegan         : Local ZFS, SOC
   Christoph Riplinger    : Optimizer, TS searches, QM/MM, DLPNO-CCSD(T), (RO)-DLPNO pert. Triples
   Tobias Risthaus        : Range-separated hybrids, TD-DFT gradient, RPA, STAB
   Michael Roemelt        : Original ROCIS implementation
   Masaaki Saitow         : Open-shell DLPNO-CCSD energy and density
   Barbara Sandhoefer     : DKH picture change effects
   Avijit Sen             : IP-ROCIS
   Kantharuban Sivalingam : CASSCF convergence, NEVPT2, FIC-MRCI
   Bernardo de Souza      : ESD, SOC TD-DFT
   Georgi Stoychev        : AutoAux, RI-MP2 NMR, DLPNO-MP2 response
   Willem Van den Heuvel  : Paramagnetic NMR
   Boris Wezisla          : Elementary symmetry handling
   Frank Wennmohs         : Technical directorship


 We gratefully acknowledge several colleagues who have allowed us to
 interface, adapt or use parts of their codes:
   Stefan Grimme, W. Hujo, H. Kruse, P. Pracht,  : VdW corrections, initial TS optimization,
                  C. Bannwarth, S. Ehlert          DFT functionals, gCP, sTDA/sTD-DF
   Ed Valeev, F. Pavosevic, A. Kumar             : LibInt (2-el integral package), F12 methods
   Garnet Chan, S. Sharma, J. Yang, R. Olivares  : DMRG
   Ulf Ekstrom                                   : XCFun DFT Library
   Mihaly Kallay                                 : mrcc  (arbitrary order and MRCC methods)
   Jiri Pittner, Ondrej Demel                    : Mk-CCSD
   Frank Weinhold                                : gennbo (NPA and NBO analysis)
   Christopher J. Cramer and Donald G. Truhlar   : smd solvation model
   Lars Goerigk                                  : TD-DFT with DH, B97 family of functionals
   V. Asgeirsson, H. Jonsson                     : NEB implementation
   FAccTs GmbH                                   : IRC, NEB, NEB-TS, DLPNO-Multilevel, CI-OPT
                                                   MM, QMMM, 2- and 3-layer-ONIOM, Crystal-QMMM,
                                                   LR-CPCM, SF, NACMEs, symmetry and pop. for TD-DFT,
                                                   nearIR, NL-DFT gradient (VV10), updates on ESD,
                                                   ML-optimized integration grids
   S Lehtola, MJT Oliveira, MAL Marques          : LibXC Library
   Liviu Ungur et al                             : ANISO software


 Your calculation uses the libint2 library for the computation of 2-el integrals
 For citations please refer to: http://libint.valeyev.net

 Your ORCA version has been built with support for libXC version: 5.1.0
 For citations please refer to: https://tddft.org/programs/libxc/

 This ORCA versions uses:
   CBLAS   interface :  Fast vector & matrix operations
   LAPACKE interface :  Fast linear algebra routines
   SCALAPACK package :  Parallel linear algebra routines
   Shared memory     :  Shared parallel matrices
   BLAS/LAPACK       :  OpenBLAS 0.3.15  USE64BITINT DYNAMIC_ARCH NO_AFFINITY Haswell SINGLE_THREADED
        Core in use  :  Haswell
   Copyright (c) 2011-2014, The OpenBLAS Project




***************************************
The coordinates will be read from file: C4H9CHO.xyz
***************************************


Your calculation utilizes the geometrical counterpoise correction gCP
Please cite in your paper:
H.Kruse, S. Grimme J.Chem.Phys., 136, (2012), 154101 
   

Your calculation utilizes the atom-pairwise dispersion correction
with the Becke-Johnson damping scheme (D3BJ)
Cite in your paper:
S.Grimme, S.Ehrlich, L.Goerigk, J Comput Chem, (2011), 32, 1456–1465 
S.Grimme, J.Antony, S.Ehrlich and H.Krieg, J.Chem.Phys., 132, (2010), 154104 
   

Your calculation employs the composite approach PBEh-3c.
Please cite in your paper:
S. Grimme, J. G. Brandenburg, C. Bannwarth, A. Hansen J.Chem.Phys., 143, (2015), 054107 
   

================================================================================

----- Orbital basis set information -----
Your calculation utilizes the basis: def2-mSVP

----- AuxJ basis set information -----
Your calculation utilizes the auxiliary basis: def2/J
   F. Weigend, Phys. Chem. Chem. Phys. 8, 1057 (2006).

================================================================================
                                        WARNINGS
                       Please study these warnings very carefully!
================================================================================


INFO   : the flag for use of the SHARK integral package has been found!

================================================================================
                                       INPUT FILE
================================================================================
NAME = pbeh-3c.inp
|  1> ! PBEh-3c def2/J TightSCF DefGrid3
|  2> 
|  3> %maxcore 60000
|  4> 
|  5> %pal
|  6> nprocs 4
|  7> end
|  8> 
|  9> *xyzfile 0 1 C4H9CHO.xyz
| 10> 
| 11>                          ****END OF INPUT****
================================================================================

                       ****************************
                       * Single Point Calculation *
                       ****************************

---------------------------------
CARTESIAN COORDINATES (ANGSTROEM)
---------------------------------
  C     -1.758234   -0.904607   -1.405470
  H     -1.345310   -1.919717   -1.505098
  H     -1.496230   -0.350537   -2.319294
  H     -2.853343   -0.991517   -1.369725
  C     -1.210289   -0.205310   -0.159194
  H     -1.670582    0.793391   -0.064746
  H     -1.515403   -0.765506    0.741420
  C      0.315378   -0.061453   -0.176201
  H      0.628647    0.503733   -1.068462
  H      0.784337   -1.053578   -0.276293
  C      0.866109    0.627288    1.069305
  H      0.598334    0.078060    1.992545
  H      0.416355    1.629279    1.213099
  C      2.362456    0.819080    1.094248
  H      2.752165    1.315212    2.023350
  O      3.125610    0.486182    0.210515

----------------------------
CARTESIAN COORDINATES (A.U.)
----------------------------
  NO LB      ZA    FRAG     MASS         X           Y           Z
   0 C     6.0000    0    12.011   -3.322580   -1.709460   -2.655953
   1 H     1.0000    0     1.008   -2.542267   -3.627740   -2.844224
   2 H     1.0000    0     1.008   -2.827466   -0.662419   -4.382830
   3 H     1.0000    0     1.008   -5.392037   -1.873696   -2.588404
   4 C     6.0000    0    12.011   -2.287114   -0.387979   -0.300833
   5 H     1.0000    0     1.008   -3.156942    1.499292   -0.122352
   6 H     1.0000    0     1.008   -2.863696   -1.446597    1.401081
   7 C     6.0000    0    12.011    0.595978   -0.116130   -0.332972
   8 H     1.0000    0     1.008    1.187970    0.951918   -2.019100
   9 H     1.0000    0     1.008    1.482183   -1.990974   -0.522118
  10 C     6.0000    0    12.011    1.636708    1.185402    2.020694
  11 H     1.0000    0     1.008    1.130687    0.147512    3.765365
  12 H     1.0000    0     1.008    0.786796    3.078891    2.292426
  13 C     6.0000    0    12.011    4.464396    1.547838    2.067828
  14 H     1.0000    0     1.008    5.200839    2.485391    3.823577
  15 O     8.0000    0    15.999    5.906546    0.918750    0.397816

--------------------------------
INTERNAL COORDINATES (ANGSTROEM)
--------------------------------
 C      0   0   0     0.000000000000     0.00000000     0.00000000
 H      1   0   0     1.100400031699     0.00000000     0.00000000
 H      1   2   0     1.100324566387   107.45624110     0.00000000
 H      1   2   3     1.099134424074   107.69058689   115.77691894
 C      1   2   3     1.530510783667   111.15369884   238.17085108
 H      5   1   2     1.103718342509   109.49993776   182.15994018
 H      5   1   2     1.103639669883   109.48706179   297.87097300
 C      5   1   2     1.532528230721   112.97092750    60.03974838
 H      8   5   1     1.101681831482   109.89067252    58.21211584
 H      8   5   1     1.101931110554   109.88707601   302.54223501
 C      8   5   1     1.526091219400   113.11438447   180.37696656
 H     11   8   5     1.107125659041   111.67952308    58.88748406
 H     11   8   5     1.107674002206   111.57206279   302.94012247
 C     11   8   5     1.508795119655   115.38892994   181.10179511
 H     14  11   8     1.123053974447   114.45497980   180.75332040
 O     14  11   8     1.214169434216   125.20256884     0.89900712

---------------------------
INTERNAL COORDINATES (A.U.)
---------------------------
 C      0   0   0     0.000000000000     0.00000000     0.00000000
 H      1   0   0     2.079454697670     0.00000000     0.00000000
 H      1   2   0     2.079312088897   107.45624110     0.00000000
 H      1   2   3     2.077063045865   107.69058689   115.77691894
 C      1   2   3     2.892246226143   111.15369884   238.17085108
 H      5   1   2     2.085725396327   109.49993776   182.15994018
 H      5   1   2     2.085576726609   109.48706179   297.87097300
 C      5   1   2     2.896058648566   112.97092750    60.03974838
 H      8   5   1     2.081876948218   109.89067252    58.21211584
 H      8   5   1     2.082348017394   109.88707601   302.54223501
 C      8   5   1     2.883894460048   113.11438447   180.37696656
 H     11   8   5     2.092164291425   111.67952308    58.88748406
 H     11   8   5     2.093200509833   111.57206279   302.94012247
 C     11   8   5     2.851209568344   115.38892994   181.10179511
 H     14  11   8     2.122264445316   114.45497980   180.75332040
 O     14  11   8     2.294447710847   125.20256884     0.89900712

---------------------
BASIS SET INFORMATION
---------------------
There are 3 groups of distinct atoms

 Group   1 Type C   : 8s4p1d contracted to 4s2p1d pattern {5111/31/1}
 Group   2 Type H   : 4s contracted to 2s pattern {31}
 Group   3 Type O   : 8s4p1d contracted to 4s2p1d pattern {5111/31/1}

Atom   0C    basis set group =>   1
Atom   1H    basis set group =>   2
Atom   2H    basis set group =>   2
Atom   3H    basis set group =>   2
Atom   4C    basis set group =>   1
Atom   5H    basis set group =>   2
Atom   6H    basis set group =>   2
Atom   7C    basis set group =>   1
Atom   8H    basis set group =>   2
Atom   9H    basis set group =>   2
Atom  10C    basis set group =>   1
Atom  11H    basis set group =>   2
Atom  12H    basis set group =>   2
Atom  13C    basis set group =>   1
Atom  14H    basis set group =>   2
Atom  15O    basis set group =>   3
---------------------------------
AUXILIARY/J BASIS SET INFORMATION
---------------------------------
There are 3 groups of distinct atoms

 Group   1 Type C   : 12s5p4d2f1g contracted to 6s4p3d1f1g pattern {711111/2111/211/2/1}
 Group   2 Type H   : 5s2p1d contracted to 3s1p1d pattern {311/2/1}
 Group   3 Type O   : 12s5p4d2f1g contracted to 6s4p3d1f1g pattern {711111/2111/211/2/1}

Atom   0C    basis set group =>   1
Atom   1H    basis set group =>   2
Atom   2H    basis set group =>   2
Atom   3H    basis set group =>   2
Atom   4C    basis set group =>   1
Atom   5H    basis set group =>   2
Atom   6H    basis set group =>   2
Atom   7C    basis set group =>   1
Atom   8H    basis set group =>   2
Atom   9H    basis set group =>   2
Atom  10C    basis set group =>   1
Atom  11H    basis set group =>   2
Atom  12H    basis set group =>   2
Atom  13C    basis set group =>   1
Atom  14H    basis set group =>   2
Atom  15O    basis set group =>   3


           ************************************************************
           *        Program running with 4 parallel MPI-processes     *
           *              working on a common directory               *
           ************************************************************
------------------------------------------------------------------------------
                           ORCA GTO INTEGRAL CALCULATION
                           -- RI-GTO INTEGRALS CHOSEN --
------------------------------------------------------------------------------
------------------------------------------------------------------------------
                   ___                                                        
                  /   \      - P O W E R E D   B Y -                         
                 /     \                                                     
                 |  |  |   _    _      __       _____    __    __             
                 |  |  |  | |  | |    /  \     |  _  \  |  |  /  |          
                  \  \/   | |  | |   /    \    | | | |  |  | /  /          
                 / \  \   | |__| |  /  /\  \   | |_| |  |  |/  /          
                |  |  |   |  __  | /  /__\  \  |    /   |      \           
                |  |  |   | |  | | |   __   |  |    \   |  |\   \          
                \     /   | |  | | |  |  |  |  | |\  \  |  | \   \       
                 \___/    |_|  |_| |__|  |__|  |_| \__\ |__|  \__/        
                                                                              
                      - O R C A' S   B I G   F R I E N D -                    
                                      &                                       
                       - I N T E G R A L  F E E D E R -                       
                                                                              
 v1 FN, 2020, v2 2021                                                         
------------------------------------------------------------------------------


Reading SHARK input file pbeh-3c.SHARKINP.tmp ... ok
----------------------
SHARK INTEGRAL PACKAGE
----------------------

Number of atoms                             ...     16
Number of basis functions                   ...    110
Number of shells                            ...     62
Maximum angular momentum                    ...      2
Integral batch strategy                     ... SHARK/LIBINT Hybrid
RI-J (if used) integral strategy            ... SPLIT-RIJ (Revised 2003 algorithm where possible)
Printlevel                                  ...      1
Contraction scheme used                     ... SEGMENTED contraction
Coulomb Range Separation                    ... NOT USED
Exchange Range Separation                   ... NOT USED
Finite Nucleus Model                        ... NOT USED
Auxiliary Coulomb fitting basis             ... AVAILABLE
   # of basis functions in Aux-J            ...    404
   # of shells in Aux-J                     ...    140
   Maximum angular momentum in Aux-J        ...      4
Auxiliary J/K fitting basis                 ... NOT available
Auxiliary Correlation fitting basis         ... NOT available
Auxiliary 'external' fitting basis          ... NOT available
Integral threshold                          ...     2.500000e-11
Primitive cut-off                           ...     2.500000e-12
Primitive pair pre-selection threshold      ...     2.500000e-12

Calculating pre-screening integrals         ... done (  0.1 sec) Dimension = 62
Organizing shell pair data                  ... done (  0.2 sec)
Shell pair information
Total number of shell pairs                 ...      1953
Shell pairs after pre-screening             ...      1761
Total number of primitive shell pairs       ...      7129
Primitive shell pairs kept                  ...      4679
          la=0 lb=0:    864 shell pairs
          la=1 lb=0:    500 shell pairs
          la=1 lb=1:     77 shell pairs
          la=2 lb=0:    231 shell pairs
          la=2 lb=1:     70 shell pairs
          la=2 lb=2:     19 shell pairs

Calculating one electron integrals          ... done (  0.0 sec)
Calculating RI/J V-Matrix + Cholesky decomp.... done (  0.5 sec)
Calculating Nuclear repulsion               ... done (  0.1 sec) ENN=    229.805507707325 Eh

SHARK setup successfully completed in   1.9 seconds

Maximum memory used throughout the entire GTOINT-calculation: 10.5 MB


           ************************************************************
           *        Program running with 4 parallel MPI-processes     *
           *              working on a common directory               *
           ************************************************************
-------------------------------------------------------------------------------
                                 ORCA SCF
-------------------------------------------------------------------------------

------------
SCF SETTINGS
------------
Hamiltonian:
 Density Functional     Method          .... DFT(GTOs)
 Exchange Functional    Exchange        .... PBE
   PBE kappa parameter   XKappa         ....  1.024500
   PBE mue parameter    XMuePBE         ....  0.123457
 Correlation Functional Correlation     .... PBE
   PBE beta parameter  CBetaPBE         ....  0.030000
 LDA part of GGA corr.  LDAOpt          .... PW91-LDA
 Gradients option       PostSCFGGA      .... off
 Hybrid DFT is turned on
   Fraction HF Exchange ScalHFX         ....  0.420000
   Scaling of DF-GGA-X  ScalDFX         ....  0.580000
   Scaling of DF-GGA-C  ScalDFC         ....  1.000000
   Scaling of DF-LDA-C  ScalLDAC        ....  1.000000
   Perturbative correction              ....  0.000000
   Density functional embedding theory  .... OFF
 RI-approximation to the Coulomb term is turned on
   Number of AuxJ basis functions       .... 404
   RIJ-ON(X) (HFX calculated with O(N)) .... on
   Number of AuxJ basis functions       .... 404
   RIJ-COSX (HFX calculated with COS-X)).... on


General Settings:
 Integral files         IntName         .... pbeh-3c
 Hartree-Fock type      HFTyp           .... RHF
 Total Charge           Charge          ....    0
 Multiplicity           Mult            ....    1
 Number of Electrons    NEL             ....   48
 Basis Dimension        Dim             ....  110
 Nuclear Repulsion      ENuc            ....    229.8055077073 Eh

Convergence Acceleration:
 DIIS                   CNVDIIS         .... on
   Start iteration      DIISMaxIt       ....    12
   Startup error        DIISStart       ....  0.200000
   # of expansion vecs  DIISMaxEq       ....     5
   Bias factor          DIISBfac        ....   1.050
   Max. coefficient     DIISMaxC        ....  10.000
 Trust-Rad. Augm. Hess. CNVTRAH         .... auto
   Auto Start mean grad. ratio tolernc. ....  1.125000
   Auto Start start iteration           ....    20
   Auto Start num. interpolation iter.  ....    10
   Max. Number of Micro iterations      ....    16
   Max. Number of Macro iterations      .... Maxiter - #DIIS iter
   Number of Davidson start vectors     ....     2
   Converg. threshold I  (grad. norm)   ....   1.000e-05
   Converg. threshold II (energy diff.) ....   1.000e-08
   Grad. Scal. Fac. for Micro threshold ....   0.100
   Minimum threshold for Micro iter.    ....   0.010
   NR start threshold (gradient norm)   ....   0.001
   Initial trust radius                 ....   0.400
   Minimum AH scaling param. (alpha)    ....   1.000
   Maximum AH scaling param. (alpha)    .... 1000.000
   Orbital update algorithm             .... Taylor
   White noise on init. David. guess    .... on
   Maximum white noise                  ....   0.010
   Quad. conv. algorithm                .... NR
   COSX micro iterations for RIJONX calc.... off
 SOSCF                  CNVSOSCF        .... on
   Start iteration      SOSCFMaxIt      ....   150
   Startup grad/error   SOSCFStart      ....  0.003300
 Level Shifting         CNVShift        .... on
   Level shift para.    LevelShift      ....    0.2500
   Turn off err/grad.   ShiftErr        ....    0.0010
 Zerner damping         CNVZerner       .... off
 Static damping         CNVDamp         .... on
   Fraction old density DampFac         ....    0.7000
   Max. Damping (<1)    DampMax         ....    0.9800
   Min. Damping (>=0)   DampMin         ....    0.0000
   Turn off err/grad.   DampErr         ....    0.1000
 Fernandez-Rico         CNVRico         .... off

SCF Procedure:
 Maximum # iterations   MaxIter         ....   125
 SCF integral mode      SCFMode         .... Direct
   Integral package                     .... SHARK and LIBINT hybrid scheme
 Reset frequency        DirectResetFreq ....    20
 Integral Threshold     Thresh          ....  2.500e-11 Eh
 Primitive CutOff       TCut            ....  2.500e-12 Eh

Convergence Tolerance:
 Convergence Check Mode ConvCheckMode   .... Total+1el-Energy
 Convergence forced     ConvForced      .... 0
 Energy Change          TolE            ....  1.000e-08 Eh
 1-El. energy change                    ....  1.000e-05 Eh
 Orbital Gradient       TolG            ....  1.000e-05
 Orbital Rotation angle TolX            ....  1.000e-05
 DIIS Error             TolErr          ....  5.000e-07


Diagonalization of the overlap matrix:
Smallest eigenvalue                        ... 4.770e-03
Time for diagonalization                   ...    0.002 sec
Threshold for overlap eigenvalues          ... 1.000e-08
Number of eigenvalues below threshold      ... 0
Time for construction of square roots      ...    0.294 sec
Total time needed                          ...    0.333 sec

--------------------------------
INITIAL GUESS: MINIMAL BASIS EHT
--------------------------------
The minimal basis has 40 functions
EHT matrix was diagonalized
Basis set overlap was calculated now projecting the orbitals
Using GuessMode=FMatrix for the initial guess
C*T matrix was formed
Effective Fockian was calculated
Effective Fockian was diagonalized
Initial density was built
                      ------------------
                      INITIAL GUESS DONE
                      ------------------
-------------------
DFT GRID GENERATION
-------------------

General Integration Accuracy     IntAcc      ... 4.959
Radial Grid Type                 RadialGrid  ... OptM3 with GC (2021)
Angular Grid (max. ang.)         AngularGrid ... 6 (Lebedev-590)
Angular grid pruning method      GridPruning ... 4 (adaptive)
Weight generation scheme         WeightScheme... Becke
Basis function cutoff            BFCut       ... 1.0000e-11
Integration weight cutoff        WCut        ... 1.0000e-14
Angular grids for H and He will be reduced by one unit
Partially contracted basis set               ... off
Rotationally invariant grid construction     ... off

Total number of grid points                  ...   173137
Total number of batches                      ...     2713
Average number of points per batch           ...       63
Average number of grid points per atom       ...    10821
Time for grid setup =    3.202 sec

--------------------
COSX GRID GENERATION
--------------------

GRIDX 1
-------
General Integration Accuracy     IntAcc      ... 4.020
Radial Grid Type                 RadialGrid  ... OptM3 with GC (2021)
Angular Grid (max. ang.)         AngularGrid ... 2 (Lebedev-110)
Angular grid pruning method      GridPruning ... 4 (adaptive)
Weight generation scheme         WeightScheme... Becke
Basis function cutoff            BFCut       ... 1.0000e-11
Integration weight cutoff        WCut        ... 1.0000e-14
Angular grids for H and He will be reduced by one unit
Partially contracted basis set               ... on
Rotationally invariant grid construction     ... off

Total number of grid points                  ...    18543
Total number of batches                      ...      299
Average number of points per batch           ...       62
Average number of grid points per atom       ...     1159
UseSFitting                                  ... on

GRIDX 2
-------
General Integration Accuracy     IntAcc      ... 4.338
Radial Grid Type                 RadialGrid  ... OptM3 with GC (2021)
Angular Grid (max. ang.)         AngularGrid ... 3 (Lebedev-194)
Angular grid pruning method      GridPruning ... 4 (adaptive)
Weight generation scheme         WeightScheme... Becke
Basis function cutoff            BFCut       ... 1.0000e-11
Integration weight cutoff        WCut        ... 1.0000e-14
Angular grids for H and He will be reduced by one unit
Partially contracted basis set               ... on
Rotationally invariant grid construction     ... off

Total number of grid points                  ...    40519
Total number of batches                      ...      641
Average number of points per batch           ...       63
Average number of grid points per atom       ...     2532
UseSFitting                                  ... on

GRIDX 3
-------
General Integration Accuracy     IntAcc      ... 4.871
Radial Grid Type                 RadialGrid  ... OptM3 with GC (2021)
Angular Grid (max. ang.)         AngularGrid ... 4 (Lebedev-302)
Angular grid pruning method      GridPruning ... 4 (adaptive)
Weight generation scheme         WeightScheme... Becke
Basis function cutoff            BFCut       ... 1.0000e-11
Integration weight cutoff        WCut        ... 1.0000e-14
Angular grids for H and He will be reduced by one unit
Partially contracted basis set               ... on
Rotationally invariant grid construction     ... off

Total number of grid points                  ...    79808
Total number of batches                      ...     1254
Average number of points per batch           ...       63
Average number of grid points per atom       ...     4988
UseSFitting                                  ... on

Time for X-Grid setup             =    5.108 sec

--------------
SCF ITERATIONS
--------------
ITER       Energy         Delta-E        Max-DP      RMS-DP      [F,P]     Damp
               ***  Starting incremental Fock matrix formation  ***
  0   -270.4116223686   0.000000000000 0.17984895  0.00686199  0.5134644 0.7000
  1   -270.7038855721  -0.292263203445 0.09995645  0.00354366  0.2781631 0.7000
                               ***Turning on DIIS***
  2   -270.8473634066  -0.143477834507 0.04333847  0.00176985  0.1963551 0.7000
  3   -270.9494541737  -0.102090767061 0.03046891  0.00123883  0.1379074 0.7000
  4   -271.0231079796  -0.073653805918 0.06205616  0.00295720  0.0964404 0.0000
  5   -271.1979228821  -0.174814902518 0.00901104  0.00023450  0.0037444 0.0000
  6   -271.1980091211  -0.000086239044 0.00227627  0.00007202  0.0036155 0.0000
                      *** Initiating the SOSCF procedure ***
                           *** Shutting down DIIS ***
                      *** Re-Reading the Fockian *** 
                      *** Removing any level shift *** 
ITER      Energy       Delta-E        Grad      Rot      Max-DP    RMS-DP
  7   -271.19802735  -0.0000182283  0.000345  0.000345  0.001722  0.000046
               *** Restarting incremental Fock matrix formation ***
  8   -271.19803626  -0.0000089108  0.000203  0.000471  0.000795  0.000024
  9   -271.19803699  -0.0000007297  0.000119  0.000149  0.000795  0.000020
 10   -271.19803714  -0.0000001481  0.000063  0.000049  0.000272  0.000007
 11   -271.19803719  -0.0000000549  0.000029  0.000050  0.000082  0.000003
 12   -271.19803720  -0.0000000116  0.000007  0.000014  0.000053  0.000001
                  ***Gradient check signals convergence***
              ***Rediagonalizing the Fockian in SOSCF/NRSCF***

               *****************************************************
               *                     SUCCESS                       *
               *           SCF CONVERGED AFTER  13 CYCLES          *
               *****************************************************

Old exchange energy                            =    -15.804206369 Eh
New exchange energy                            =    -15.804207699 Eh
Exchange energy change after final integration =     -0.000001330 Eh
Total energy after final integration           =   -271.198038534 Eh
Final COS-X integration done in                =     3.132 sec

----------------
TOTAL SCF ENERGY
----------------

Total Energy       :         -271.19803853 Eh           -7379.67380 eV

Components:
Nuclear Repulsion  :          229.80550771 Eh            6253.32578 eV
Electronic Energy  :         -501.00354624 Eh          -13632.99958 eV
One Electron Energy:         -821.65774978 Eh          -22358.44405 eV
Two Electron Energy:          320.65420353 Eh            8725.44447 eV
Max COSX asymmetry :            0.00000120 Eh               0.00003 eV

Virial components:
Potential Energy   :         -540.08297725 Eh          -14696.40496 eV
Kinetic Energy     :          268.88493872 Eh            7316.73116 eV
Virial Ratio       :            2.00860256


DFT components:
N(Alpha)           :       23.999997786036 electrons
N(Beta)            :       23.999997786036 electrons
N(Total)           :       47.999995572073 electrons
E(X)               :      -20.980516991112 Eh       
E(C)               :       -2.054181635703 Eh       
E(XC)              :      -23.034698626815 Eh       
DFET-embed. en.    :        0.000000000000 Eh       

---------------
SCF CONVERGENCE
---------------

  Last Energy change         ...    3.8801e-10  Tolerance :   1.0000e-08
  Last MAX-Density change    ...    2.5535e-15  Tolerance :   1.0000e-07
  Last RMS-Density change    ...    4.7593e-17  Tolerance :   5.0000e-09
  Last Orbital Gradient      ...    1.7001e-06  Tolerance :   1.0000e-05
  Last Orbital Rotation      ...    1.4165e-06  Tolerance :   1.0000e-05

             **** THE GBW FILE WAS UPDATED (pbeh-3c.gbw) ****
             **** DENSITY pbeh-3c.scfp WAS UPDATED ****
             **** ENERGY FILE WAS UPDATED (pbeh-3c.en.tmp) ****
             **** THE GBW FILE WAS UPDATED (pbeh-3c.gbw) ****
             **** DENSITY pbeh-3c.scfp WAS UPDATED ****
----------------
ORBITAL ENERGIES
----------------

  NO   OCC          E(Eh)            E(eV) 
   0   2.0000     -19.496954      -530.5391 
   1   2.0000     -10.538017      -286.7540 
   2   2.0000     -10.455916      -284.5199 
   3   2.0000     -10.441439      -284.1260 
   4   2.0000     -10.441183      -284.1190 
   5   2.0000     -10.429248      -283.7943 
   6   2.0000      -1.153978       -31.4013 
   7   2.0000      -0.899532       -24.4775 
   8   2.0000      -0.837388       -22.7865 
   9   2.0000      -0.746728       -20.3195 
  10   2.0000      -0.665079       -18.0977 
  11   2.0000      -0.626725       -17.0541 
  12   2.0000      -0.544233       -14.8093 
  13   2.0000      -0.542584       -14.7645 
  14   2.0000      -0.504320       -13.7232 
  15   2.0000      -0.492424       -13.3995 
  16   2.0000      -0.480382       -13.0718 
  17   2.0000      -0.436599       -11.8805 
  18   2.0000      -0.432251       -11.7622 
  19   2.0000      -0.401363       -10.9216 
  20   2.0000      -0.396423       -10.7872 
  21   2.0000      -0.387018       -10.5313 
  22   2.0000      -0.376794       -10.2531 
  23   2.0000      -0.310386        -8.4460 
  24   0.0000       0.013422         0.3652 
  25   0.0000       0.128720         3.5027 
  26   0.0000       0.153491         4.1767 
  27   0.0000       0.173583         4.7234 
  28   0.0000       0.176083         4.7915 
  29   0.0000       0.192625         5.2416 
  30   0.0000       0.203352         5.5335 
  31   0.0000       0.216216         5.8835 
  32   0.0000       0.223530         6.0826 
  33   0.0000       0.225900         6.1470 
  34   0.0000       0.243098         6.6150 
  35   0.0000       0.244860         6.6630 
  36   0.0000       0.260792         7.0965 
  37   0.0000       0.273659         7.4466 
  38   0.0000       0.326179         8.8758 
  39   0.0000       0.356641         9.7047 
  40   0.0000       0.483863        13.1666 
  41   0.0000       0.510871        13.9015 
  42   0.0000       0.524920        14.2838 
  43   0.0000       0.536447        14.5975 
  44   0.0000       0.538523        14.6540 
  45   0.0000       0.564211        15.3530 
  46   0.0000       0.604759        16.4563 
  47   0.0000       0.659464        17.9449 
  48   0.0000       0.662881        18.0379 
  49   0.0000       0.670984        18.2584 
  50   0.0000       0.705891        19.2083 
  51   0.0000       0.721228        19.6256 
  52   0.0000       0.740486        20.1497 
  53   0.0000       0.827886        22.5279 
  54   0.0000       0.851626        23.1739 
  55   0.0000       0.934386        25.4259 
  56   0.0000       0.946954        25.7679 
  57   0.0000       0.958837        26.0913 
  58   0.0000       0.982269        26.7289 
  59   0.0000       0.999251        27.1910 
  60   0.0000       1.022143        27.8139 
  61   0.0000       1.038625        28.2624 
  62   0.0000       1.040956        28.3258 
  63   0.0000       1.051535        28.6137 
  64   0.0000       1.067418        29.0459 
  65   0.0000       1.069963        29.1152 
  66   0.0000       1.082839        29.4655 
  67   0.0000       1.109650        30.1951 
  68   0.0000       1.137474        30.9523 
  69   0.0000       1.212031        32.9810 
  70   0.0000       1.359377        36.9905 
  71   0.0000       1.412282        38.4301 
  72   0.0000       1.448849        39.4252 
  73   0.0000       1.534377        41.7525 
  74   0.0000       1.584354        43.1125 
  75   0.0000       1.614898        43.9436 
  76   0.0000       1.685990        45.8781 
  77   0.0000       1.748465        47.5781 
  78   0.0000       1.787107        48.6297 
  79   0.0000       1.838504        50.0282 
  80   0.0000       1.868854        50.8541 
  81   0.0000       1.898735        51.6672 
  82   0.0000       1.956226        53.2316 
  83   0.0000       1.956999        53.2526 
  84   0.0000       2.001556        54.4651 
  85   0.0000       2.036297        55.4105 
  86   0.0000       2.060880        56.0794 
  87   0.0000       2.068362        56.2830 
  88   0.0000       2.128331        57.9148 
  89   0.0000       2.192520        59.6615 
  90   0.0000       2.238871        60.9228 
  91   0.0000       2.309228        62.8373 
  92   0.0000       2.343904        63.7809 
  93   0.0000       2.367683        64.4279 
  94   0.0000       2.462333        67.0035 
  95   0.0000       2.467997        67.1576 
  96   0.0000       2.483011        67.5662 
  97   0.0000       2.543362        69.2084 
  98   0.0000       2.607629        70.9572 
  99   0.0000       2.664190        72.4963 
 100   0.0000       2.726414        74.1895 
 101   0.0000       2.823912        76.8426 
 102   0.0000       2.943438        80.0950 
 103   0.0000       3.022747        82.2531 
 104   0.0000      13.527480       368.1014 
 105   0.0000      13.715527       373.2185 
 106   0.0000      13.867066       377.3421 
 107   0.0000      13.980034       380.4161 
 108   0.0000      14.067740       382.8027 
 109   0.0000      25.609287       696.8641 

                    ********************************
                    * MULLIKEN POPULATION ANALYSIS *
                    ********************************

-----------------------
MULLIKEN ATOMIC CHARGES
-----------------------
   0 C :   -0.635580
   1 H :    0.211816
   2 H :    0.212028
   3 H :    0.219095
   4 C :   -0.408424
   5 H :    0.203578
   6 H :    0.203387
   7 C :   -0.398418
   8 H :    0.225179
   9 H :    0.223584
  10 C :   -0.539015
  11 H :    0.237606
  12 H :    0.237982
  13 C :    0.170311
  14 H :    0.160732
  15 O :   -0.323861
Sum of atomic charges:   -0.0000000

--------------------------------
MULLIKEN REDUCED ORBITAL CHARGES
--------------------------------
  0 C s       :     3.382161  s :     3.382161
      pz      :     1.014279  p :     3.216769
      px      :     1.112038
      py      :     1.090452
      dz2     :     0.010194  d :     0.036651
      dxz     :     0.003618
      dyz     :     0.008073
      dx2y2   :     0.010497
      dxy     :     0.004269
  1 H s       :     0.788184  s :     0.788184
  2 H s       :     0.787972  s :     0.787972
  3 H s       :     0.780905  s :     0.780905
  4 C s       :     3.325655  s :     3.325655
      pz      :     1.019076  p :     3.039188
      px      :     0.940306
      py      :     1.079806
      dz2     :     0.010091  d :     0.043581
      dxz     :     0.006965
      dyz     :     0.008633
      dx2y2   :     0.009343
      dxy     :     0.008549
  5 H s       :     0.796422  s :     0.796422
  6 H s       :     0.796613  s :     0.796613
  7 C s       :     3.323351  s :     3.323351
      pz      :     0.994463  p :     3.032454
      px      :     0.944763
      py      :     1.093227
      dz2     :     0.009440  d :     0.042613
      dxz     :     0.007117
      dyz     :     0.008709
      dx2y2   :     0.008672
      dxy     :     0.008675
  8 H s       :     0.774821  s :     0.774821
  9 H s       :     0.776416  s :     0.776416
 10 C s       :     3.360526  s :     3.360526
      pz      :     1.066602  p :     3.137113
      px      :     0.960432
      py      :     1.110079
      dz2     :     0.010964  d :     0.041377
      dxz     :     0.005581
      dyz     :     0.008348
      dx2y2   :     0.010548
      dxy     :     0.005935
 11 H s       :     0.762394  s :     0.762394
 12 H s       :     0.762018  s :     0.762018
 13 C s       :     3.210997  s :     3.210997
      pz      :     0.888992  p :     2.526932
      px      :     0.881556
      py      :     0.756384
      dz2     :     0.025590  d :     0.091760
      dxz     :     0.023011
      dyz     :     0.014344
      dx2y2   :     0.016564
      dxy     :     0.012252
 14 H s       :     0.839268  s :     0.839268
 15 O s       :     3.776282  s :     3.776282
      pz      :     1.496043  p :     4.517016
      px      :     1.647221
      py      :     1.373752
      dz2     :     0.007764  d :     0.030563
      dxz     :     0.007917
      dyz     :     0.005841
      dx2y2   :     0.003609
      dxy     :     0.005432


                     *******************************
                     * LOEWDIN POPULATION ANALYSIS *
                     *******************************

----------------------
LOEWDIN ATOMIC CHARGES
----------------------
   0 C :   -0.360881
   1 H :    0.125319
   2 H :    0.125420
   3 H :    0.127353
   4 C :   -0.245260
   5 H :    0.119042
   6 H :    0.118947
   7 C :   -0.238207
   8 H :    0.132427
   9 H :    0.131748
  10 C :   -0.291824
  11 H :    0.144780
  12 H :    0.145373
  13 C :    0.069498
  14 H :    0.084476
  15 O :   -0.188211

-------------------------------
LOEWDIN REDUCED ORBITAL CHARGES
-------------------------------
  0 C s       :     2.957947  s :     2.957947
      pz      :     1.094408  p :     3.334975
      px      :     1.119891
      py      :     1.120676
      dz2     :     0.019256  d :     0.067959
      dxz     :     0.007670
      dyz     :     0.015707
      dx2y2   :     0.017902
      dxy     :     0.007424
  1 H s       :     0.874681  s :     0.874681
  2 H s       :     0.874580  s :     0.874580
  3 H s       :     0.872647  s :     0.872647
  4 C s       :     2.915205  s :     2.915205
      pz      :     1.085299  p :     3.241821
      px      :     1.056706
      py      :     1.099815
      dz2     :     0.020337  d :     0.088234
      dxz     :     0.015049
      dyz     :     0.016556
      dx2y2   :     0.019669
      dxy     :     0.016622
  5 H s       :     0.880958  s :     0.880958
  6 H s       :     0.881053  s :     0.881053
  7 C s       :     2.912012  s :     2.912012
      pz      :     1.074451  p :     3.239135
      px      :     1.057560
      py      :     1.107124
      dz2     :     0.019288  d :     0.087060
      dxz     :     0.015786
      dyz     :     0.016895
      dx2y2   :     0.018403
      dxy     :     0.016689
  8 H s       :     0.867573  s :     0.867573
  9 H s       :     0.868252  s :     0.868252
 10 C s       :     2.930621  s :     2.930621
      pz      :     1.096886  p :     3.276430
      px      :     1.077582
      py      :     1.101963
      dz2     :     0.021729  d :     0.084773
      dxz     :     0.012704
      dyz     :     0.016064
      dx2y2   :     0.021960
      dxy     :     0.012317
 11 H s       :     0.855220  s :     0.855220
 12 H s       :     0.854627  s :     0.854627
 13 C s       :     2.933474  s :     2.933474
      pz      :     0.977294  p :     2.796312
      px      :     1.035482
      py      :     0.783536
      dz2     :     0.056931  d :     0.200716
      dxz     :     0.049964
      dyz     :     0.028097
      dx2y2   :     0.041583
      dxy     :     0.024141
 14 H s       :     0.915524  s :     0.915524
 15 O s       :     3.530980  s :     3.530980
      pz      :     1.551089  p :     4.599806
      px      :     1.677256
      py      :     1.371461
      dz2     :     0.014017  d :     0.057426
      dxz     :     0.017987
      dyz     :     0.010036
      dx2y2   :     0.007577
      dxy     :     0.007809


                      *****************************
                      * MAYER POPULATION ANALYSIS *
                      *****************************

  NA   - Mulliken gross atomic population
  ZA   - Total nuclear charge
  QA   - Mulliken gross atomic charge
  VA   - Mayer's total valence
  BVA  - Mayer's bonded valence
  FA   - Mayer's free valence

  ATOM       NA         ZA         QA         VA         BVA        FA
  0 C      6.6356     6.0000    -0.6356     3.7426     3.7426    -0.0000
  1 H      0.7882     1.0000     0.2118     0.9146     0.9146    -0.0000
  2 H      0.7880     1.0000     0.2120     0.9145     0.9145     0.0000
  3 H      0.7809     1.0000     0.2191     0.9141     0.9141    -0.0000
  4 C      6.4084     6.0000    -0.4084     3.7504     3.7504    -0.0000
  5 H      0.7964     1.0000     0.2036     0.9091     0.9091    -0.0000
  6 H      0.7966     1.0000     0.2034     0.9090     0.9090    -0.0000
  7 C      6.3984     6.0000    -0.3984     3.7202     3.7202    -0.0000
  8 H      0.7748     1.0000     0.2252     0.9067     0.9067    -0.0000
  9 H      0.7764     1.0000     0.2236     0.9069     0.9069    -0.0000
 10 C      6.5390     6.0000    -0.5390     3.6315     3.6315    -0.0000
 11 H      0.7624     1.0000     0.2376     0.8996     0.8996    -0.0000
 12 H      0.7620     1.0000     0.2380     0.8993     0.8993     0.0000
 13 C      5.8297     6.0000     0.1703     3.8905     3.8905    -0.0000
 14 H      0.8393     1.0000     0.1607     0.9094     0.9094    -0.0000
 15 O      8.3239     8.0000    -0.3239     2.2139     2.2139     0.0000

  Mayer bond orders larger than 0.100000
B(  0-C ,  1-H ) :   0.9282 B(  0-C ,  2-H ) :   0.9281 B(  0-C ,  3-H ) :   0.9310 
B(  0-C ,  4-C ) :   0.9970 B(  4-C ,  5-H ) :   0.9199 B(  4-C ,  6-H ) :   0.9199 
B(  4-C ,  7-C ) :   0.9789 B(  7-C ,  8-H ) :   0.9145 B(  7-C ,  9-H ) :   0.9153 
B(  7-C , 10-C ) :   0.9668 B( 10-C , 11-H ) :   0.8983 B( 10-C , 12-H ) :   0.8976 
B( 10-C , 13-C ) :   0.9188 B( 13-C , 14-H ) :   0.8750 B( 13-C , 15-O ) :   2.1246 


-------
TIMINGS
-------

Total SCF time: 0 days 0 hours 1 min 34 sec 

Total time                  ....      94.042 sec
Sum of individual times     ....      85.780 sec  ( 91.2%)

Fock matrix formation       ....      70.338 sec  ( 74.8%)
  Split-RI-J                ....       8.375 sec  ( 11.9% of F)
  Chain of spheres X        ....      24.578 sec  ( 34.9% of F)
  XC integration            ....      18.261 sec  ( 26.0% of F)
    Basis function eval.    ....       2.958 sec  ( 16.2% of XC)
    Density eval.           ....       1.734 sec  (  9.5% of XC)
    XC-Functional eval.     ....       1.625 sec  (  8.9% of XC)
    XC-Potential eval.      ....       0.850 sec  (  4.7% of XC)
Diagonalization             ....       1.353 sec  (  1.4%)
Density matrix formation    ....       0.035 sec  (  0.0%)
Population analysis         ....       0.704 sec  (  0.7%)
Initial guess               ....       0.052 sec  (  0.1%)
Orbital Transformation      ....       0.000 sec  (  0.0%)
Orbital Orthonormalization  ....       0.000 sec  (  0.0%)
DIIS solution               ....       3.134 sec  (  3.3%)
SOSCF solution              ....       1.853 sec  (  2.0%)
Grid generation             ....       8.311 sec  (  8.8%)

Maximum memory used throughout the entire SCF-calculation: 52.8 MB


-------------------------------------------------------------------------------
                          DFT DISPERSION CORRECTION                            
                                                                               
                              DFTD3 V3.1  Rev 1                                
                          USING Becke-Johnson damping                          
-------------------------------------------------------------------------------
The PBEh-3c composite method is recognized
Using three-body term ABC
Active option DFTDOPT                   ...         4   

molecular C6(AA) [au] = 1866.658617 


            DFT-D V3
 parameters
 s6 scaling factor         :     1.0000 
 a1 scaling factor         :     0.4860 
 s8 scaling factor         :     0.0000 
 a2 scaling factor         :     4.5000 
 Damping factor alpha9(ATM):    16.0000 
 ad hoc parameters k1-k3   :    16.0000     1.3333    -4.0000 

 Edisp/kcal,au: -4.180414124801  -0.006661913249 
 E6   /kcal   :  -4.187728116 
 E8   /kcal   :  -0.000000000 
 E6(ABC)      :   0.007313992 
 % E8         :   0.000000000 
 % E6(ABC)    :  -0.174958542 

-------------------------   ----------------
Dispersion correction           -0.006661913
-------------------------   ----------------

------------------   -----------------
gCP correction             0.025162063
------------------   -----------------

-------------------------   --------------------
FINAL SINGLE POINT ENERGY      -271.179538384323
-------------------------   --------------------


                            ***************************************
                            *     ORCA property calculations      *
                            ***************************************

                                    ---------------------
                                    Active property flags
                                    ---------------------
   (+) Dipole Moment


------------------------------------------------------------------------------
                       ORCA ELECTRIC PROPERTIES CALCULATION
------------------------------------------------------------------------------

Dipole Moment Calculation                       ... on
Quadrupole Moment Calculation                   ... off
Polarizability Calculation                      ... off
GBWName                                         ... pbeh-3c.gbw
Electron density                                ... pbeh-3c.scfp
The origin for moment calculation is the CENTER OF MASS  = ( 1.166898,  0.226286  0.171274)

-------------
DIPOLE MOMENT
-------------
                                X             Y             Z
Electronic contribution:      8.37287       2.02489       2.05391
Nuclear contribution   :     -9.22832      -1.83212      -1.44259
                        -----------------------------------------
Total Dipole Moment    :     -0.85545       0.19277       0.61132
                        -----------------------------------------
Magnitude (a.u.)       :      1.06896
Magnitude (Debye)      :      2.71708



--------------------
Rotational spectrum 
--------------------
 
Rotational constants in cm-1:     0.347359     0.048052     0.043575 
Rotational constants in MHz : 10413.552880  1440.555633  1306.348427 

 Dipole components along the rotational axes: 
x,y,z [a.u.] :    -0.490910     0.949550    -0.005989 
x,y,z [Debye]:    -1.247795     2.413565    -0.015224 

 

Timings for individual modules:

Sum of individual times         ...       98.169 sec (=   1.636 min)
GTO integral calculation        ...        3.028 sec (=   0.050 min)   3.1 %
SCF iterations                  ...       95.141 sec (=   1.586 min)  96.9 %
                             ****ORCA TERMINATED NORMALLY****
TOTAL RUN TIME: 0 days 0 hours 1 minutes 45 seconds 865 msec
