
                                 *****************
                                 * O   R   C   A *
                                 *****************

                                            #,                                       
                                            ###                                      
                                            ####                                     
                                            #####                                    
                                            ######                                   
                                           ########,                                 
                                     ,,################,,,,,                         
                               ,,#################################,,                 
                          ,,##########################################,,             
                       ,#########################################, ''#####,          
                    ,#############################################,,   '####,        
                  ,##################################################,,,,####,       
                ,###########''''           ''''###############################       
              ,#####''   ,,,,##########,,,,          '''####'''          '####       
            ,##' ,,,,###########################,,,                        '##       
           ' ,,###''''                  '''############,,,                           
         ,,##''                                '''############,,,,        ,,,,,,###''
      ,#''                                            '''#######################'''  
     '                                                          ''''####''''         
             ,#######,   #######,   ,#######,      ##                                
            ,#'     '#,  ##    ##  ,#'     '#,    #''#        ######   ,####,        
            ##       ##  ##   ,#'  ##            #'  '#       #        #'  '#        
            ##       ##  #######   ##           ,######,      #####,   #    #        
            '#,     ,#'  ##    ##  '#,     ,#' ,#      #,         ##   #,  ,#        
             '#######'   ##     ##  '#######'  #'      '#     #####' # '####'        



                  #######################################################
                  #                        -***-                        #
                  #          Department of theory and spectroscopy      #
                  #    Directorship and core code : Frank Neese         #
                  #        Max Planck Institute fuer Kohlenforschung    #
                  #                Kaiser Wilhelm Platz 1               #
                  #                 D-45470 Muelheim/Ruhr               #
                  #                      Germany                        #
                  #                                                     #
                  #                  All rights reserved                #
                  #                        -***-                        #
                  #######################################################


                         Program Version 5.0.3 -  RELEASE  -


 With contributions from (in alphabetic order):
   Daniel Aravena         : Magnetic Suceptibility
   Michael Atanasov       : Ab Initio Ligand Field Theory (pilot matlab implementation)
   Alexander A. Auer      : GIAO ZORA, VPT2 properties, NMR spectrum
   Ute Becker             : Parallelization
   Giovanni Bistoni       : ED, misc. LED, open-shell LED, HFLD
   Martin Brehm           : Molecular dynamics
   Dmytro Bykov           : SCF Hessian
   Vijay G. Chilkuri      : MRCI spin determinant printing, contributions to CSF-ICE
   Dipayan Datta          : RHF DLPNO-CCSD density
   Achintya Kumar Dutta   : EOM-CC, STEOM-CC
   Dmitry Ganyushin       : Spin-Orbit,Spin-Spin,Magnetic field MRCI
   Miquel Garcia          : C-PCM and meta-GGA Hessian, CC/C-PCM, Gaussian charge scheme
   Yang Guo               : DLPNO-NEVPT2, F12-NEVPT2, CIM, IAO-localization
   Andreas Hansen         : Spin unrestricted coupled pair/coupled cluster methods
   Benjamin Helmich-Paris : MC-RPA, TRAH-SCF, COSX integrals
   Lee Huntington         : MR-EOM, pCC
   Robert Izsak           : Overlap fitted RIJCOSX, COSX-SCS-MP3, EOM
   Marcus Kettner         : VPT2
   Christian Kollmar      : KDIIS, OOCD, Brueckner-CCSD(T), CCSD density, CASPT2, CASPT2-K
   Simone Kossmann        : Meta GGA functionals, TD-DFT gradient, OOMP2, MP2 Hessian
   Martin Krupicka        : Initial AUTO-CI
   Lucas Lang             : DCDCAS
   Marvin Lechner         : AUTO-CI (C++ implementation), FIC-MRCC
   Dagmar Lenk            : GEPOL surface, SMD
   Dimitrios Liakos       : Extrapolation schemes; Compound Job, initial MDCI parallelization
   Dimitrios Manganas     : Further ROCIS development; embedding schemes
   Dimitrios Pantazis     : SARC Basis sets
   Anastasios Papadopoulos: AUTO-CI, single reference methods and gradients
   Taras Petrenko         : DFT Hessian,TD-DFT gradient, ASA, ECA, R-Raman, ABS, FL, XAS/XES, NRVS
   Peter Pinski           : DLPNO-MP2, DLPNO-MP2 Gradient
   Christoph Reimann      : Effective Core Potentials
   Marius Retegan         : Local ZFS, SOC
   Christoph Riplinger    : Optimizer, TS searches, QM/MM, DLPNO-CCSD(T), (RO)-DLPNO pert. Triples
   Tobias Risthaus        : Range-separated hybrids, TD-DFT gradient, RPA, STAB
   Michael Roemelt        : Original ROCIS implementation
   Masaaki Saitow         : Open-shell DLPNO-CCSD energy and density
   Barbara Sandhoefer     : DKH picture change effects
   Avijit Sen             : IP-ROCIS
   Kantharuban Sivalingam : CASSCF convergence, NEVPT2, FIC-MRCI
   Bernardo de Souza      : ESD, SOC TD-DFT
   Georgi Stoychev        : AutoAux, RI-MP2 NMR, DLPNO-MP2 response
   Willem Van den Heuvel  : Paramagnetic NMR
   Boris Wezisla          : Elementary symmetry handling
   Frank Wennmohs         : Technical directorship


 We gratefully acknowledge several colleagues who have allowed us to
 interface, adapt or use parts of their codes:
   Stefan Grimme, W. Hujo, H. Kruse, P. Pracht,  : VdW corrections, initial TS optimization,
                  C. Bannwarth, S. Ehlert          DFT functionals, gCP, sTDA/sTD-DF
   Ed Valeev, F. Pavosevic, A. Kumar             : LibInt (2-el integral package), F12 methods
   Garnet Chan, S. Sharma, J. Yang, R. Olivares  : DMRG
   Ulf Ekstrom                                   : XCFun DFT Library
   Mihaly Kallay                                 : mrcc  (arbitrary order and MRCC methods)
   Jiri Pittner, Ondrej Demel                    : Mk-CCSD
   Frank Weinhold                                : gennbo (NPA and NBO analysis)
   Christopher J. Cramer and Donald G. Truhlar   : smd solvation model
   Lars Goerigk                                  : TD-DFT with DH, B97 family of functionals
   V. Asgeirsson, H. Jonsson                     : NEB implementation
   FAccTs GmbH                                   : IRC, NEB, NEB-TS, DLPNO-Multilevel, CI-OPT
                                                   MM, QMMM, 2- and 3-layer-ONIOM, Crystal-QMMM,
                                                   LR-CPCM, SF, NACMEs, symmetry and pop. for TD-DFT,
                                                   nearIR, NL-DFT gradient (VV10), updates on ESD,
                                                   ML-optimized integration grids
   S Lehtola, MJT Oliveira, MAL Marques          : LibXC Library
   Liviu Ungur et al                             : ANISO software


 Your calculation uses the libint2 library for the computation of 2-el integrals
 For citations please refer to: http://libint.valeyev.net

 Your ORCA version has been built with support for libXC version: 5.1.0
 For citations please refer to: https://tddft.org/programs/libxc/

 This ORCA versions uses:
   CBLAS   interface :  Fast vector & matrix operations
   LAPACKE interface :  Fast linear algebra routines
   SCALAPACK package :  Parallel linear algebra routines
   Shared memory     :  Shared parallel matrices
   BLAS/LAPACK       :  OpenBLAS 0.3.15  USE64BITINT DYNAMIC_ARCH NO_AFFINITY Haswell SINGLE_THREADED
        Core in use  :  Haswell
   Copyright (c) 2011-2014, The OpenBLAS Project




***************************************
The coordinates will be read from file: OHmH2O.xyz
***************************************


Your calculation utilizes the geometrical counterpoise correction gCP
Please cite in your paper:
H.Kruse, S. Grimme J.Chem.Phys., 136, (2012), 154101 
   

Your calculation utilizes the atom-pairwise dispersion correction
with the Becke-Johnson damping scheme (D3BJ)
Cite in your paper:
S.Grimme, S.Ehrlich, L.Goerigk, J Comput Chem, (2011), 32, 1456–1465 
S.Grimme, J.Antony, S.Ehrlich and H.Krieg, J.Chem.Phys., 132, (2010), 154104 
   

Your calculation employs the composite approach PBEh-3c.
Please cite in your paper:
S. Grimme, J. G. Brandenburg, C. Bannwarth, A. Hansen J.Chem.Phys., 143, (2015), 054107 
   

================================================================================

----- Orbital basis set information -----
Your calculation utilizes the basis: def2-mSVP

----- AuxJ basis set information -----
Your calculation utilizes the auxiliary basis: def2/J
   F. Weigend, Phys. Chem. Chem. Phys. 8, 1057 (2006).

================================================================================
                                        WARNINGS
                       Please study these warnings very carefully!
================================================================================


INFO   : the flag for use of the SHARK integral package has been found!

================================================================================
                                       INPUT FILE
================================================================================
NAME = pbeh-3c.inp
|  1> ! PBEh-3c def2/J TightSCF DefGrid3
|  2> 
|  3> %maxcore 60000
|  4> 
|  5> %pal
|  6> nprocs 4
|  7> end
|  8> 
|  9> *xyzfile -1 1 OHmH2O.xyz
| 10> 
| 11>                          ****END OF INPUT****
================================================================================

                       ****************************
                       * Single Point Calculation *
                       ****************************

---------------------------------
CARTESIAN COORDINATES (ANGSTROEM)
---------------------------------
  H     -0.091388   -0.244813    0.013083
  H      1.527273    0.338312    0.652554
  O     -1.220838   -0.235618    0.061315
  O      1.246213   -0.220611   -0.077138
  H     -1.461260    0.362730   -0.649814

----------------------------
CARTESIAN COORDINATES (A.U.)
----------------------------
  NO LB      ZA    FRAG     MASS         X           Y           Z
   0 H     1.0000    0     1.008   -0.172699   -0.462629    0.024723
   1 H     1.0000    0     1.008    2.886128    0.639317    1.233149
   2 O     8.0000    0    15.999   -2.307049   -0.445254    0.115868
   3 O     8.0000    0    15.999    2.355002   -0.416894   -0.145770
   4 H     1.0000    0     1.008   -2.761382    0.685460   -1.227970

--------------------------------
INTERNAL COORDINATES (ANGSTROEM)
--------------------------------
 H      0   0   0     0.000000000000     0.00000000     0.00000000
 H      1   0   0     1.835490146913     0.00000000     0.00000000
 O      1   2   0     1.130516375414   149.72198901     0.00000000
 O      2   1   3     0.961166380053    45.00023199   184.06256489
 H      3   1   2     0.959961845135   102.92517006   100.28765065

---------------------------
INTERNAL COORDINATES (A.U.)
---------------------------
 H      0   0   0     0.000000000000     0.00000000     0.00000000
 H      1   0   0     3.468573699177     0.00000000     0.00000000
 O      1   2   0     2.136366339446   149.72198901     0.00000000
 O      2   1   3     1.816341227432    45.00023199   184.06256489
 H      3   1   2     1.814064986319   102.92517006   100.28765065

---------------------
BASIS SET INFORMATION
---------------------
There are 2 groups of distinct atoms

 Group   1 Type H   : 4s contracted to 2s pattern {31}
 Group   2 Type O   : 8s4p1d contracted to 4s2p1d pattern {5111/31/1}

Atom   0H    basis set group =>   1
Atom   1H    basis set group =>   1
Atom   2O    basis set group =>   2
Atom   3O    basis set group =>   2
Atom   4H    basis set group =>   1
---------------------------------
AUXILIARY/J BASIS SET INFORMATION
---------------------------------
There are 2 groups of distinct atoms

 Group   1 Type H   : 5s2p1d contracted to 3s1p1d pattern {311/2/1}
 Group   2 Type O   : 12s5p4d2f1g contracted to 6s4p3d1f1g pattern {711111/2111/211/2/1}

Atom   0H    basis set group =>   1
Atom   1H    basis set group =>   1
Atom   2O    basis set group =>   2
Atom   3O    basis set group =>   2
Atom   4H    basis set group =>   1


           ************************************************************
           *        Program running with 4 parallel MPI-processes     *
           *              working on a common directory               *
           ************************************************************
------------------------------------------------------------------------------
                           ORCA GTO INTEGRAL CALCULATION
                           -- RI-GTO INTEGRALS CHOSEN --
------------------------------------------------------------------------------
------------------------------------------------------------------------------
                   ___                                                        
                  /   \      - P O W E R E D   B Y -                         
                 /     \                                                     
                 |  |  |   _    _      __       _____    __    __             
                 |  |  |  | |  | |    /  \     |  _  \  |  |  /  |          
                  \  \/   | |  | |   /    \    | | | |  |  | /  /          
                 / \  \   | |__| |  /  /\  \   | |_| |  |  |/  /          
                |  |  |   |  __  | /  /__\  \  |    /   |      \           
                |  |  |   | |  | | |   __   |  |    \   |  |\   \          
                \     /   | |  | | |  |  |  |  | |\  \  |  | \   \       
                 \___/    |_|  |_| |__|  |__|  |_| \__\ |__|  \__/        
                                                                              
                      - O R C A' S   B I G   F R I E N D -                    
                                      &                                       
                       - I N T E G R A L  F E E D E R -                       
                                                                              
 v1 FN, 2020, v2 2021                                                         
------------------------------------------------------------------------------


Reading SHARK input file pbeh-3c.SHARKINP.tmp ... ok
----------------------
SHARK INTEGRAL PACKAGE
----------------------

Number of atoms                             ...      5
Number of basis functions                   ...     36
Number of shells                            ...     20
Maximum angular momentum                    ...      2
Integral batch strategy                     ... SHARK/LIBINT Hybrid
RI-J (if used) integral strategy            ... SPLIT-RIJ (Revised 2003 algorithm where possible)
Printlevel                                  ...      1
Contraction scheme used                     ... SEGMENTED contraction
Coulomb Range Separation                    ... NOT USED
Exchange Range Separation                   ... NOT USED
Finite Nucleus Model                        ... NOT USED
Auxiliary Coulomb fitting basis             ... AVAILABLE
   # of basis functions in Aux-J            ...    131
   # of shells in Aux-J                     ...     45
   Maximum angular momentum in Aux-J        ...      4
Auxiliary J/K fitting basis                 ... NOT available
Auxiliary Correlation fitting basis         ... NOT available
Auxiliary 'external' fitting basis          ... NOT available
Integral threshold                          ...     2.500000e-11
Primitive cut-off                           ...     2.500000e-12
Primitive pair pre-selection threshold      ...     2.500000e-12

Calculating pre-screening integrals         ... done (  0.1 sec) Dimension = 20
Organizing shell pair data                  ... done (  0.2 sec)
Shell pair information
Total number of shell pairs                 ...       210
Shell pairs after pre-screening             ...       206
Total number of primitive shell pairs       ...       776
Primitive shell pairs kept                  ...       643
          la=0 lb=0:    101 shell pairs
          la=1 lb=0:     56 shell pairs
          la=1 lb=1:     10 shell pairs
          la=2 lb=0:     28 shell pairs
          la=2 lb=1:      8 shell pairs
          la=2 lb=2:      3 shell pairs

Calculating one electron integrals          ... done (  0.0 sec)
Calculating RI/J V-Matrix + Cholesky decomp.... done (  0.8 sec)
Calculating Nuclear repulsion               ... done (  0.0 sec) ENN=     33.168414955151 Eh

SHARK setup successfully completed in   2.5 seconds

Maximum memory used throughout the entire GTOINT-calculation: 8.9 MB


           ************************************************************
           *        Program running with 4 parallel MPI-processes     *
           *              working on a common directory               *
           ************************************************************
-------------------------------------------------------------------------------
                                 ORCA SCF
-------------------------------------------------------------------------------

------------
SCF SETTINGS
------------
Hamiltonian:
 Density Functional     Method          .... DFT(GTOs)
 Exchange Functional    Exchange        .... PBE
   PBE kappa parameter   XKappa         ....  1.024500
   PBE mue parameter    XMuePBE         ....  0.123457
 Correlation Functional Correlation     .... PBE
   PBE beta parameter  CBetaPBE         ....  0.030000
 LDA part of GGA corr.  LDAOpt          .... PW91-LDA
 Gradients option       PostSCFGGA      .... off
 Hybrid DFT is turned on
   Fraction HF Exchange ScalHFX         ....  0.420000
   Scaling of DF-GGA-X  ScalDFX         ....  0.580000
   Scaling of DF-GGA-C  ScalDFC         ....  1.000000
   Scaling of DF-LDA-C  ScalLDAC        ....  1.000000
   Perturbative correction              ....  0.000000
   Density functional embedding theory  .... OFF
 RI-approximation to the Coulomb term is turned on
   Number of AuxJ basis functions       .... 131
   RIJ-ON(X) (HFX calculated with O(N)) .... on
   Number of AuxJ basis functions       .... 131
   RIJ-COSX (HFX calculated with COS-X)).... on


General Settings:
 Integral files         IntName         .... pbeh-3c
 Hartree-Fock type      HFTyp           .... RHF
 Total Charge           Charge          ....   -1
 Multiplicity           Mult            ....    1
 Number of Electrons    NEL             ....   20
 Basis Dimension        Dim             ....   36
 Nuclear Repulsion      ENuc            ....     33.1684149552 Eh

Convergence Acceleration:
 DIIS                   CNVDIIS         .... on
   Start iteration      DIISMaxIt       ....    12
   Startup error        DIISStart       ....  0.200000
   # of expansion vecs  DIISMaxEq       ....     5
   Bias factor          DIISBfac        ....   1.050
   Max. coefficient     DIISMaxC        ....  10.000
 Trust-Rad. Augm. Hess. CNVTRAH         .... auto
   Auto Start mean grad. ratio tolernc. ....  1.125000
   Auto Start start iteration           ....    20
   Auto Start num. interpolation iter.  ....    10
   Max. Number of Micro iterations      ....    16
   Max. Number of Macro iterations      .... Maxiter - #DIIS iter
   Number of Davidson start vectors     ....     2
   Converg. threshold I  (grad. norm)   ....   1.000e-05
   Converg. threshold II (energy diff.) ....   1.000e-08
   Grad. Scal. Fac. for Micro threshold ....   0.100
   Minimum threshold for Micro iter.    ....   0.010
   NR start threshold (gradient norm)   ....   0.001
   Initial trust radius                 ....   0.400
   Minimum AH scaling param. (alpha)    ....   1.000
   Maximum AH scaling param. (alpha)    .... 1000.000
   Orbital update algorithm             .... Taylor
   White noise on init. David. guess    .... on
   Maximum white noise                  ....   0.010
   Quad. conv. algorithm                .... NR
   COSX micro iterations for RIJONX calc.... off
 SOSCF                  CNVSOSCF        .... on
   Start iteration      SOSCFMaxIt      ....   150
   Startup grad/error   SOSCFStart      ....  0.003300
 Level Shifting         CNVShift        .... on
   Level shift para.    LevelShift      ....    0.2500
   Turn off err/grad.   ShiftErr        ....    0.0010
 Zerner damping         CNVZerner       .... off
 Static damping         CNVDamp         .... on
   Fraction old density DampFac         ....    0.7000
   Max. Damping (<1)    DampMax         ....    0.9800
   Min. Damping (>=0)   DampMin         ....    0.0000
   Turn off err/grad.   DampErr         ....    0.1000
 Fernandez-Rico         CNVRico         .... off

SCF Procedure:
 Maximum # iterations   MaxIter         ....   125
 SCF integral mode      SCFMode         .... Direct
   Integral package                     .... SHARK and LIBINT hybrid scheme
 Reset frequency        DirectResetFreq ....    20
 Integral Threshold     Thresh          ....  2.500e-11 Eh
 Primitive CutOff       TCut            ....  2.500e-12 Eh

Convergence Tolerance:
 Convergence Check Mode ConvCheckMode   .... Total+1el-Energy
 Convergence forced     ConvForced      .... 0
 Energy Change          TolE            ....  1.000e-08 Eh
 1-El. energy change                    ....  1.000e-05 Eh
 Orbital Gradient       TolG            ....  1.000e-05
 Orbital Rotation angle TolX            ....  1.000e-05
 DIIS Error             TolErr          ....  5.000e-07


Diagonalization of the overlap matrix:
Smallest eigenvalue                        ... 3.128e-02
Time for diagonalization                   ...    0.000 sec
Threshold for overlap eigenvalues          ... 1.000e-08
Number of eigenvalues below threshold      ... 0
Time for construction of square roots      ...    0.411 sec
Total time needed                          ...    0.412 sec

--------------------------------
INITIAL GUESS: MINIMAL BASIS EHT
--------------------------------
The minimal basis has 13 functions
EHT matrix was diagonalized
Basis set overlap was calculated now projecting the orbitals
Using GuessMode=FMatrix for the initial guess
C*T matrix was formed
Effective Fockian was calculated
Effective Fockian was diagonalized
Initial density was built
                      ------------------
                      INITIAL GUESS DONE
                      ------------------
-------------------
DFT GRID GENERATION
-------------------

General Integration Accuracy     IntAcc      ... 4.959
Radial Grid Type                 RadialGrid  ... OptM3 with GC (2021)
Angular Grid (max. ang.)         AngularGrid ... 6 (Lebedev-590)
Angular grid pruning method      GridPruning ... 4 (adaptive)
Weight generation scheme         WeightScheme... Becke
Basis function cutoff            BFCut       ... 1.0000e-11
Integration weight cutoff        WCut        ... 1.0000e-14
Angular grids for H and He will be reduced by one unit
Partially contracted basis set               ... off
Rotationally invariant grid construction     ... off

Total number of grid points                  ...    56346
Total number of batches                      ...      883
Average number of points per batch           ...       63
Average number of grid points per atom       ...    11269
Time for grid setup =    1.322 sec

--------------------
COSX GRID GENERATION
--------------------

GRIDX 1
-------
General Integration Accuracy     IntAcc      ... 4.020
Radial Grid Type                 RadialGrid  ... OptM3 with GC (2021)
Angular Grid (max. ang.)         AngularGrid ... 2 (Lebedev-110)
Angular grid pruning method      GridPruning ... 4 (adaptive)
Weight generation scheme         WeightScheme... Becke
Basis function cutoff            BFCut       ... 1.0000e-11
Integration weight cutoff        WCut        ... 1.0000e-14
Angular grids for H and He will be reduced by one unit
Partially contracted basis set               ... on
Rotationally invariant grid construction     ... off

Total number of grid points                  ...     6161
Total number of batches                      ...       98
Average number of points per batch           ...       62
Average number of grid points per atom       ...     1232
UseSFitting                                  ... on

GRIDX 2
-------
General Integration Accuracy     IntAcc      ... 4.338
Radial Grid Type                 RadialGrid  ... OptM3 with GC (2021)
Angular Grid (max. ang.)         AngularGrid ... 3 (Lebedev-194)
Angular grid pruning method      GridPruning ... 4 (adaptive)
Weight generation scheme         WeightScheme... Becke
Basis function cutoff            BFCut       ... 1.0000e-11
Integration weight cutoff        WCut        ... 1.0000e-14
Angular grids for H and He will be reduced by one unit
Partially contracted basis set               ... on
Rotationally invariant grid construction     ... off

Total number of grid points                  ...    13641
Total number of batches                      ...      215
Average number of points per batch           ...       63
Average number of grid points per atom       ...     2728
UseSFitting                                  ... on

GRIDX 3
-------
General Integration Accuracy     IntAcc      ... 4.871
Radial Grid Type                 RadialGrid  ... OptM3 with GC (2021)
Angular Grid (max. ang.)         AngularGrid ... 4 (Lebedev-302)
Angular grid pruning method      GridPruning ... 4 (adaptive)
Weight generation scheme         WeightScheme... Becke
Basis function cutoff            BFCut       ... 1.0000e-11
Integration weight cutoff        WCut        ... 1.0000e-14
Angular grids for H and He will be reduced by one unit
Partially contracted basis set               ... on
Rotationally invariant grid construction     ... off

Total number of grid points                  ...    27004
Total number of batches                      ...      424
Average number of points per batch           ...       63
Average number of grid points per atom       ...     5401
UseSFitting                                  ... on

Time for X-Grid setup             =    2.602 sec

--------------
SCF ITERATIONS
--------------
ITER       Energy         Delta-E        Max-DP      RMS-DP      [F,P]     Damp
               ***  Starting incremental Fock matrix formation  ***
  0   -151.0484731913   0.000000000000 0.21774338  0.01876343  0.6862217 0.7000
  1   -151.3948109687  -0.346337777396 0.11808948  0.01008719  0.3110296 0.7000
                               ***Turning on DIIS***
  2   -151.5560274331  -0.161216464351 0.05398029  0.00470242  0.1245417 0.7000
  3   -151.6586094986  -0.102582065477 0.06876619  0.00723798  0.0844731 0.0000
  4   -151.9007982523  -0.242188753773 0.00624957  0.00087923  0.0080381 0.0000
  5   -151.9011777007  -0.000379448343 0.00369738  0.00038929  0.0034273 0.0000
                      *** Initiating the SOSCF procedure ***
                           *** Shutting down DIIS ***
                      *** Re-Reading the Fockian *** 
                      *** Removing any level shift *** 
ITER      Energy       Delta-E        Grad      Rot      Max-DP    RMS-DP
  6   -151.90123463  -0.0000569269  0.000795  0.000795  0.002096  0.000179
               *** Restarting incremental Fock matrix formation ***
  7   -151.90124924  -0.0000146107  0.000427  0.000984  0.001814  0.000138
  8   -151.90125219  -0.0000029475  0.000241  0.000678  0.001162  0.000088
  9   -151.90125262  -0.0000004360  0.000118  0.000223  0.000422  0.000032
 10   -151.90125283  -0.0000002094  0.000016  0.000016  0.000042  0.000004
 11   -151.90125283  -0.0000000004  0.000015  0.000009  0.000022  0.000002
                 **** Energy Check signals convergence ****
              ***Rediagonalizing the Fockian in SOSCF/NRSCF***

               *****************************************************
               *                     SUCCESS                       *
               *           SCF CONVERGED AFTER  12 CYCLES          *
               *****************************************************

Old exchange energy                            =     -7.485407860 Eh
New exchange energy                            =     -7.485411474 Eh
Exchange energy change after final integration =     -0.000003614 Eh
Total energy after final integration           =   -151.901256448 Eh
Final COS-X integration done in                =     0.493 sec

----------------
TOTAL SCF ENERGY
----------------

Total Energy       :         -151.90125645 Eh           -4133.44333 eV

Components:
Nuclear Repulsion  :           33.16841496 Eh             902.55846 eV
Electronic Energy  :         -185.06967140 Eh           -5036.00178 eV
One Electron Energy:         -281.62001921 Eh           -7663.27032 eV
Two Electron Energy:           96.55034781 Eh            2627.26853 eV
Max COSX asymmetry :            0.00000047 Eh               0.00001 eV

Virial components:
Potential Energy   :         -303.09834324 Eh           -8247.72523 eV
Kinetic Energy     :          151.19708679 Eh            4114.28190 eV
Virial Ratio       :            2.00465730


DFT components:
N(Alpha)           :        9.999999942212 electrons
N(Beta)            :        9.999999942212 electrons
N(Total)           :       19.999999884423 electrons
E(X)               :       -9.975843851242 Eh       
E(C)               :       -0.889410444908 Eh       
E(XC)              :      -10.865254296150 Eh       
DFET-embed. en.    :        0.000000000000 Eh       

---------------
SCF CONVERGENCE
---------------

  Last Energy change         ...   -2.4411e-09  Tolerance :   1.0000e-08
  Last MAX-Density change    ...    7.7716e-16  Tolerance :   1.0000e-07
  Last RMS-Density change    ...    8.0988e-17  Tolerance :   5.0000e-09
  Last Orbital Gradient      ...    1.0701e-06  Tolerance :   1.0000e-05
  Last Orbital Rotation      ...    8.3603e-07  Tolerance :   1.0000e-05

             **** THE GBW FILE WAS UPDATED (pbeh-3c.gbw) ****
             **** DENSITY pbeh-3c.scfp WAS UPDATED ****
             **** ENERGY FILE WAS UPDATED (pbeh-3c.en.tmp) ****
             **** THE GBW FILE WAS UPDATED (pbeh-3c.gbw) ****
             **** DENSITY pbeh-3c.scfp WAS UPDATED ****
----------------
ORBITAL ENERGIES
----------------

  NO   OCC          E(Eh)            E(eV) 
   0   2.0000     -19.166312      -521.5419 
   1   2.0000     -19.118667      -520.2454 
   2   2.0000      -0.780705       -21.2441 
   3   2.0000      -0.707611       -19.2551 
   4   2.0000      -0.266636        -7.2555 
   5   2.0000      -0.179593        -4.8870 
   6   2.0000      -0.131385        -3.5752 
   7   2.0000      -0.060668        -1.6508 
   8   2.0000      -0.012377        -0.3368 
   9   2.0000      -0.007439        -0.2024 
  10   0.0000       0.385078        10.4785 
  11   0.0000       0.425997        11.5920 
  12   0.0000       0.642391        17.4804 
  13   0.0000       1.105027        30.0693 
  14   0.0000       1.184529        32.2327 
  15   0.0000       1.202716        32.7276 
  16   0.0000       1.270728        34.5783 
  17   0.0000       1.278372        34.7863 
  18   0.0000       1.361752        37.0552 
  19   0.0000       1.374357        37.3981 
  20   0.0000       1.501293        40.8523 
  21   0.0000       1.535146        41.7734 
  22   0.0000       2.006568        54.6015 
  23   0.0000       2.092857        56.9495 
  24   0.0000       2.107645        57.3519 
  25   0.0000       2.138985        58.2047 
  26   0.0000       2.158780        58.7434 
  27   0.0000       2.160953        58.8025 
  28   0.0000       2.206957        60.0543 
  29   0.0000       2.222893        60.4880 
  30   0.0000       2.256362        61.3987 
  31   0.0000       2.848971        77.5244 
  32   0.0000       2.900952        78.9389 
  33   0.0000       3.190793        86.8259 
  34   0.0000      25.523745       694.5364 
  35   0.0000      25.887796       704.4427 

                    ********************************
                    * MULLIKEN POPULATION ANALYSIS *
                    ********************************

-----------------------
MULLIKEN ATOMIC CHARGES
-----------------------
   0 H :    0.409908
   1 H :    0.278727
   2 O :   -0.976204
   3 O :   -1.021815
   4 H :    0.309385
Sum of atomic charges:   -1.0000000

--------------------------------
MULLIKEN REDUCED ORBITAL CHARGES
--------------------------------
  0 H s       :     0.590092  s :     0.590092
  1 H s       :     0.721273  s :     0.721273
  2 O s       :     3.849192  s :     3.849192
      pz      :     1.670109  p :     5.107464
      px      :     1.676032
      py      :     1.761323
      dz2     :     0.003598  d :     0.019548
      dxz     :     0.001616
      dyz     :     0.008518
      dx2y2   :     0.004777
      dxy     :     0.001039
  3 O s       :     3.863789  s :     3.863789
      pz      :     1.635914  p :     5.141645
      px      :     1.726530
      py      :     1.779201
      dz2     :     0.003162  d :     0.016381
      dxz     :     0.002178
      dyz     :     0.007756
      dx2y2   :     0.002119
      dxy     :     0.001166
  4 H s       :     0.690615  s :     0.690615


                     *******************************
                     * LOEWDIN POPULATION ANALYSIS *
                     *******************************

----------------------
LOEWDIN ATOMIC CHARGES
----------------------
   0 H :    0.305383
   1 H :    0.202622
   2 O :   -0.815304
   3 O :   -0.921765
   4 H :    0.229063

-------------------------------
LOEWDIN REDUCED ORBITAL CHARGES
-------------------------------
  0 H s       :     0.694617  s :     0.694617
  1 H s       :     0.797378  s :     0.797378
  2 O s       :     3.654664  s :     3.654664
      pz      :     1.690254  p :     5.132849
      px      :     1.665868
      py      :     1.776727
      dz2     :     0.005121  d :     0.027790
      dxz     :     0.002184
      dyz     :     0.011320
      dx2y2   :     0.007737
      dxy     :     0.001427
  3 O s       :     3.701019  s :     3.701019
      pz      :     1.661194  p :     5.196762
      px      :     1.739302
      py      :     1.796267
      dz2     :     0.004604  d :     0.023984
      dxz     :     0.003056
      dyz     :     0.010546
      dx2y2   :     0.004151
      dxy     :     0.001627
  4 H s       :     0.770937  s :     0.770937


                      *****************************
                      * MAYER POPULATION ANALYSIS *
                      *****************************

  NA   - Mulliken gross atomic population
  ZA   - Total nuclear charge
  QA   - Mulliken gross atomic charge
  VA   - Mayer's total valence
  BVA  - Mayer's bonded valence
  FA   - Mayer's free valence

  ATOM       NA         ZA         QA         VA         BVA        FA
  0 H      0.5901     1.0000     0.4099     0.8488     0.8488     0.0000
  1 H      0.7213     1.0000     0.2787     0.8921     0.8921     0.0000
  2 O      8.9762     8.0000    -0.9762     1.3856     1.3856    -0.0000
  3 O      9.0218     8.0000    -1.0218     1.3178     1.3178    -0.0000
  4 H      0.6906     1.0000     0.3094     0.8782     0.8782     0.0000

  Mayer bond orders larger than 0.100000
B(  0-H ,  2-O ) :   0.4700 B(  0-H ,  3-O ) :   0.3867 B(  1-H ,  3-O ) :   0.8871 
B(  2-O ,  4-H ) :   0.8741 

-------
TIMINGS
-------

Total SCF time: 0 days 0 hours 0 min 40 sec 

Total time                  ....      40.502 sec
Sum of individual times     ....      36.494 sec  ( 90.1%)

Fock matrix formation       ....      28.095 sec  ( 69.4%)
  Split-RI-J                ....       4.696 sec  ( 16.7% of F)
  Chain of spheres X        ....       5.088 sec  ( 18.1% of F)
  XC integration            ....       5.780 sec  ( 20.6% of F)
    Basis function eval.    ....       0.539 sec  (  9.3% of XC)
    Density eval.           ....       0.290 sec  (  5.0% of XC)
    XC-Functional eval.     ....       0.541 sec  (  9.4% of XC)
    XC-Potential eval.      ....       0.088 sec  (  1.5% of XC)
Diagonalization             ....       0.284 sec  (  0.7%)
Density matrix formation    ....       0.113 sec  (  0.3%)
Population analysis         ....       1.441 sec  (  3.6%)
Initial guess               ....       0.001 sec  (  0.0%)
Orbital Transformation      ....       0.000 sec  (  0.0%)
Orbital Orthonormalization  ....       0.000 sec  (  0.0%)
DIIS solution               ....       1.707 sec  (  4.2%)
SOSCF solution              ....       0.927 sec  (  2.3%)
Grid generation             ....       3.925 sec  (  9.7%)

Maximum memory used throughout the entire SCF-calculation: 44.5 MB


-------------------------------------------------------------------------------
                          DFT DISPERSION CORRECTION                            
                                                                               
                              DFTD3 V3.1  Rev 1                                
                          USING Becke-Johnson damping                          
-------------------------------------------------------------------------------
The PBEh-3c composite method is recognized
Using three-body term ABC
Active option DFTDOPT                   ...         4   

molecular C6(AA) [au] = 141.863844 


            DFT-D V3
 parameters
 s6 scaling factor         :     1.0000 
 a1 scaling factor         :     0.4860 
 s8 scaling factor         :     0.0000 
 a2 scaling factor         :     4.5000 
 Damping factor alpha9(ATM):    16.0000 
 ad hoc parameters k1-k3   :    16.0000     1.3333    -4.0000 

 Edisp/kcal,au: -0.436531371312  -0.000695656947 
 E6   /kcal   :  -0.436527612 
 E8   /kcal   :  -0.000000000 
 E6(ABC)      :  -0.000003760 
 % E8         :   0.000000000 
 % E6(ABC)    :   0.000861242 

-------------------------   ----------------
Dispersion correction           -0.000695657
-------------------------   ----------------

------------------   -----------------
gCP correction             0.008020223
------------------   -----------------

-------------------------   --------------------
FINAL SINGLE POINT ENERGY      -151.893931881507
-------------------------   --------------------


                            ***************************************
                            *     ORCA property calculations      *
                            ***************************************

                                    ---------------------
                                    Active property flags
                                    ---------------------
   (+) Dipole Moment


------------------------------------------------------------------------------
                       ORCA ELECTRIC PROPERTIES CALCULATION
------------------------------------------------------------------------------

Dipole Moment Calculation                       ... on
Quadrupole Moment Calculation                   ... off
Polarizability Calculation                      ... off
GBWName                                         ... pbeh-3c.gbw
Electron density                                ... pbeh-3c.scfp
The origin for moment calculation is the CENTER OF MASS  = ( 0.020526, -0.369038 -0.012799)

-------------
DIPOLE MOMENT
-------------
                                X             Y             Z
Electronic contribution:     -0.26844      -0.30580      -0.03386
Nuclear contribution   :     -0.05432       0.97669       0.03387
                        -----------------------------------------
Total Dipole Moment    :     -0.32276       0.67089       0.00001
                        -----------------------------------------
Magnitude (a.u.)       :      0.74450
Magnitude (Debye)      :      1.89236



--------------------
Rotational spectrum 
--------------------
 
Rotational constants in cm-1:    10.307851     0.313044     0.310957 
Rotational constants in MHz : 309021.604308  9384.817386  9322.265111 

 Dipole components along the rotational axes: 
x,y,z [a.u.] :    -0.319054    -0.040613     0.671437 
x,y,z [Debye]:    -0.810972    -0.103231     1.706657 

 

Timings for individual modules:

Sum of individual times         ...       44.404 sec (=   0.740 min)
GTO integral calculation        ...        3.165 sec (=   0.053 min)   7.1 %
SCF iterations                  ...       41.240 sec (=   0.687 min)  92.9 %
                             ****ORCA TERMINATED NORMALLY****
TOTAL RUN TIME: 0 days 0 hours 0 minutes 48 seconds 953 msec
