
                                 *****************
                                 * O   R   C   A *
                                 *****************

                                            #,                                       
                                            ###                                      
                                            ####                                     
                                            #####                                    
                                            ######                                   
                                           ########,                                 
                                     ,,################,,,,,                         
                               ,,#################################,,                 
                          ,,##########################################,,             
                       ,#########################################, ''#####,          
                    ,#############################################,,   '####,        
                  ,##################################################,,,,####,       
                ,###########''''           ''''###############################       
              ,#####''   ,,,,##########,,,,          '''####'''          '####       
            ,##' ,,,,###########################,,,                        '##       
           ' ,,###''''                  '''############,,,                           
         ,,##''                                '''############,,,,        ,,,,,,###''
      ,#''                                            '''#######################'''  
     '                                                          ''''####''''         
             ,#######,   #######,   ,#######,      ##                                
            ,#'     '#,  ##    ##  ,#'     '#,    #''#        ######   ,####,        
            ##       ##  ##   ,#'  ##            #'  '#       #        #'  '#        
            ##       ##  #######   ##           ,######,      #####,   #    #        
            '#,     ,#'  ##    ##  '#,     ,#' ,#      #,         ##   #,  ,#        
             '#######'   ##     ##  '#######'  #'      '#     #####' # '####'        



                  #######################################################
                  #                        -***-                        #
                  #          Department of theory and spectroscopy      #
                  #    Directorship and core code : Frank Neese         #
                  #        Max Planck Institute fuer Kohlenforschung    #
                  #                Kaiser Wilhelm Platz 1               #
                  #                 D-45470 Muelheim/Ruhr               #
                  #                      Germany                        #
                  #                                                     #
                  #                  All rights reserved                #
                  #                        -***-                        #
                  #######################################################


                         Program Version 5.0.3 -  RELEASE  -


 With contributions from (in alphabetic order):
   Daniel Aravena         : Magnetic Suceptibility
   Michael Atanasov       : Ab Initio Ligand Field Theory (pilot matlab implementation)
   Alexander A. Auer      : GIAO ZORA, VPT2 properties, NMR spectrum
   Ute Becker             : Parallelization
   Giovanni Bistoni       : ED, misc. LED, open-shell LED, HFLD
   Martin Brehm           : Molecular dynamics
   Dmytro Bykov           : SCF Hessian
   Vijay G. Chilkuri      : MRCI spin determinant printing, contributions to CSF-ICE
   Dipayan Datta          : RHF DLPNO-CCSD density
   Achintya Kumar Dutta   : EOM-CC, STEOM-CC
   Dmitry Ganyushin       : Spin-Orbit,Spin-Spin,Magnetic field MRCI
   Miquel Garcia          : C-PCM and meta-GGA Hessian, CC/C-PCM, Gaussian charge scheme
   Yang Guo               : DLPNO-NEVPT2, F12-NEVPT2, CIM, IAO-localization
   Andreas Hansen         : Spin unrestricted coupled pair/coupled cluster methods
   Benjamin Helmich-Paris : MC-RPA, TRAH-SCF, COSX integrals
   Lee Huntington         : MR-EOM, pCC
   Robert Izsak           : Overlap fitted RIJCOSX, COSX-SCS-MP3, EOM
   Marcus Kettner         : VPT2
   Christian Kollmar      : KDIIS, OOCD, Brueckner-CCSD(T), CCSD density, CASPT2, CASPT2-K
   Simone Kossmann        : Meta GGA functionals, TD-DFT gradient, OOMP2, MP2 Hessian
   Martin Krupicka        : Initial AUTO-CI
   Lucas Lang             : DCDCAS
   Marvin Lechner         : AUTO-CI (C++ implementation), FIC-MRCC
   Dagmar Lenk            : GEPOL surface, SMD
   Dimitrios Liakos       : Extrapolation schemes; Compound Job, initial MDCI parallelization
   Dimitrios Manganas     : Further ROCIS development; embedding schemes
   Dimitrios Pantazis     : SARC Basis sets
   Anastasios Papadopoulos: AUTO-CI, single reference methods and gradients
   Taras Petrenko         : DFT Hessian,TD-DFT gradient, ASA, ECA, R-Raman, ABS, FL, XAS/XES, NRVS
   Peter Pinski           : DLPNO-MP2, DLPNO-MP2 Gradient
   Christoph Reimann      : Effective Core Potentials
   Marius Retegan         : Local ZFS, SOC
   Christoph Riplinger    : Optimizer, TS searches, QM/MM, DLPNO-CCSD(T), (RO)-DLPNO pert. Triples
   Tobias Risthaus        : Range-separated hybrids, TD-DFT gradient, RPA, STAB
   Michael Roemelt        : Original ROCIS implementation
   Masaaki Saitow         : Open-shell DLPNO-CCSD energy and density
   Barbara Sandhoefer     : DKH picture change effects
   Avijit Sen             : IP-ROCIS
   Kantharuban Sivalingam : CASSCF convergence, NEVPT2, FIC-MRCI
   Bernardo de Souza      : ESD, SOC TD-DFT
   Georgi Stoychev        : AutoAux, RI-MP2 NMR, DLPNO-MP2 response
   Willem Van den Heuvel  : Paramagnetic NMR
   Boris Wezisla          : Elementary symmetry handling
   Frank Wennmohs         : Technical directorship


 We gratefully acknowledge several colleagues who have allowed us to
 interface, adapt or use parts of their codes:
   Stefan Grimme, W. Hujo, H. Kruse, P. Pracht,  : VdW corrections, initial TS optimization,
                  C. Bannwarth, S. Ehlert          DFT functionals, gCP, sTDA/sTD-DF
   Ed Valeev, F. Pavosevic, A. Kumar             : LibInt (2-el integral package), F12 methods
   Garnet Chan, S. Sharma, J. Yang, R. Olivares  : DMRG
   Ulf Ekstrom                                   : XCFun DFT Library
   Mihaly Kallay                                 : mrcc  (arbitrary order and MRCC methods)
   Jiri Pittner, Ondrej Demel                    : Mk-CCSD
   Frank Weinhold                                : gennbo (NPA and NBO analysis)
   Christopher J. Cramer and Donald G. Truhlar   : smd solvation model
   Lars Goerigk                                  : TD-DFT with DH, B97 family of functionals
   V. Asgeirsson, H. Jonsson                     : NEB implementation
   FAccTs GmbH                                   : IRC, NEB, NEB-TS, DLPNO-Multilevel, CI-OPT
                                                   MM, QMMM, 2- and 3-layer-ONIOM, Crystal-QMMM,
                                                   LR-CPCM, SF, NACMEs, symmetry and pop. for TD-DFT,
                                                   nearIR, NL-DFT gradient (VV10), updates on ESD,
                                                   ML-optimized integration grids
   S Lehtola, MJT Oliveira, MAL Marques          : LibXC Library
   Liviu Ungur et al                             : ANISO software


 Your calculation uses the libint2 library for the computation of 2-el integrals
 For citations please refer to: http://libint.valeyev.net

 Your ORCA version has been built with support for libXC version: 5.1.0
 For citations please refer to: https://tddft.org/programs/libxc/

 This ORCA versions uses:
   CBLAS   interface :  Fast vector & matrix operations
   LAPACKE interface :  Fast linear algebra routines
   SCALAPACK package :  Parallel linear algebra routines
   Shared memory     :  Shared parallel matrices
   BLAS/LAPACK       :  OpenBLAS 0.3.15  USE64BITINT DYNAMIC_ARCH NO_AFFINITY Haswell SINGLE_THREADED
        Core in use  :  Haswell
   Copyright (c) 2011-2014, The OpenBLAS Project




***************************************
The coordinates will be read from file: 1-hexene.xyz
***************************************


Your calculation utilizes the geometrical counterpoise correction gCP
Please cite in your paper:
H.Kruse, S. Grimme J.Chem.Phys., 136, (2012), 154101 
   

Your calculation utilizes the atom-pairwise dispersion correction
with the Becke-Johnson damping scheme (D3BJ)
Cite in your paper:
S.Grimme, S.Ehrlich, L.Goerigk, J Comput Chem, (2011), 32, 1456–1465 
S.Grimme, J.Antony, S.Ehrlich and H.Krieg, J.Chem.Phys., 132, (2010), 154104 
   

Your calculation employs the composite approach PBEh-3c.
Please cite in your paper:
S. Grimme, J. G. Brandenburg, C. Bannwarth, A. Hansen J.Chem.Phys., 143, (2015), 054107 
   

================================================================================

----- Orbital basis set information -----
Your calculation utilizes the basis: def2-mSVP

----- AuxJ basis set information -----
Your calculation utilizes the auxiliary basis: def2/J
   F. Weigend, Phys. Chem. Chem. Phys. 8, 1057 (2006).

================================================================================
                                        WARNINGS
                       Please study these warnings very carefully!
================================================================================


INFO   : the flag for use of the SHARK integral package has been found!

================================================================================
                                       INPUT FILE
================================================================================
NAME = pbeh-3c.inp
|  1> ! PBEh-3c def2/J TightSCF DefGrid3
|  2> 
|  3> %maxcore 60000
|  4> 
|  5> %pal
|  6> nprocs 4
|  7> end
|  8> 
|  9> *xyzfile 0 1 1-hexene.xyz
| 10> 
| 11>                          ****END OF INPUT****
================================================================================

                       ****************************
                       * Single Point Calculation *
                       ****************************

---------------------------------
CARTESIAN COORDINATES (ANGSTROEM)
---------------------------------
  C     -2.009475   -0.905581   -1.841364
  H     -1.660288   -1.943252   -1.954517
  H     -1.602465   -0.326525   -2.684100
  H     -3.104530   -0.910437   -1.938629
  C     -1.568013   -0.315995   -0.499598
  H     -1.963790    0.709176   -0.398880
  H     -2.016770   -0.896283    0.324610
  C     -0.046331   -0.287565   -0.323531
  H      0.410263    0.299512   -1.138126
  H      0.353013   -1.312129   -0.425560
  C      0.398649    0.297421    1.029038
  H     -0.076740   -0.291263    1.835316
  H      0.023456    1.329153    1.132020
  C      1.887121    0.280221    1.219519
  H      2.363922   -0.705896    1.160801
  C      2.653385    1.352910    1.437758
  H      3.733782    1.270355    1.562811
  H      2.224813    2.356175    1.502431

----------------------------
CARTESIAN COORDINATES (A.U.)
----------------------------
  NO LB      ZA    FRAG     MASS         X           Y           Z
   0 C     6.0000    0    12.011   -3.797357   -1.711299   -3.479673
   1 H     1.0000    0     1.008   -3.137490   -3.672214   -3.693502
   2 H     1.0000    0     1.008   -3.028220   -0.617043   -5.072214
   3 H     1.0000    0     1.008   -5.866712   -1.720477   -3.663478
   4 C     6.0000    0    12.011   -2.963116   -0.597144   -0.944102
   5 H     1.0000    0     1.008   -3.711025    1.340149   -0.753775
   6 H     1.0000    0     1.008   -3.811143   -1.693729    0.613425
   7 C     6.0000    0    12.011   -0.087553   -0.543418   -0.611384
   8 H     1.0000    0     1.008    0.775284    0.565996   -2.150746
   9 H     1.0000    0     1.008    0.667098   -2.479564   -0.804192
  10 C     6.0000    0    12.011    0.753337    0.562045    1.944599
  11 H     1.0000    0     1.008   -0.145017   -0.550408    3.468244
  12 H     1.0000    0     1.008    0.044325    2.511735    2.139208
  13 C     6.0000    0    12.011    3.566143    0.529542    2.304557
  14 H     1.0000    0     1.008    4.467164   -1.333950    2.193596
  15 C     6.0000    0    12.011    5.014171    2.556630    2.716969
  16 H     1.0000    0     1.008    7.055825    2.400623    2.953285
  17 H     1.0000    0     1.008    4.204287    4.452526    2.839183

--------------------------------
INTERNAL COORDINATES (ANGSTROEM)
--------------------------------
 C      0   0   0     0.000000000000     0.00000000     0.00000000
 H      1   0   0     1.100680002673     0.00000000     0.00000000
 H      1   2   0     1.100530073237   107.45704653     0.00000000
 H      1   2   3     1.099377312228   107.62217968   115.66491396
 C      1   2   3     1.530632346023   111.20828101   238.06230565
 H      5   1   2     1.103521431607   109.53658386   182.10449608
 H      5   1   2     1.103374278473   109.56850501   297.90867334
 C      5   1   2     1.532098082655   113.22503800    59.99406449
 H      8   5   1     1.103042394732   109.64159526    58.24268698
 H      8   5   1     1.104362939650   109.34860632   302.40856996
 C      8   5   1     1.539368874498   113.27386504   180.34515831
 H     11   8   5     1.105725127430   108.30650628    56.82721485
 H     11   8   5     1.102653446968   109.83285323   300.91086221
 C     11   8   5     1.500710038387   113.19606965   177.98397198
 H     14  11   8     1.096910885957   115.76239155   301.63713641
 C     14  11   8     1.336207221410   125.47270215   121.02127949
 H     16  14  11     1.090739148335   121.73480935   180.33000249
 H     16  14  11     1.092884657627   121.44898495     0.52019917

---------------------------
INTERNAL COORDINATES (A.U.)
---------------------------
 C      0   0   0     0.000000000000     0.00000000     0.00000000
 H      1   0   0     2.079983766136     0.00000000     0.00000000
 H      1   2   0     2.079700440562   107.45704653     0.00000000
 H      1   2   3     2.077522037957   107.62217968   115.66491396
 C      1   2   3     2.892475945705   111.20828101   238.06230565
 H      5   1   2     2.085353288651   109.53658386   182.10449608
 H      5   1   2     2.085075209527   109.56850501   297.90867334
 C      5   1   2     2.895245786524   113.22503800    59.99406449
 H      8   5   1     2.084448040147   109.64159526    58.24268698
 H      8   5   1     2.086943508391   109.34860632   302.40856996
 C      8   5   1     2.908985591883   113.27386504   180.34515831
 H     11   8   5     2.089517670239   108.30650628    56.82721485
 H     11   8   5     2.083713035393   109.83285323   300.91086221
 C     11   8   5     2.835930978979   113.19606965   177.98397198
 H     14  11   8     2.072861167775   115.76239155   301.63713641
 C     14  11   8     2.525065706633   125.47270215   121.02127949
 H     16  14  11     2.061198273900   121.73480935   180.33000249
 H     16  14  11     2.065252698880   121.44898495     0.52019917

---------------------
BASIS SET INFORMATION
---------------------
There are 2 groups of distinct atoms

 Group   1 Type C   : 8s4p1d contracted to 4s2p1d pattern {5111/31/1}
 Group   2 Type H   : 4s contracted to 2s pattern {31}

Atom   0C    basis set group =>   1
Atom   1H    basis set group =>   2
Atom   2H    basis set group =>   2
Atom   3H    basis set group =>   2
Atom   4C    basis set group =>   1
Atom   5H    basis set group =>   2
Atom   6H    basis set group =>   2
Atom   7C    basis set group =>   1
Atom   8H    basis set group =>   2
Atom   9H    basis set group =>   2
Atom  10C    basis set group =>   1
Atom  11H    basis set group =>   2
Atom  12H    basis set group =>   2
Atom  13C    basis set group =>   1
Atom  14H    basis set group =>   2
Atom  15C    basis set group =>   1
Atom  16H    basis set group =>   2
Atom  17H    basis set group =>   2
---------------------------------
AUXILIARY/J BASIS SET INFORMATION
---------------------------------
There are 2 groups of distinct atoms

 Group   1 Type C   : 12s5p4d2f1g contracted to 6s4p3d1f1g pattern {711111/2111/211/2/1}
 Group   2 Type H   : 5s2p1d contracted to 3s1p1d pattern {311/2/1}

Atom   0C    basis set group =>   1
Atom   1H    basis set group =>   2
Atom   2H    basis set group =>   2
Atom   3H    basis set group =>   2
Atom   4C    basis set group =>   1
Atom   5H    basis set group =>   2
Atom   6H    basis set group =>   2
Atom   7C    basis set group =>   1
Atom   8H    basis set group =>   2
Atom   9H    basis set group =>   2
Atom  10C    basis set group =>   1
Atom  11H    basis set group =>   2
Atom  12H    basis set group =>   2
Atom  13C    basis set group =>   1
Atom  14H    basis set group =>   2
Atom  15C    basis set group =>   1
Atom  16H    basis set group =>   2
Atom  17H    basis set group =>   2


           ************************************************************
           *        Program running with 4 parallel MPI-processes     *
           *              working on a common directory               *
           ************************************************************
------------------------------------------------------------------------------
                           ORCA GTO INTEGRAL CALCULATION
                           -- RI-GTO INTEGRALS CHOSEN --
------------------------------------------------------------------------------
------------------------------------------------------------------------------
                   ___                                                        
                  /   \      - P O W E R E D   B Y -                         
                 /     \                                                     
                 |  |  |   _    _      __       _____    __    __             
                 |  |  |  | |  | |    /  \     |  _  \  |  |  /  |          
                  \  \/   | |  | |   /    \    | | | |  |  | /  /          
                 / \  \   | |__| |  /  /\  \   | |_| |  |  |/  /          
                |  |  |   |  __  | /  /__\  \  |    /   |      \           
                |  |  |   | |  | | |   __   |  |    \   |  |\   \          
                \     /   | |  | | |  |  |  |  | |\  \  |  | \   \       
                 \___/    |_|  |_| |__|  |__|  |_| \__\ |__|  \__/        
                                                                              
                      - O R C A' S   B I G   F R I E N D -                    
                                      &                                       
                       - I N T E G R A L  F E E D E R -                       
                                                                              
 v1 FN, 2020, v2 2021                                                         
------------------------------------------------------------------------------


Reading SHARK input file pbeh-3c.SHARKINP.tmp ... ok
----------------------
SHARK INTEGRAL PACKAGE
----------------------

Number of atoms                             ...     18
Number of basis functions                   ...    114
Number of shells                            ...     66
Maximum angular momentum                    ...      2
Integral batch strategy                     ... SHARK/LIBINT Hybrid
RI-J (if used) integral strategy            ... SPLIT-RIJ (Revised 2003 algorithm where possible)
Printlevel                                  ...      1
Contraction scheme used                     ... SEGMENTED contraction
Coulomb Range Separation                    ... NOT USED
Exchange Range Separation                   ... NOT USED
Finite Nucleus Model                        ... NOT USED
Auxiliary Coulomb fitting basis             ... AVAILABLE
   # of basis functions in Aux-J            ...    426
   # of shells in Aux-J                     ...    150
   Maximum angular momentum in Aux-J        ...      4
Auxiliary J/K fitting basis                 ... NOT available
Auxiliary Correlation fitting basis         ... NOT available
Auxiliary 'external' fitting basis          ... NOT available
Integral threshold                          ...     2.500000e-11
Primitive cut-off                           ...     2.500000e-12
Primitive pair pre-selection threshold      ...     2.500000e-12

Calculating pre-screening integrals         ... done (  0.1 sec) Dimension = 66
Organizing shell pair data                  ... done (  0.2 sec)
Shell pair information
Total number of shell pairs                 ...      2211
Shell pairs after pre-screening             ...      1980
Total number of primitive shell pairs       ...      8115
Primitive shell pairs kept                  ...      5241
          la=0 lb=0:   1021 shell pairs
          la=1 lb=0:    547 shell pairs
          la=1 lb=1:     77 shell pairs
          la=2 lb=0:    247 shell pairs
          la=2 lb=1:     70 shell pairs
          la=2 lb=2:     18 shell pairs

Calculating one electron integrals          ... done (  0.0 sec)
Calculating RI/J V-Matrix + Cholesky decomp.... done (  0.4 sec)
Calculating Nuclear repulsion               ... done (  0.0 sec) ENN=    227.096195523590 Eh

SHARK setup successfully completed in   1.6 seconds

Maximum memory used throughout the entire GTOINT-calculation: 10.7 MB


           ************************************************************
           *        Program running with 4 parallel MPI-processes     *
           *              working on a common directory               *
           ************************************************************
-------------------------------------------------------------------------------
                                 ORCA SCF
-------------------------------------------------------------------------------

------------
SCF SETTINGS
------------
Hamiltonian:
 Density Functional     Method          .... DFT(GTOs)
 Exchange Functional    Exchange        .... PBE
   PBE kappa parameter   XKappa         ....  1.024500
   PBE mue parameter    XMuePBE         ....  0.123457
 Correlation Functional Correlation     .... PBE
   PBE beta parameter  CBetaPBE         ....  0.030000
 LDA part of GGA corr.  LDAOpt          .... PW91-LDA
 Gradients option       PostSCFGGA      .... off
 Hybrid DFT is turned on
   Fraction HF Exchange ScalHFX         ....  0.420000
   Scaling of DF-GGA-X  ScalDFX         ....  0.580000
   Scaling of DF-GGA-C  ScalDFC         ....  1.000000
   Scaling of DF-LDA-C  ScalLDAC        ....  1.000000
   Perturbative correction              ....  0.000000
   Density functional embedding theory  .... OFF
 RI-approximation to the Coulomb term is turned on
   Number of AuxJ basis functions       .... 426
   RIJ-ON(X) (HFX calculated with O(N)) .... on
   Number of AuxJ basis functions       .... 426
   RIJ-COSX (HFX calculated with COS-X)).... on


General Settings:
 Integral files         IntName         .... pbeh-3c
 Hartree-Fock type      HFTyp           .... RHF
 Total Charge           Charge          ....    0
 Multiplicity           Mult            ....    1
 Number of Electrons    NEL             ....   48
 Basis Dimension        Dim             ....  114
 Nuclear Repulsion      ENuc            ....    227.0961955236 Eh

Convergence Acceleration:
 DIIS                   CNVDIIS         .... on
   Start iteration      DIISMaxIt       ....    12
   Startup error        DIISStart       ....  0.200000
   # of expansion vecs  DIISMaxEq       ....     5
   Bias factor          DIISBfac        ....   1.050
   Max. coefficient     DIISMaxC        ....  10.000
 Trust-Rad. Augm. Hess. CNVTRAH         .... auto
   Auto Start mean grad. ratio tolernc. ....  1.125000
   Auto Start start iteration           ....    20
   Auto Start num. interpolation iter.  ....    10
   Max. Number of Micro iterations      ....    16
   Max. Number of Macro iterations      .... Maxiter - #DIIS iter
   Number of Davidson start vectors     ....     2
   Converg. threshold I  (grad. norm)   ....   1.000e-05
   Converg. threshold II (energy diff.) ....   1.000e-08
   Grad. Scal. Fac. for Micro threshold ....   0.100
   Minimum threshold for Micro iter.    ....   0.010
   NR start threshold (gradient norm)   ....   0.001
   Initial trust radius                 ....   0.400
   Minimum AH scaling param. (alpha)    ....   1.000
   Maximum AH scaling param. (alpha)    .... 1000.000
   Orbital update algorithm             .... Taylor
   White noise on init. David. guess    .... on
   Maximum white noise                  ....   0.010
   Quad. conv. algorithm                .... NR
   COSX micro iterations for RIJONX calc.... off
 SOSCF                  CNVSOSCF        .... on
   Start iteration      SOSCFMaxIt      ....   150
   Startup grad/error   SOSCFStart      ....  0.003300
 Level Shifting         CNVShift        .... on
   Level shift para.    LevelShift      ....    0.2500
   Turn off err/grad.   ShiftErr        ....    0.0010
 Zerner damping         CNVZerner       .... off
 Static damping         CNVDamp         .... on
   Fraction old density DampFac         ....    0.7000
   Max. Damping (<1)    DampMax         ....    0.9800
   Min. Damping (>=0)   DampMin         ....    0.0000
   Turn off err/grad.   DampErr         ....    0.1000
 Fernandez-Rico         CNVRico         .... off

SCF Procedure:
 Maximum # iterations   MaxIter         ....   125
 SCF integral mode      SCFMode         .... Direct
   Integral package                     .... SHARK and LIBINT hybrid scheme
 Reset frequency        DirectResetFreq ....    20
 Integral Threshold     Thresh          ....  2.500e-11 Eh
 Primitive CutOff       TCut            ....  2.500e-12 Eh

Convergence Tolerance:
 Convergence Check Mode ConvCheckMode   .... Total+1el-Energy
 Convergence forced     ConvForced      .... 0
 Energy Change          TolE            ....  1.000e-08 Eh
 1-El. energy change                    ....  1.000e-05 Eh
 Orbital Gradient       TolG            ....  1.000e-05
 Orbital Rotation angle TolX            ....  1.000e-05
 DIIS Error             TolErr          ....  5.000e-07


Diagonalization of the overlap matrix:
Smallest eigenvalue                        ... 3.894e-03
Time for diagonalization                   ...    0.003 sec
Threshold for overlap eigenvalues          ... 1.000e-08
Number of eigenvalues below threshold      ... 0
Time for construction of square roots      ...    0.194 sec
Total time needed                          ...    0.198 sec

--------------------------------
INITIAL GUESS: MINIMAL BASIS EHT
--------------------------------
The minimal basis has 42 functions
EHT matrix was diagonalized
Basis set overlap was calculated now projecting the orbitals
Using GuessMode=FMatrix for the initial guess
C*T matrix was formed
Effective Fockian was calculated
Effective Fockian was diagonalized
Initial density was built
                      ------------------
                      INITIAL GUESS DONE
                      ------------------
-------------------
DFT GRID GENERATION
-------------------

General Integration Accuracy     IntAcc      ... 4.959
Radial Grid Type                 RadialGrid  ... OptM3 with GC (2021)
Angular Grid (max. ang.)         AngularGrid ... 6 (Lebedev-590)
Angular grid pruning method      GridPruning ... 4 (adaptive)
Weight generation scheme         WeightScheme... Becke
Basis function cutoff            BFCut       ... 1.0000e-11
Integration weight cutoff        WCut        ... 1.0000e-14
Angular grids for H and He will be reduced by one unit
Partially contracted basis set               ... off
Rotationally invariant grid construction     ... off

Total number of grid points                  ...   190332
Total number of batches                      ...     2982
Average number of points per batch           ...       63
Average number of grid points per atom       ...    10574
Time for grid setup =    2.712 sec

--------------------
COSX GRID GENERATION
--------------------

GRIDX 1
-------
General Integration Accuracy     IntAcc      ... 4.020
Radial Grid Type                 RadialGrid  ... OptM3 with GC (2021)
Angular Grid (max. ang.)         AngularGrid ... 2 (Lebedev-110)
Angular grid pruning method      GridPruning ... 4 (adaptive)
Weight generation scheme         WeightScheme... Becke
Basis function cutoff            BFCut       ... 1.0000e-11
Integration weight cutoff        WCut        ... 1.0000e-14
Angular grids for H and He will be reduced by one unit
Partially contracted basis set               ... on
Rotationally invariant grid construction     ... off

Total number of grid points                  ...    20013
Total number of batches                      ...      325
Average number of points per batch           ...       61
Average number of grid points per atom       ...     1112
UseSFitting                                  ... on

GRIDX 2
-------
General Integration Accuracy     IntAcc      ... 4.338
Radial Grid Type                 RadialGrid  ... OptM3 with GC (2021)
Angular Grid (max. ang.)         AngularGrid ... 3 (Lebedev-194)
Angular grid pruning method      GridPruning ... 4 (adaptive)
Weight generation scheme         WeightScheme... Becke
Basis function cutoff            BFCut       ... 1.0000e-11
Integration weight cutoff        WCut        ... 1.0000e-14
Angular grids for H and He will be reduced by one unit
Partially contracted basis set               ... on
Rotationally invariant grid construction     ... off

Total number of grid points                  ...    43637
Total number of batches                      ...      691
Average number of points per batch           ...       63
Average number of grid points per atom       ...     2424
UseSFitting                                  ... on

GRIDX 3
-------
General Integration Accuracy     IntAcc      ... 4.871
Radial Grid Type                 RadialGrid  ... OptM3 with GC (2021)
Angular Grid (max. ang.)         AngularGrid ... 4 (Lebedev-302)
Angular grid pruning method      GridPruning ... 4 (adaptive)
Weight generation scheme         WeightScheme... Becke
Basis function cutoff            BFCut       ... 1.0000e-11
Integration weight cutoff        WCut        ... 1.0000e-14
Angular grids for H and He will be reduced by one unit
Partially contracted basis set               ... on
Rotationally invariant grid construction     ... off

Total number of grid points                  ...    86936
Total number of batches                      ...     1366
Average number of points per batch           ...       63
Average number of grid points per atom       ...     4830
UseSFitting                                  ... on

Time for X-Grid setup             =    3.088 sec

--------------
SCF ITERATIONS
--------------
ITER       Energy         Delta-E        Max-DP      RMS-DP      [F,P]     Damp
               ***  Starting incremental Fock matrix formation  ***
  0   -234.8566171117   0.000000000000 0.07894810  0.00248808  0.3967912 0.7000
  1   -234.9959047633  -0.139287651592 0.05679709  0.00188011  0.2780529 0.7000
                               ***Turning on DIIS***
  2   -235.0956830509  -0.099778287619 0.03964300  0.00139965  0.1960637 0.7000
  3   -235.1666696264  -0.070986575466 0.02864250  0.00109972  0.1380887 0.7000
  4   -235.2170792760  -0.050409649584 0.07443881  0.00275898  0.0966765 0.0000
  5   -235.3375233126  -0.120444036623 0.00512987  0.00013415  0.0044972 0.0000
                      *** Initiating the SOSCF procedure ***
                           *** Shutting down DIIS ***
                      *** Re-Reading the Fockian *** 
                      *** Removing any level shift *** 
ITER      Energy       Delta-E        Grad      Rot      Max-DP    RMS-DP
  6   -235.33758156  -0.0000582456  0.000668  0.000668  0.001609  0.000057
               *** Restarting incremental Fock matrix formation ***
  7   -235.33759854  -0.0000169799  0.000349  0.000787  0.001417  0.000037
  8   -235.33759962  -0.0000010825  0.000343  0.000454  0.000627  0.000018
  9   -235.33760050  -0.0000008755  0.000044  0.000058  0.000143  0.000006
 10   -235.33760052  -0.0000000244  0.000012  0.000011  0.000031  0.000002
 11   -235.33760053  -0.0000000086  0.000004  0.000007  0.000016  0.000001
                  ***Gradient check signals convergence***
              ***Rediagonalizing the Fockian in SOSCF/NRSCF***

               *****************************************************
               *                     SUCCESS                       *
               *           SCF CONVERGED AFTER  12 CYCLES          *
               *****************************************************

Old exchange energy                            =    -14.821370192 Eh
New exchange energy                            =    -14.821364814 Eh
Exchange energy change after final integration =      0.000005378 Eh
Total energy after final integration           =   -235.337595152 Eh
Final COS-X integration done in                =     3.846 sec

----------------
TOTAL SCF ENERGY
----------------

Total Energy       :         -235.33759515 Eh           -6403.86153 eV

Components:
Nuclear Repulsion  :          227.09619552 Eh            6179.60165 eV
Electronic Energy  :         -462.43379068 Eh          -12583.46318 eV
One Electron Energy:         -765.00213669 Eh          -20816.76644 eV
Two Electron Energy:          302.56834602 Eh            8233.30327 eV
Max COSX asymmetry :            0.00000078 Eh               0.00002 eV

Virial components:
Potential Energy   :         -468.46726737 Eh          -12747.64242 eV
Kinetic Energy     :          233.12967222 Eh            6343.78089 eV
Virial Ratio       :            2.00947079


DFT components:
N(Alpha)           :       23.999998937290 electrons
N(Beta)            :       23.999998937290 electrons
N(Total)           :       47.999997874580 electrons
E(X)               :      -19.638567626353 Eh       
E(C)               :       -2.017819144437 Eh       
E(XC)              :      -21.656386770789 Eh       
DFET-embed. en.    :        0.000000000000 Eh       

---------------
SCF CONVERGENCE
---------------

  Last Energy change         ...   -1.3174e-09  Tolerance :   1.0000e-08
  Last MAX-Density change    ...    1.4433e-15  Tolerance :   1.0000e-07
  Last RMS-Density change    ...    5.1302e-17  Tolerance :   5.0000e-09
  Last Orbital Gradient      ...    6.4458e-07  Tolerance :   1.0000e-05
  Last Orbital Rotation      ...    9.2405e-07  Tolerance :   1.0000e-05

             **** THE GBW FILE WAS UPDATED (pbeh-3c.gbw) ****
             **** DENSITY pbeh-3c.scfp WAS UPDATED ****
             **** ENERGY FILE WAS UPDATED (pbeh-3c.en.tmp) ****
             **** THE GBW FILE WAS UPDATED (pbeh-3c.gbw) ****
             **** DENSITY pbeh-3c.scfp WAS UPDATED ****
----------------
ORBITAL ENERGIES
----------------

  NO   OCC          E(Eh)            E(eV) 
   0   2.0000     -10.445401      -284.2338 
   1   2.0000     -10.438970      -284.0588 
   2   2.0000     -10.435369      -283.9608 
   3   2.0000     -10.435106      -283.9537 
   4   2.0000     -10.432194      -283.8744 
   5   2.0000     -10.426018      -283.7064 
   6   2.0000      -0.899664       -24.4811 
   7   2.0000      -0.857213       -23.3260 
   8   2.0000      -0.792896       -21.5758 
   9   2.0000      -0.711469       -19.3601 
  10   2.0000      -0.649079       -17.6623 
  11   2.0000      -0.618595       -16.8328 
  12   2.0000      -0.537997       -14.6396 
  13   2.0000      -0.512250       -13.9390 
  14   2.0000      -0.488677       -13.2976 
  15   2.0000      -0.479445       -13.0464 
  16   2.0000      -0.452374       -12.3097 
  17   2.0000      -0.436604       -11.8806 
  18   2.0000      -0.410291       -11.1646 
  19   2.0000      -0.393443       -10.7061 
  20   2.0000      -0.385155       -10.4806 
  21   2.0000      -0.372259       -10.1297 
  22   2.0000      -0.369615       -10.0577 
  23   2.0000      -0.295826        -8.0498 
  24   0.0000       0.047736         1.2989 
  25   0.0000       0.136803         3.7226 
  26   0.0000       0.160187         4.3589 
  27   0.0000       0.172195         4.6857 
  28   0.0000       0.183150         4.9838 
  29   0.0000       0.191561         5.2126 
  30   0.0000       0.205500         5.5919 
  31   0.0000       0.215815         5.8726 
  32   0.0000       0.218517         5.9461 
  33   0.0000       0.229611         6.2480 
  34   0.0000       0.233893         6.3646 
  35   0.0000       0.242806         6.6071 
  36   0.0000       0.245775         6.6879 
  37   0.0000       0.270586         7.3630 
  38   0.0000       0.271818         7.3965 
  39   0.0000       0.299158         8.1405 
  40   0.0000       0.343773         9.3545 
  41   0.0000       0.374219        10.1830 
  42   0.0000       0.485736        13.2176 
  43   0.0000       0.492151        13.3921 
  44   0.0000       0.522858        14.2277 
  45   0.0000       0.531706        14.4685 
  46   0.0000       0.542617        14.7653 
  47   0.0000       0.569716        15.5028 
  48   0.0000       0.587709        15.9924 
  49   0.0000       0.606748        16.5105 
  50   0.0000       0.636760        17.3271 
  51   0.0000       0.659572        17.9479 
  52   0.0000       0.681255        18.5379 
  53   0.0000       0.713871        19.4254 
  54   0.0000       0.718072        19.5397 
  55   0.0000       0.726473        19.7683 
  56   0.0000       0.744895        20.2696 
  57   0.0000       0.847967        23.0744 
  58   0.0000       0.885156        24.0863 
  59   0.0000       0.912058        24.8184 
  60   0.0000       0.952548        25.9201 
  61   0.0000       0.957660        26.0593 
  62   0.0000       1.003385        27.3035 
  63   0.0000       1.019223        27.7345 
  64   0.0000       1.028796        27.9950 
  65   0.0000       1.040729        28.3197 
  66   0.0000       1.054010        28.6811 
  67   0.0000       1.054980        28.7075 
  68   0.0000       1.061039        28.8723 
  69   0.0000       1.076574        29.2951 
  70   0.0000       1.090594        29.6766 
  71   0.0000       1.123260        30.5655 
  72   0.0000       1.138054        30.9680 
  73   0.0000       1.185430        32.2572 
  74   0.0000       1.254581        34.1389 
  75   0.0000       1.365311        37.1520 
  76   0.0000       1.421374        38.6775 
  77   0.0000       1.468579        39.9621 
  78   0.0000       1.544363        42.0242 
  79   0.0000       1.563351        42.5409 
  80   0.0000       1.646361        44.7997 
  81   0.0000       1.656811        45.0841 
  82   0.0000       1.741662        47.3930 
  83   0.0000       1.822795        49.6008 
  84   0.0000       1.873371        50.9770 
  85   0.0000       1.925921        52.4070 
  86   0.0000       1.963230        53.4222 
  87   0.0000       1.970076        53.6085 
  88   0.0000       2.014794        54.8253 
  89   0.0000       2.029968        55.2382 
  90   0.0000       2.055768        55.9403 
  91   0.0000       2.066213        56.2245 
  92   0.0000       2.103770        57.2465 
  93   0.0000       2.188527        59.5528 
  94   0.0000       2.276322        61.9419 
  95   0.0000       2.307190        62.7818 
  96   0.0000       2.317921        63.0738 
  97   0.0000       2.370105        64.4938 
  98   0.0000       2.417579        65.7857 
  99   0.0000       2.463058        67.0232 
 100   0.0000       2.474908        67.3457 
 101   0.0000       2.538945        69.0882 
 102   0.0000       2.588130        70.4266 
 103   0.0000       2.597184        70.6730 
 104   0.0000       2.726151        74.1823 
 105   0.0000       2.782076        75.7041 
 106   0.0000       2.846951        77.4695 
 107   0.0000       2.963008        80.6276 
 108   0.0000      13.403717       364.7337 
 109   0.0000      13.614885       370.4799 
 110   0.0000      13.824703       376.1893 
 111   0.0000      13.960621       379.8878 
 112   0.0000      14.059206       382.5704 
 113   0.0000      14.147352       384.9690 

                    ********************************
                    * MULLIKEN POPULATION ANALYSIS *
                    ********************************

-----------------------
MULLIKEN ATOMIC CHARGES
-----------------------
   0 C :   -0.635669
   1 H :    0.208316
   2 H :    0.209555
   3 H :    0.218108
   4 C :   -0.407510
   5 H :    0.204942
   6 H :    0.203855
   7 C :   -0.398044
   8 H :    0.214757
   9 H :    0.200860
  10 C :   -0.466533
  11 H :    0.215553
  12 H :    0.213357
  13 C :   -0.119550
  14 H :    0.208734
  15 C :   -0.490110
  16 H :    0.212605
  17 H :    0.206774
Sum of atomic charges:    0.0000000

--------------------------------
MULLIKEN REDUCED ORBITAL CHARGES
--------------------------------
  0 C s       :     3.381512  s :     3.381512
      pz      :     1.000211  p :     3.217449
      px      :     1.118900
      py      :     1.098338
      dz2     :     0.009564  d :     0.036708
      dxz     :     0.004971
      dyz     :     0.007818
      dx2y2   :     0.010890
      dxy     :     0.003465
  1 H s       :     0.791684  s :     0.791684
  2 H s       :     0.790445  s :     0.790445
  3 H s       :     0.781892  s :     0.781892
  4 C s       :     3.325168  s :     3.325168
      pz      :     0.997863  p :     3.038890
      px      :     0.949640
      py      :     1.091387
      dz2     :     0.009553  d :     0.043452
      dxz     :     0.008428
      dyz     :     0.008039
      dx2y2   :     0.009660
      dxy     :     0.007772
  5 H s       :     0.795058  s :     0.795058
  6 H s       :     0.796145  s :     0.796145
  7 C s       :     3.324626  s :     3.324626
      pz      :     0.987121  p :     3.030298
      px      :     0.954090
      py      :     1.089088
      dz2     :     0.009513  d :     0.043121
      dxz     :     0.008389
      dyz     :     0.007889
      dx2y2   :     0.009396
      dxy     :     0.007934
  8 H s       :     0.785243  s :     0.785243
  9 H s       :     0.799140  s :     0.799140
 10 C s       :     3.349942  s :     3.349942
      pz      :     0.996933  p :     3.073126
      px      :     0.958742
      py      :     1.117452
      dz2     :     0.009243  d :     0.043465
      dxz     :     0.008820
      dyz     :     0.007983
      dx2y2   :     0.010453
      dxy     :     0.006966
 11 H s       :     0.784447  s :     0.784447
 12 H s       :     0.786643  s :     0.786643
 13 C s       :     3.215927  s :     3.215927
      pz      :     0.957156  p :     2.863423
      px      :     0.902831
      py      :     1.003435
      dz2     :     0.003955  d :     0.040200
      dxz     :     0.005606
      dyz     :     0.004088
      dx2y2   :     0.013333
      dxy     :     0.013218
 14 H s       :     0.791266  s :     0.791266
 15 C s       :     3.326024  s :     3.326024
      pz      :     1.034300  p :     3.131683
      px      :     1.072962
      py      :     1.024421
      dz2     :     0.004157  d :     0.032403
      dxz     :     0.002169
      dyz     :     0.003636
      dx2y2   :     0.013914
      dxy     :     0.008527
 16 H s       :     0.787395  s :     0.787395
 17 H s       :     0.793226  s :     0.793226


                     *******************************
                     * LOEWDIN POPULATION ANALYSIS *
                     *******************************

----------------------
LOEWDIN ATOMIC CHARGES
----------------------
   0 C :   -0.361346
   1 H :    0.123410
   2 H :    0.124016
   3 H :    0.126700
   4 C :   -0.245449
   5 H :    0.119913
   6 H :    0.119190
   7 C :   -0.237101
   8 H :    0.124353
   9 H :    0.119200
  10 C :   -0.236958
  11 H :    0.129469
  12 H :    0.126306
  13 C :   -0.137673
  14 H :    0.126902
  15 C :   -0.279225
  16 H :    0.131177
  17 H :    0.127116

-------------------------------
LOEWDIN REDUCED ORBITAL CHARGES
-------------------------------
  0 C s       :     2.958060  s :     2.958060
      pz      :     1.089224  p :     3.335200
      px      :     1.122779
      py      :     1.123197
      dz2     :     0.018707  d :     0.068086
      dxz     :     0.010030
      dyz     :     0.015226
      dx2y2   :     0.018371
      dxy     :     0.005752
  1 H s       :     0.876590  s :     0.876590
  2 H s       :     0.875984  s :     0.875984
  3 H s       :     0.873300  s :     0.873300
  4 C s       :     2.915652  s :     2.915652
      pz      :     1.076975  p :     3.241726
      px      :     1.061644
      py      :     1.103107
      dz2     :     0.020068  d :     0.088071
      dxz     :     0.017725
      dyz     :     0.015422
      dx2y2   :     0.020060
      dxy     :     0.014795
  5 H s       :     0.880087  s :     0.880087
  6 H s       :     0.880810  s :     0.880810
  7 C s       :     2.919991  s :     2.919991
      pz      :     1.067474  p :     3.229976
      px      :     1.060903
      py      :     1.101599
      dz2     :     0.020026  d :     0.087134
      dxz     :     0.017506
      dyz     :     0.015162
      dx2y2   :     0.019481
      dxy     :     0.014959
  8 H s       :     0.875647  s :     0.875647
  9 H s       :     0.880800  s :     0.880800
 10 C s       :     2.910390  s :     2.910390
      pz      :     1.074442  p :     3.238117
      px      :     1.059211
      py      :     1.104464
      dz2     :     0.019379  d :     0.088452
      dxz     :     0.018536
      dyz     :     0.015177
      dx2y2   :     0.021558
      dxy     :     0.013803
 11 H s       :     0.870531  s :     0.870531
 12 H s       :     0.873694  s :     0.873694
 13 C s       :     2.917518  s :     2.917518
      pz      :     0.952814  p :     3.131511
      px      :     1.068495
      py      :     1.110202
      dz2     :     0.006615  d :     0.088645
      dxz     :     0.011963
      dyz     :     0.007390
      dx2y2   :     0.032295
      dxy     :     0.030382
 14 H s       :     0.873098  s :     0.873098
 15 C s       :     2.968621  s :     2.968621
      pz      :     1.037217  p :     3.244779
      px      :     1.097853
      py      :     1.109710
      dz2     :     0.005737  d :     0.065824
      dxz     :     0.003899
      dyz     :     0.006473
      dx2y2   :     0.029623
      dxy     :     0.020092
 16 H s       :     0.868823  s :     0.868823
 17 H s       :     0.872884  s :     0.872884


                      *****************************
                      * MAYER POPULATION ANALYSIS *
                      *****************************

  NA   - Mulliken gross atomic population
  ZA   - Total nuclear charge
  QA   - Mulliken gross atomic charge
  VA   - Mayer's total valence
  BVA  - Mayer's bonded valence
  FA   - Mayer's free valence

  ATOM       NA         ZA         QA         VA         BVA        FA
  0 C      6.6357     6.0000    -0.6357     3.7427     3.7427     0.0000
  1 H      0.7917     1.0000     0.2083     0.9157     0.9157     0.0000
  2 H      0.7904     1.0000     0.2096     0.9152     0.9152     0.0000
  3 H      0.7819     1.0000     0.2181     0.9144     0.9144     0.0000
  4 C      6.4075     6.0000    -0.4075     3.7529     3.7529    -0.0000
  5 H      0.7951     1.0000     0.2049     0.9095     0.9095     0.0000
  6 H      0.7961     1.0000     0.2039     0.9100     0.9100    -0.0000
  7 C      6.3980     6.0000    -0.3980     3.7093     3.7093    -0.0000
  8 H      0.7852     1.0000     0.2148     0.9081     0.9081    -0.0000
  9 H      0.7991     1.0000     0.2009     0.9130     0.9130    -0.0000
 10 C      6.4665     6.0000    -0.4665     3.7543     3.7543     0.0000
 11 H      0.7844     1.0000     0.2156     0.9047     0.9047     0.0000
 12 H      0.7866     1.0000     0.2134     0.9130     0.9130    -0.0000
 13 C      6.1196     6.0000    -0.1196     3.7810     3.7810     0.0000
 14 H      0.7913     1.0000     0.2087     0.9156     0.9156     0.0000
 15 C      6.4901     6.0000    -0.4901     3.8191     3.8191     0.0000
 16 H      0.7874     1.0000     0.2126     0.9250     0.9250     0.0000
 17 H      0.7932     1.0000     0.2068     0.9262     0.9262     0.0000

  Mayer bond orders larger than 0.100000
B(  0-C ,  1-H ) :   0.9293 B(  0-C ,  2-H ) :   0.9289 B(  0-C ,  3-H ) :   0.9315 
B(  0-C ,  4-C ) :   0.9942 B(  4-C ,  5-H ) :   0.9200 B(  4-C ,  6-H ) :   0.9204 
B(  4-C ,  7-C ) :   0.9831 B(  7-C ,  8-H ) :   0.9161 B(  7-C ,  9-H ) :   0.9198 
B(  7-C , 10-C ) :   0.9663 B( 10-C , 11-H ) :   0.9096 B( 10-C , 12-H ) :   0.9213 
B( 10-C , 13-C ) :   1.0018 B( 13-C , 14-H ) :   0.9176 B( 13-C , 15-C ) :   1.9352 
B( 15-C , 16-H ) :   0.9297 B( 15-C , 17-H ) :   0.9305 

-------
TIMINGS
-------

Total SCF time: 0 days 0 hours 1 min 11 sec 

Total time                  ....      71.685 sec
Sum of individual times     ....      66.194 sec  ( 92.3%)

Fock matrix formation       ....      57.195 sec  ( 79.8%)
  Split-RI-J                ....       5.795 sec  ( 10.1% of F)
  Chain of spheres X        ....      21.341 sec  ( 37.3% of F)
  XC integration            ....      16.008 sec  ( 28.0% of F)
    Basis function eval.    ....       2.628 sec  ( 16.4% of XC)
    Density eval.           ....       1.634 sec  ( 10.2% of XC)
    XC-Functional eval.     ....       1.199 sec  (  7.5% of XC)
    XC-Potential eval.      ....       0.811 sec  (  5.1% of XC)
Diagonalization             ....       0.469 sec  (  0.7%)
Density matrix formation    ....       0.028 sec  (  0.0%)
Population analysis         ....       0.186 sec  (  0.3%)
Initial guess               ....       0.018 sec  (  0.0%)
Orbital Transformation      ....       0.000 sec  (  0.0%)
Orbital Orthonormalization  ....       0.000 sec  (  0.0%)
DIIS solution               ....       1.559 sec  (  2.2%)
SOSCF solution              ....       0.939 sec  (  1.3%)
Grid generation             ....       5.800 sec  (  8.1%)

Maximum memory used throughout the entire SCF-calculation: 53.9 MB


-------------------------------------------------------------------------------
                          DFT DISPERSION CORRECTION                            
                                                                               
                              DFTD3 V3.1  Rev 1                                
                          USING Becke-Johnson damping                          
-------------------------------------------------------------------------------
The PBEh-3c composite method is recognized
Using three-body term ABC
Active option DFTDOPT                   ...         4   

molecular C6(AA) [au] = 2327.528402 


            DFT-D V3
 parameters
 s6 scaling factor         :     1.0000 
 a1 scaling factor         :     0.4860 
 s8 scaling factor         :     0.0000 
 a2 scaling factor         :     4.5000 
 Damping factor alpha9(ATM):    16.0000 
 ad hoc parameters k1-k3   :    16.0000     1.3333    -4.0000 

 Edisp/kcal,au: -4.804573949326  -0.007656575136 
 E6   /kcal   :  -4.810415452 
 E8   /kcal   :  -0.000000000 
 E6(ABC)      :   0.005841503 
 % E8         :   0.000000000 
 % E6(ABC)    :  -0.121582118 

-------------------------   ----------------
Dispersion correction           -0.007656575
-------------------------   ----------------

------------------   -----------------
gCP correction             0.023754734
------------------   -----------------

-------------------------   --------------------
FINAL SINGLE POINT ENERGY      -235.321496993062
-------------------------   --------------------


                            ***************************************
                            *     ORCA property calculations      *
                            ***************************************

                                    ---------------------
                                    Active property flags
                                    ---------------------
   (+) Dipole Moment


------------------------------------------------------------------------------
                       ORCA ELECTRIC PROPERTIES CALCULATION
------------------------------------------------------------------------------

Dipole Moment Calculation                       ... on
Quadrupole Moment Calculation                   ... off
Polarizability Calculation                      ... off
GBWName                                         ... pbeh-3c.gbw
Electron density                                ... pbeh-3c.scfp
The origin for moment calculation is the CENTER OF MASS  = ( 0.324960,  0.104112  0.252447)

-------------
DIPOLE MOMENT
-------------
                                X             Y             Z
Electronic contribution:      3.03561       0.94108       2.40857
Nuclear contribution   :     -3.16998      -1.01561      -2.46261
                        -----------------------------------------
Total Dipole Moment    :     -0.13437      -0.07454      -0.05404
                        -----------------------------------------
Magnitude (a.u.)       :      0.16288
Magnitude (Debye)      :      0.41401



--------------------
Rotational spectrum 
--------------------
 
Rotational constants in cm-1:     0.455291     0.041102     0.040356 
Rotational constants in MHz : 13649.268584  1232.201041  1209.839004 

 Dipole components along the rotational axes: 
x,y,z [a.u.] :     0.157879    -0.021480    -0.033811 
x,y,z [Debye]:     0.401298    -0.054598    -0.085942 

 

Timings for individual modules:

Sum of individual times         ...       74.764 sec (=   1.246 min)
GTO integral calculation        ...        2.358 sec (=   0.039 min)   3.2 %
SCF iterations                  ...       72.405 sec (=   1.207 min)  96.8 %
                             ****ORCA TERMINATED NORMALLY****
TOTAL RUN TIME: 0 days 0 hours 1 minutes 19 seconds 168 msec
