
                                 *****************
                                 * O   R   C   A *
                                 *****************

                                            #,                                       
                                            ###                                      
                                            ####                                     
                                            #####                                    
                                            ######                                   
                                           ########,                                 
                                     ,,################,,,,,                         
                               ,,#################################,,                 
                          ,,##########################################,,             
                       ,#########################################, ''#####,          
                    ,#############################################,,   '####,        
                  ,##################################################,,,,####,       
                ,###########''''           ''''###############################       
              ,#####''   ,,,,##########,,,,          '''####'''          '####       
            ,##' ,,,,###########################,,,                        '##       
           ' ,,###''''                  '''############,,,                           
         ,,##''                                '''############,,,,        ,,,,,,###''
      ,#''                                            '''#######################'''  
     '                                                          ''''####''''         
             ,#######,   #######,   ,#######,      ##                                
            ,#'     '#,  ##    ##  ,#'     '#,    #''#        ######   ,####,        
            ##       ##  ##   ,#'  ##            #'  '#       #        #'  '#        
            ##       ##  #######   ##           ,######,      #####,   #    #        
            '#,     ,#'  ##    ##  '#,     ,#' ,#      #,         ##   #,  ,#        
             '#######'   ##     ##  '#######'  #'      '#     #####' # '####'        



                  #######################################################
                  #                        -***-                        #
                  #          Department of theory and spectroscopy      #
                  #    Directorship and core code : Frank Neese         #
                  #        Max Planck Institute fuer Kohlenforschung    #
                  #                Kaiser Wilhelm Platz 1               #
                  #                 D-45470 Muelheim/Ruhr               #
                  #                      Germany                        #
                  #                                                     #
                  #                  All rights reserved                #
                  #                        -***-                        #
                  #######################################################


                         Program Version 5.0.3 -  RELEASE  -


 With contributions from (in alphabetic order):
   Daniel Aravena         : Magnetic Suceptibility
   Michael Atanasov       : Ab Initio Ligand Field Theory (pilot matlab implementation)
   Alexander A. Auer      : GIAO ZORA, VPT2 properties, NMR spectrum
   Ute Becker             : Parallelization
   Giovanni Bistoni       : ED, misc. LED, open-shell LED, HFLD
   Martin Brehm           : Molecular dynamics
   Dmytro Bykov           : SCF Hessian
   Vijay G. Chilkuri      : MRCI spin determinant printing, contributions to CSF-ICE
   Dipayan Datta          : RHF DLPNO-CCSD density
   Achintya Kumar Dutta   : EOM-CC, STEOM-CC
   Dmitry Ganyushin       : Spin-Orbit,Spin-Spin,Magnetic field MRCI
   Miquel Garcia          : C-PCM and meta-GGA Hessian, CC/C-PCM, Gaussian charge scheme
   Yang Guo               : DLPNO-NEVPT2, F12-NEVPT2, CIM, IAO-localization
   Andreas Hansen         : Spin unrestricted coupled pair/coupled cluster methods
   Benjamin Helmich-Paris : MC-RPA, TRAH-SCF, COSX integrals
   Lee Huntington         : MR-EOM, pCC
   Robert Izsak           : Overlap fitted RIJCOSX, COSX-SCS-MP3, EOM
   Marcus Kettner         : VPT2
   Christian Kollmar      : KDIIS, OOCD, Brueckner-CCSD(T), CCSD density, CASPT2, CASPT2-K
   Simone Kossmann        : Meta GGA functionals, TD-DFT gradient, OOMP2, MP2 Hessian
   Martin Krupicka        : Initial AUTO-CI
   Lucas Lang             : DCDCAS
   Marvin Lechner         : AUTO-CI (C++ implementation), FIC-MRCC
   Dagmar Lenk            : GEPOL surface, SMD
   Dimitrios Liakos       : Extrapolation schemes; Compound Job, initial MDCI parallelization
   Dimitrios Manganas     : Further ROCIS development; embedding schemes
   Dimitrios Pantazis     : SARC Basis sets
   Anastasios Papadopoulos: AUTO-CI, single reference methods and gradients
   Taras Petrenko         : DFT Hessian,TD-DFT gradient, ASA, ECA, R-Raman, ABS, FL, XAS/XES, NRVS
   Peter Pinski           : DLPNO-MP2, DLPNO-MP2 Gradient
   Christoph Reimann      : Effective Core Potentials
   Marius Retegan         : Local ZFS, SOC
   Christoph Riplinger    : Optimizer, TS searches, QM/MM, DLPNO-CCSD(T), (RO)-DLPNO pert. Triples
   Tobias Risthaus        : Range-separated hybrids, TD-DFT gradient, RPA, STAB
   Michael Roemelt        : Original ROCIS implementation
   Masaaki Saitow         : Open-shell DLPNO-CCSD energy and density
   Barbara Sandhoefer     : DKH picture change effects
   Avijit Sen             : IP-ROCIS
   Kantharuban Sivalingam : CASSCF convergence, NEVPT2, FIC-MRCI
   Bernardo de Souza      : ESD, SOC TD-DFT
   Georgi Stoychev        : AutoAux, RI-MP2 NMR, DLPNO-MP2 response
   Willem Van den Heuvel  : Paramagnetic NMR
   Boris Wezisla          : Elementary symmetry handling
   Frank Wennmohs         : Technical directorship


 We gratefully acknowledge several colleagues who have allowed us to
 interface, adapt or use parts of their codes:
   Stefan Grimme, W. Hujo, H. Kruse, P. Pracht,  : VdW corrections, initial TS optimization,
                  C. Bannwarth, S. Ehlert          DFT functionals, gCP, sTDA/sTD-DF
   Ed Valeev, F. Pavosevic, A. Kumar             : LibInt (2-el integral package), F12 methods
   Garnet Chan, S. Sharma, J. Yang, R. Olivares  : DMRG
   Ulf Ekstrom                                   : XCFun DFT Library
   Mihaly Kallay                                 : mrcc  (arbitrary order and MRCC methods)
   Jiri Pittner, Ondrej Demel                    : Mk-CCSD
   Frank Weinhold                                : gennbo (NPA and NBO analysis)
   Christopher J. Cramer and Donald G. Truhlar   : smd solvation model
   Lars Goerigk                                  : TD-DFT with DH, B97 family of functionals
   V. Asgeirsson, H. Jonsson                     : NEB implementation
   FAccTs GmbH                                   : IRC, NEB, NEB-TS, DLPNO-Multilevel, CI-OPT
                                                   MM, QMMM, 2- and 3-layer-ONIOM, Crystal-QMMM,
                                                   LR-CPCM, SF, NACMEs, symmetry and pop. for TD-DFT,
                                                   nearIR, NL-DFT gradient (VV10), updates on ESD,
                                                   ML-optimized integration grids
   S Lehtola, MJT Oliveira, MAL Marques          : LibXC Library
   Liviu Ungur et al                             : ANISO software


 Your calculation uses the libint2 library for the computation of 2-el integrals
 For citations please refer to: http://libint.valeyev.net

 Your ORCA version has been built with support for libXC version: 5.1.0
 For citations please refer to: https://tddft.org/programs/libxc/

 This ORCA versions uses:
   CBLAS   interface :  Fast vector & matrix operations
   LAPACKE interface :  Fast linear algebra routines
   SCALAPACK package :  Parallel linear algebra routines
   Shared memory     :  Shared parallel matrices
   BLAS/LAPACK       :  OpenBLAS 0.3.15  USE64BITINT DYNAMIC_ARCH NO_AFFINITY Haswell SINGLE_THREADED
        Core in use  :  Haswell
   Copyright (c) 2011-2014, The OpenBLAS Project




***************************************
The coordinates will be read from file: o3_c2h4_add.xyz
***************************************


Your calculation utilizes the geometrical counterpoise correction gCP
Please cite in your paper:
H.Kruse, S. Grimme J.Chem.Phys., 136, (2012), 154101 
   

Your calculation utilizes the atom-pairwise dispersion correction
with the Becke-Johnson damping scheme (D3BJ)
Cite in your paper:
S.Grimme, S.Ehrlich, L.Goerigk, J Comput Chem, (2011), 32, 1456–1465 
S.Grimme, J.Antony, S.Ehrlich and H.Krieg, J.Chem.Phys., 132, (2010), 154104 
   

Your calculation employs the composite approach PBEh-3c.
Please cite in your paper:
S. Grimme, J. G. Brandenburg, C. Bannwarth, A. Hansen J.Chem.Phys., 143, (2015), 054107 
   

================================================================================

----- Orbital basis set information -----
Your calculation utilizes the basis: def2-mSVP

----- AuxJ basis set information -----
Your calculation utilizes the auxiliary basis: def2/J
   F. Weigend, Phys. Chem. Chem. Phys. 8, 1057 (2006).

================================================================================
                                        WARNINGS
                       Please study these warnings very carefully!
================================================================================


INFO   : the flag for use of the SHARK integral package has been found!

================================================================================
                                       INPUT FILE
================================================================================
NAME = pbeh-3c.inp
|  1> ! PBEh-3c def2/J TightSCF DefGrid3
|  2> 
|  3> %maxcore 60000
|  4> 
|  5> %pal
|  6> nprocs 4
|  7> end
|  8> 
|  9> *xyzfile 0 1 o3_c2h4_add.xyz
| 10> 
| 11>                          ****END OF INPUT****
================================================================================

                       ****************************
                       * Single Point Calculation *
                       ****************************

---------------------------------
CARTESIAN COORDINATES (ANGSTROEM)
---------------------------------
  O     -0.601558   -1.625900    0.000000
  O      0.071608   -1.060945    1.090104
  O      0.071608   -1.060945   -1.090104
  C      0.071608    0.318054    0.770642
  C      0.071608    0.318054   -0.770642
  H     -0.815193    0.815433    1.167661
  H     -0.815193    0.815433   -1.167661
  H      0.972756    0.740409    1.209386
  H      0.972756    0.740409   -1.209386

----------------------------
CARTESIAN COORDINATES (A.U.)
----------------------------
  NO LB      ZA    FRAG     MASS         X           Y           Z
   0 O     8.0000    0    15.999   -1.136779   -3.072507    0.000000
   1 O     8.0000    0    15.999    0.135320   -2.004895    2.059997
   2 O     8.0000    0    15.999    0.135320   -2.004895   -2.059997
   3 C     6.0000    0    12.011    0.135320    0.601035    1.456302
   4 C     6.0000    0    12.011    0.135320    0.601035   -1.456302
   5 H     1.0000    0     1.008   -1.540491    1.540944    2.206559
   6 H     1.0000    0     1.008   -1.540491    1.540944   -2.206559
   7 H     1.0000    0     1.008    1.838242    1.399169    2.285408
   8 H     1.0000    0     1.008    1.838242    1.399169   -2.285408

--------------------------------
INTERNAL COORDINATES (ANGSTROEM)
--------------------------------
 O      0   0   0     0.000000000000     0.00000000     0.00000000
 O      1   0   0     1.400233233778     0.00000000     0.00000000
 O      1   2   0     1.400233233778   102.24975467     0.00000000
 C      2   1   3     1.415518551116   102.55422506    49.86282987
 C      3   1   2     1.415518551116   102.55422506   310.13717013
 H      4   2   1     1.091524236638   111.21256607    89.86073328
 H      5   3   1     1.091524236638   111.21256607   270.13926672
 H      4   2   1     1.087633653436   106.69433904   210.37563647
 H      5   3   1     1.087633653436   106.69433904   149.62436353

---------------------------
INTERNAL COORDINATES (A.U.)
---------------------------
 O      0   0   0     0.000000000000     0.00000000     0.00000000
 O      1   0   0     2.646057335455     0.00000000     0.00000000
 O      1   2   0     2.646057335455   102.24975467     0.00000000
 C      2   1   3     2.674942399094   102.55422506    49.86282987
 C      3   1   2     2.674942399094   102.55422506   310.13717013
 H      4   2   1     2.062681875782   111.21256607    89.86073328
 H      5   3   1     2.062681875782   111.21256607   270.13926672
 H      4   2   1     2.055329739029   106.69433904   210.37563647
 H      5   3   1     2.055329739029   106.69433904   149.62436353

---------------------
BASIS SET INFORMATION
---------------------
There are 3 groups of distinct atoms

 Group   1 Type O   : 8s4p1d contracted to 4s2p1d pattern {5111/31/1}
 Group   2 Type C   : 8s4p1d contracted to 4s2p1d pattern {5111/31/1}
 Group   3 Type H   : 4s contracted to 2s pattern {31}

Atom   0O    basis set group =>   1
Atom   1O    basis set group =>   1
Atom   2O    basis set group =>   1
Atom   3C    basis set group =>   2
Atom   4C    basis set group =>   2
Atom   5H    basis set group =>   3
Atom   6H    basis set group =>   3
Atom   7H    basis set group =>   3
Atom   8H    basis set group =>   3
---------------------------------
AUXILIARY/J BASIS SET INFORMATION
---------------------------------
There are 3 groups of distinct atoms

 Group   1 Type O   : 12s5p4d2f1g contracted to 6s4p3d1f1g pattern {711111/2111/211/2/1}
 Group   2 Type C   : 12s5p4d2f1g contracted to 6s4p3d1f1g pattern {711111/2111/211/2/1}
 Group   3 Type H   : 5s2p1d contracted to 3s1p1d pattern {311/2/1}

Atom   0O    basis set group =>   1
Atom   1O    basis set group =>   1
Atom   2O    basis set group =>   1
Atom   3C    basis set group =>   2
Atom   4C    basis set group =>   2
Atom   5H    basis set group =>   3
Atom   6H    basis set group =>   3
Atom   7H    basis set group =>   3
Atom   8H    basis set group =>   3


           ************************************************************
           *        Program running with 4 parallel MPI-processes     *
           *              working on a common directory               *
           ************************************************************
------------------------------------------------------------------------------
                           ORCA GTO INTEGRAL CALCULATION
                           -- RI-GTO INTEGRALS CHOSEN --
------------------------------------------------------------------------------
------------------------------------------------------------------------------
                   ___                                                        
                  /   \      - P O W E R E D   B Y -                         
                 /     \                                                     
                 |  |  |   _    _      __       _____    __    __             
                 |  |  |  | |  | |    /  \     |  _  \  |  |  /  |          
                  \  \/   | |  | |   /    \    | | | |  |  | /  /          
                 / \  \   | |__| |  /  /\  \   | |_| |  |  |/  /          
                |  |  |   |  __  | /  /__\  \  |    /   |      \           
                |  |  |   | |  | | |   __   |  |    \   |  |\   \          
                \     /   | |  | | |  |  |  |  | |\  \  |  | \   \       
                 \___/    |_|  |_| |__|  |__|  |_| \__\ |__|  \__/        
                                                                              
                      - O R C A' S   B I G   F R I E N D -                    
                                      &                                       
                       - I N T E G R A L  F E E D E R -                       
                                                                              
 v1 FN, 2020, v2 2021                                                         
------------------------------------------------------------------------------


Reading SHARK input file pbeh-3c.SHARKINP.tmp ... ok
----------------------
SHARK INTEGRAL PACKAGE
----------------------

Number of atoms                             ...      9
Number of basis functions                   ...     83
Number of shells                            ...     43
Maximum angular momentum                    ...      2
Integral batch strategy                     ... SHARK/LIBINT Hybrid
RI-J (if used) integral strategy            ... SPLIT-RIJ (Revised 2003 algorithm where possible)
Printlevel                                  ...      1
Contraction scheme used                     ... SEGMENTED contraction
Coulomb Range Separation                    ... NOT USED
Exchange Range Separation                   ... NOT USED
Finite Nucleus Model                        ... NOT USED
Auxiliary Coulomb fitting basis             ... AVAILABLE
   # of basis functions in Aux-J            ...    289
   # of shells in Aux-J                     ...     95
   Maximum angular momentum in Aux-J        ...      4
Auxiliary J/K fitting basis                 ... NOT available
Auxiliary Correlation fitting basis         ... NOT available
Auxiliary 'external' fitting basis          ... NOT available
Integral threshold                          ...     2.500000e-11
Primitive cut-off                           ...     2.500000e-12
Primitive pair pre-selection threshold      ...     2.500000e-12

Calculating pre-screening integrals         ... done (  0.0 sec) Dimension = 43
Organizing shell pair data                  ... done (  0.1 sec)
Shell pair information
Total number of shell pairs                 ...       946
Shell pairs after pre-screening             ...       915
Total number of primitive shell pairs       ...      3398
Primitive shell pairs kept                  ...      2572
          la=0 lb=0:    375 shell pairs
          la=1 lb=0:    280 shell pairs
          la=1 lb=1:     55 shell pairs
          la=2 lb=0:    140 shell pairs
          la=2 lb=1:     50 shell pairs
          la=2 lb=2:     15 shell pairs

Calculating one electron integrals          ... done (  0.0 sec)
Calculating RI/J V-Matrix + Cholesky decomp.... done (  0.3 sec)
Calculating Nuclear repulsion               ... done (  0.0 sec) ENN=    195.694908108301 Eh

SHARK setup successfully completed in   1.3 seconds

Maximum memory used throughout the entire GTOINT-calculation: 9.6 MB


           ************************************************************
           *        Program running with 4 parallel MPI-processes     *
           *              working on a common directory               *
           ************************************************************
-------------------------------------------------------------------------------
                                 ORCA SCF
-------------------------------------------------------------------------------

------------
SCF SETTINGS
------------
Hamiltonian:
 Density Functional     Method          .... DFT(GTOs)
 Exchange Functional    Exchange        .... PBE
   PBE kappa parameter   XKappa         ....  1.024500
   PBE mue parameter    XMuePBE         ....  0.123457
 Correlation Functional Correlation     .... PBE
   PBE beta parameter  CBetaPBE         ....  0.030000
 LDA part of GGA corr.  LDAOpt          .... PW91-LDA
 Gradients option       PostSCFGGA      .... off
 Hybrid DFT is turned on
   Fraction HF Exchange ScalHFX         ....  0.420000
   Scaling of DF-GGA-X  ScalDFX         ....  0.580000
   Scaling of DF-GGA-C  ScalDFC         ....  1.000000
   Scaling of DF-LDA-C  ScalLDAC        ....  1.000000
   Perturbative correction              ....  0.000000
   Density functional embedding theory  .... OFF
 RI-approximation to the Coulomb term is turned on
   Number of AuxJ basis functions       .... 289
   RIJ-ON(X) (HFX calculated with O(N)) .... on
   Number of AuxJ basis functions       .... 289
   RIJ-COSX (HFX calculated with COS-X)).... on


General Settings:
 Integral files         IntName         .... pbeh-3c
 Hartree-Fock type      HFTyp           .... RHF
 Total Charge           Charge          ....    0
 Multiplicity           Mult            ....    1
 Number of Electrons    NEL             ....   40
 Basis Dimension        Dim             ....   83
 Nuclear Repulsion      ENuc            ....    195.6949081083 Eh

Convergence Acceleration:
 DIIS                   CNVDIIS         .... on
   Start iteration      DIISMaxIt       ....    12
   Startup error        DIISStart       ....  0.200000
   # of expansion vecs  DIISMaxEq       ....     5
   Bias factor          DIISBfac        ....   1.050
   Max. coefficient     DIISMaxC        ....  10.000
 Trust-Rad. Augm. Hess. CNVTRAH         .... auto
   Auto Start mean grad. ratio tolernc. ....  1.125000
   Auto Start start iteration           ....    20
   Auto Start num. interpolation iter.  ....    10
   Max. Number of Micro iterations      ....    16
   Max. Number of Macro iterations      .... Maxiter - #DIIS iter
   Number of Davidson start vectors     ....     2
   Converg. threshold I  (grad. norm)   ....   1.000e-05
   Converg. threshold II (energy diff.) ....   1.000e-08
   Grad. Scal. Fac. for Micro threshold ....   0.100
   Minimum threshold for Micro iter.    ....   0.010
   NR start threshold (gradient norm)   ....   0.001
   Initial trust radius                 ....   0.400
   Minimum AH scaling param. (alpha)    ....   1.000
   Maximum AH scaling param. (alpha)    .... 1000.000
   Orbital update algorithm             .... Taylor
   White noise on init. David. guess    .... on
   Maximum white noise                  ....   0.010
   Quad. conv. algorithm                .... NR
   COSX micro iterations for RIJONX calc.... off
 SOSCF                  CNVSOSCF        .... on
   Start iteration      SOSCFMaxIt      ....   150
   Startup grad/error   SOSCFStart      ....  0.003300
 Level Shifting         CNVShift        .... on
   Level shift para.    LevelShift      ....    0.2500
   Turn off err/grad.   ShiftErr        ....    0.0010
 Zerner damping         CNVZerner       .... off
 Static damping         CNVDamp         .... on
   Fraction old density DampFac         ....    0.7000
   Max. Damping (<1)    DampMax         ....    0.9800
   Min. Damping (>=0)   DampMin         ....    0.0000
   Turn off err/grad.   DampErr         ....    0.1000
 Fernandez-Rico         CNVRico         .... off

SCF Procedure:
 Maximum # iterations   MaxIter         ....   125
 SCF integral mode      SCFMode         .... Direct
   Integral package                     .... SHARK and LIBINT hybrid scheme
 Reset frequency        DirectResetFreq ....    20
 Integral Threshold     Thresh          ....  2.500e-11 Eh
 Primitive CutOff       TCut            ....  2.500e-12 Eh

Convergence Tolerance:
 Convergence Check Mode ConvCheckMode   .... Total+1el-Energy
 Convergence forced     ConvForced      .... 0
 Energy Change          TolE            ....  1.000e-08 Eh
 1-El. energy change                    ....  1.000e-05 Eh
 Orbital Gradient       TolG            ....  1.000e-05
 Orbital Rotation angle TolX            ....  1.000e-05
 DIIS Error             TolErr          ....  5.000e-07


Diagonalization of the overlap matrix:
Smallest eigenvalue                        ... 7.672e-03
Time for diagonalization                   ...    0.001 sec
Threshold for overlap eigenvalues          ... 1.000e-08
Number of eigenvalues below threshold      ... 0
Time for construction of square roots      ...    0.015 sec
Total time needed                          ...    0.017 sec

--------------------------------
INITIAL GUESS: MINIMAL BASIS EHT
--------------------------------
The minimal basis has 29 functions
EHT matrix was diagonalized
Basis set overlap was calculated now projecting the orbitals
Using GuessMode=FMatrix for the initial guess
C*T matrix was formed
Effective Fockian was calculated
Effective Fockian was diagonalized
Initial density was built
                      ------------------
                      INITIAL GUESS DONE
                      ------------------
-------------------
DFT GRID GENERATION
-------------------

General Integration Accuracy     IntAcc      ... 4.959
Radial Grid Type                 RadialGrid  ... OptM3 with GC (2021)
Angular Grid (max. ang.)         AngularGrid ... 6 (Lebedev-590)
Angular grid pruning method      GridPruning ... 4 (adaptive)
Weight generation scheme         WeightScheme... Becke
Basis function cutoff            BFCut       ... 1.0000e-11
Integration weight cutoff        WCut        ... 1.0000e-14
Angular grids for H and He will be reduced by one unit
Partially contracted basis set               ... off
Rotationally invariant grid construction     ... off

Total number of grid points                  ...   107394
Total number of batches                      ...     1683
Average number of points per batch           ...       63
Average number of grid points per atom       ...    11933
Time for grid setup =    2.625 sec

--------------------
COSX GRID GENERATION
--------------------

GRIDX 1
-------
General Integration Accuracy     IntAcc      ... 4.020
Radial Grid Type                 RadialGrid  ... OptM3 with GC (2021)
Angular Grid (max. ang.)         AngularGrid ... 2 (Lebedev-110)
Angular grid pruning method      GridPruning ... 4 (adaptive)
Weight generation scheme         WeightScheme... Becke
Basis function cutoff            BFCut       ... 1.0000e-11
Integration weight cutoff        WCut        ... 1.0000e-14
Angular grids for H and He will be reduced by one unit
Partially contracted basis set               ... on
Rotationally invariant grid construction     ... off

Total number of grid points                  ...    12290
Total number of batches                      ...      197
Average number of points per batch           ...       62
Average number of grid points per atom       ...     1366
UseSFitting                                  ... on

GRIDX 2
-------
General Integration Accuracy     IntAcc      ... 4.338
Radial Grid Type                 RadialGrid  ... OptM3 with GC (2021)
Angular Grid (max. ang.)         AngularGrid ... 3 (Lebedev-194)
Angular grid pruning method      GridPruning ... 4 (adaptive)
Weight generation scheme         WeightScheme... Becke
Basis function cutoff            BFCut       ... 1.0000e-11
Integration weight cutoff        WCut        ... 1.0000e-14
Angular grids for H and He will be reduced by one unit
Partially contracted basis set               ... on
Rotationally invariant grid construction     ... off

Total number of grid points                  ...    27084
Total number of batches                      ...      428
Average number of points per batch           ...       63
Average number of grid points per atom       ...     3009
UseSFitting                                  ... on

GRIDX 3
-------
General Integration Accuracy     IntAcc      ... 4.871
Radial Grid Type                 RadialGrid  ... OptM3 with GC (2021)
Angular Grid (max. ang.)         AngularGrid ... 4 (Lebedev-302)
Angular grid pruning method      GridPruning ... 4 (adaptive)
Weight generation scheme         WeightScheme... Becke
Basis function cutoff            BFCut       ... 1.0000e-11
Integration weight cutoff        WCut        ... 1.0000e-14
Angular grids for H and He will be reduced by one unit
Partially contracted basis set               ... on
Rotationally invariant grid construction     ... off

Total number of grid points                  ...    51358
Total number of batches                      ...      807
Average number of points per batch           ...       63
Average number of grid points per atom       ...     5706
UseSFitting                                  ... on

Time for X-Grid setup             =    1.843 sec

--------------
SCF ITERATIONS
--------------
ITER       Energy         Delta-E        Max-DP      RMS-DP      [F,P]     Damp
               ***  Starting incremental Fock matrix formation  ***
  0   -302.8270498138   0.000000000000 0.11035082  0.00597361  0.3618845 0.7000
  1   -303.0472966428  -0.220246829033 0.06120339  0.00379877  0.2628236 0.7000
                               ***Turning on DIIS***
  2   -303.1757646787  -0.128468035833 0.03660997  0.00231034  0.1892048 0.7000
  3   -303.2630266219  -0.087261943251 0.02331226  0.00153120  0.1346310 0.7000
  4   -303.3248359119  -0.061809290021 0.05454155  0.00381589  0.0935721 0.0000
  5   -303.4736024975  -0.148766585529 0.00790311  0.00041210  0.0072665 0.0000
  6   -303.4739342691  -0.000331771656 0.00244971  0.00014721  0.0036097 0.0000
                      *** Initiating the SOSCF procedure ***
                           *** Shutting down DIIS ***
                      *** Re-Reading the Fockian *** 
                      *** Removing any level shift *** 
ITER      Energy       Delta-E        Grad      Rot      Max-DP    RMS-DP
  7   -303.47402143  -0.0000871639  0.001148  0.001148  0.002633  0.000127
               *** Restarting incremental Fock matrix formation ***
  8   -303.47404437  -0.0000229340  0.000325  0.000441  0.001065  0.000040
  9   -303.47404307   0.0000013018  0.000481  0.000291  0.000655  0.000023
 10   -303.47404592  -0.0000028526  0.000027  0.000062  0.000057  0.000004
 11   -303.47404593  -0.0000000114  0.000016  0.000030  0.000031  0.000002
 12   -303.47404594  -0.0000000080  0.000003  0.000003  0.000008  0.000000
                  ***Gradient check signals convergence***
              ***Rediagonalizing the Fockian in SOSCF/NRSCF***

               *****************************************************
               *                     SUCCESS                       *
               *           SCF CONVERGED AFTER  13 CYCLES          *
               *****************************************************

Old exchange energy                            =    -15.262117906 Eh
New exchange energy                            =    -15.262119905 Eh
Exchange energy change after final integration =     -0.000001999 Eh
Total energy after final integration           =   -303.474047937 Eh
Final COS-X integration done in                =     1.390 sec

----------------
TOTAL SCF ENERGY
----------------

Total Energy       :         -303.47404794 Eh           -8257.94867 eV

Components:
Nuclear Repulsion  :          195.69490811 Eh            5325.12917 eV
Electronic Energy  :         -499.16895605 Eh          -13583.07784 eV
One Electron Energy:         -803.56031393 Eh          -21865.98779 eV
Two Electron Energy:          304.39135789 Eh            8282.90994 eV
Max COSX asymmetry :            0.00000106 Eh               0.00003 eV

Virial components:
Potential Energy   :         -605.15171340 Eh          -16467.01529 eV
Kinetic Energy     :          301.67766546 Eh            8209.06662 eV
Virial Ratio       :            2.00595464


DFT components:
N(Alpha)           :       20.000000410296 electrons
N(Beta)            :       20.000000410296 electrons
N(Total)           :       40.000000820591 electrons
E(X)               :      -20.357929289529 Eh       
E(C)               :       -1.795446073172 Eh       
E(XC)              :      -22.153375362701 Eh       
DFET-embed. en.    :        0.000000000000 Eh       

---------------
SCF CONVERGENCE
---------------

  Last Energy change         ...   -1.0522e-09  Tolerance :   1.0000e-08
  Last MAX-Density change    ...    1.2212e-15  Tolerance :   1.0000e-07
  Last RMS-Density change    ...    4.4231e-17  Tolerance :   5.0000e-09
  Last Orbital Gradient      ...    1.6630e-06  Tolerance :   1.0000e-05
  Last Orbital Rotation      ...    9.9067e-07  Tolerance :   1.0000e-05

             **** THE GBW FILE WAS UPDATED (pbeh-3c.gbw) ****
             **** DENSITY pbeh-3c.scfp WAS UPDATED ****
             **** ENERGY FILE WAS UPDATED (pbeh-3c.en.tmp) ****
             **** THE GBW FILE WAS UPDATED (pbeh-3c.gbw) ****
             **** DENSITY pbeh-3c.scfp WAS UPDATED ****
----------------
ORBITAL ENERGIES
----------------

  NO   OCC          E(Eh)            E(eV) 
   0   2.0000     -19.613489      -533.7102 
   1   2.0000     -19.569156      -532.5038 
   2   2.0000     -19.569011      -532.4999 
   3   2.0000     -10.511379      -286.0292 
   4   2.0000     -10.511194      -286.0241 
   5   2.0000      -1.337329       -36.3906 
   6   2.0000      -1.143593       -31.1187 
   7   2.0000      -0.988150       -26.8889 
   8   2.0000      -0.798780       -21.7359 
   9   2.0000      -0.740161       -20.1408 
  10   2.0000      -0.607180       -16.5222 
  11   2.0000      -0.600498       -16.3404 
  12   2.0000      -0.574252       -15.6262 
  13   2.0000      -0.538075       -14.6418 
  14   2.0000      -0.494373       -13.4526 
  15   2.0000      -0.443989       -12.0816 
  16   2.0000      -0.442268       -12.0347 
  17   2.0000      -0.419017       -11.4020 
  18   2.0000      -0.358073        -9.7437 
  19   2.0000      -0.315585        -8.5875 
  20   0.0000       0.090312         2.4575 
  21   0.0000       0.100454         2.7335 
  22   0.0000       0.109177         2.9709 
  23   0.0000       0.160421         4.3653 
  24   0.0000       0.170546         4.6408 
  25   0.0000       0.192060         5.2262 
  26   0.0000       0.252324         6.8661 
  27   0.0000       0.271228         7.3805 
  28   0.0000       0.293887         7.9971 
  29   0.0000       0.484413        13.1815 
  30   0.0000       0.512916        13.9572 
  31   0.0000       0.539628        14.6840 
  32   0.0000       0.556840        15.1524 
  33   0.0000       0.585672        15.9369 
  34   0.0000       0.711118        19.3505 
  35   0.0000       0.832506        22.6536 
  36   0.0000       0.868049        23.6208 
  37   0.0000       0.918998        25.0072 
  38   0.0000       0.928064        25.2539 
  39   0.0000       0.960386        26.1334 
  40   0.0000       0.974219        26.5098 
  41   0.0000       0.983902        26.7733 
  42   0.0000       1.011231        27.5170 
  43   0.0000       1.013623        27.5821 
  44   0.0000       1.118842        30.4453 
  45   0.0000       1.150277        31.3006 
  46   0.0000       1.158114        31.5139 
  47   0.0000       1.211487        32.9662 
  48   0.0000       1.241409        33.7805 
  49   0.0000       1.330799        36.2129 
  50   0.0000       1.407856        38.3097 
  51   0.0000       1.416546        38.5462 
  52   0.0000       1.515207        41.2309 
  53   0.0000       1.527830        41.5744 
  54   0.0000       1.797305        48.9072 
  55   0.0000       1.817457        49.4555 
  56   0.0000       1.829751        49.7901 
  57   0.0000       1.870328        50.8942 
  58   0.0000       1.915766        52.1307 
  59   0.0000       1.946303        52.9616 
  60   0.0000       1.972585        53.6768 
  61   0.0000       2.051589        55.8266 
  62   0.0000       2.080502        56.6133 
  63   0.0000       2.177617        59.2560 
  64   0.0000       2.194184        59.7068 
  65   0.0000       2.233879        60.7869 
  66   0.0000       2.294493        62.4363 
  67   0.0000       2.375733        64.6470 
  68   0.0000       2.409883        65.5762 
  69   0.0000       2.508669        68.2644 
  70   0.0000       2.556712        69.5717 
  71   0.0000       2.578277        70.1585 
  72   0.0000       2.737809        74.4996 
  73   0.0000       2.779016        75.6209 
  74   0.0000       2.812234        76.5248 
  75   0.0000       2.870813        78.1188 
  76   0.0000       3.029879        82.4472 
  77   0.0000       3.185783        86.6896 
  78   0.0000      13.659240       371.6868 
  79   0.0000      13.938189       379.2774 
  80   0.0000      25.324537       689.1157 
  81   0.0000      25.570614       695.8118 
  82   0.0000      25.676585       698.6954 

                    ********************************
                    * MULLIKEN POPULATION ANALYSIS *
                    ********************************

-----------------------
MULLIKEN ATOMIC CHARGES
-----------------------
   0 O :   -0.052601
   1 O :   -0.241251
   2 O :   -0.241251
   3 C :   -0.185972
   4 C :   -0.185972
   5 H :    0.219643
   6 H :    0.219643
   7 H :    0.233880
   8 H :    0.233880
Sum of atomic charges:   -0.0000000

--------------------------------
MULLIKEN REDUCED ORBITAL CHARGES
--------------------------------
  0 O s       :     3.867167  s :     3.867167
      pz      :     0.885595  p :     4.123599
      px      :     1.541031
      py      :     1.696973
      dz2     :     0.013711  d :     0.061835
      dxz     :     0.019539
      dyz     :     0.014269
      dx2y2   :     0.005917
      dxy     :     0.008399
  1 O s       :     3.835188  s :     3.835188
      pz      :     1.371219  p :     4.359621
      px      :     1.716743
      py      :     1.271660
      dz2     :     0.008736  d :     0.046442
      dxz     :     0.010087
      dyz     :     0.011552
      dx2y2   :     0.010359
      dxy     :     0.005708
  2 O s       :     3.835188  s :     3.835188
      pz      :     1.371219  p :     4.359621
      px      :     1.716743
      py      :     1.271660
      dz2     :     0.008736  d :     0.046442
      dxz     :     0.010087
      dyz     :     0.011552
      dx2y2   :     0.010359
      dxy     :     0.005708
  3 C s       :     3.275699  s :     3.275699
      pz      :     0.957159  p :     2.845854
      px      :     1.149826
      py      :     0.738868
      dz2     :     0.013627  d :     0.064420
      dxz     :     0.008298
      dyz     :     0.010239
      dx2y2   :     0.015039
      dxy     :     0.017217
  4 C s       :     3.275699  s :     3.275699
      pz      :     0.957159  p :     2.845854
      px      :     1.149826
      py      :     0.738868
      dz2     :     0.013627  d :     0.064420
      dxz     :     0.008298
      dyz     :     0.010239
      dx2y2   :     0.015039
      dxy     :     0.017217
  5 H s       :     0.780357  s :     0.780357
  6 H s       :     0.780357  s :     0.780357
  7 H s       :     0.766120  s :     0.766120
  8 H s       :     0.766120  s :     0.766120


                     *******************************
                     * LOEWDIN POPULATION ANALYSIS *
                     *******************************

----------------------
LOEWDIN ATOMIC CHARGES
----------------------
   0 O :   -0.009147
   1 O :   -0.125692
   2 O :   -0.125692
   3 C :   -0.120819
   4 C :   -0.120819
   5 H :    0.117829
   6 H :    0.117829
   7 H :    0.133255
   8 H :    0.133255

-------------------------------
LOEWDIN REDUCED ORBITAL CHARGES
-------------------------------
  0 O s       :     3.594197  s :     3.594197
      pz      :     0.986209  p :     4.273593
      px      :     1.586658
      py      :     1.700726
      dz2     :     0.037974  d :     0.141357
      dxz     :     0.046207
      dyz     :     0.031735
      dx2y2   :     0.012955
      dxy     :     0.012486
  1 O s       :     3.539154  s :     3.539154
      pz      :     1.423414  p :     4.481993
      px      :     1.730859
      py      :     1.327720
      dz2     :     0.017815  d :     0.104545
      dxz     :     0.022008
      dyz     :     0.027353
      dx2y2   :     0.022760
      dxy     :     0.014609
  2 O s       :     3.539154  s :     3.539154
      pz      :     1.423414  p :     4.481993
      px      :     1.730859
      py      :     1.327720
      dz2     :     0.017815  d :     0.104545
      dxz     :     0.022008
      dyz     :     0.027353
      dx2y2   :     0.022760
      dxy     :     0.014609
  3 C s       :     2.936393  s :     2.936393
      pz      :     1.057387  p :     3.049563
      px      :     1.128812
      py      :     0.863364
      dz2     :     0.032106  d :     0.134863
      dxz     :     0.014922
      dyz     :     0.021899
      dx2y2   :     0.031631
      dxy     :     0.034307
  4 C s       :     2.936393  s :     2.936393
      pz      :     1.057387  p :     3.049563
      px      :     1.128812
      py      :     0.863364
      dz2     :     0.032106  d :     0.134863
      dxz     :     0.014922
      dyz     :     0.021899
      dx2y2   :     0.031631
      dxy     :     0.034307
  5 H s       :     0.882171  s :     0.882171
  6 H s       :     0.882171  s :     0.882171
  7 H s       :     0.866745  s :     0.866745
  8 H s       :     0.866745  s :     0.866745


                      *****************************
                      * MAYER POPULATION ANALYSIS *
                      *****************************

  NA   - Mulliken gross atomic population
  ZA   - Total nuclear charge
  QA   - Mulliken gross atomic charge
  VA   - Mayer's total valence
  BVA  - Mayer's bonded valence
  FA   - Mayer's free valence

  ATOM       NA         ZA         QA         VA         BVA        FA
  0 O      8.0526     8.0000    -0.0526     2.0015     2.0015     0.0000
  1 O      8.2413     8.0000    -0.2413     1.9923     1.9923    -0.0000
  2 O      8.2413     8.0000    -0.2413     1.9923     1.9923    -0.0000
  3 C      6.1860     6.0000    -0.1860     3.7104     3.7104    -0.0000
  4 C      6.1860     6.0000    -0.1860     3.7104     3.7104    -0.0000
  5 H      0.7804     1.0000     0.2196     0.9004     0.9004    -0.0000
  6 H      0.7804     1.0000     0.2196     0.9004     0.9004    -0.0000
  7 H      0.7661     1.0000     0.2339     0.9056     0.9056    -0.0000
  8 H      0.7661     1.0000     0.2339     0.9056     0.9056    -0.0000

  Mayer bond orders larger than 0.100000
B(  0-O ,  1-O ) :   0.9649 B(  0-O ,  2-O ) :   0.9649 B(  1-O ,  3-C ) :   0.9626 
B(  2-O ,  4-C ) :   0.9626 B(  3-C ,  4-C ) :   0.9295 B(  3-C ,  5-H ) :   0.9036 
B(  3-C ,  7-H ) :   0.9108 B(  4-C ,  6-H ) :   0.9036 B(  4-C ,  8-H ) :   0.9108 


-------
TIMINGS
-------

Total SCF time: 0 days 0 hours 0 min 48 sec 

Total time                  ....      48.736 sec
Sum of individual times     ....      45.060 sec  ( 92.5%)

Fock matrix formation       ....      37.273 sec  ( 76.5%)
  Split-RI-J                ....       4.735 sec  ( 12.7% of F)
  Chain of spheres X        ....      12.066 sec  ( 32.4% of F)
  XC integration            ....       9.918 sec  ( 26.6% of F)
    Basis function eval.    ....       1.708 sec  ( 17.2% of XC)
    Density eval.           ....       1.057 sec  ( 10.7% of XC)
    XC-Functional eval.     ....       0.950 sec  (  9.6% of XC)
    XC-Potential eval.      ....       0.679 sec  (  6.8% of XC)
Diagonalization             ....       0.652 sec  (  1.3%)
Density matrix formation    ....       0.225 sec  (  0.5%)
Population analysis         ....       0.083 sec  (  0.2%)
Initial guess               ....       0.224 sec  (  0.5%)
Orbital Transformation      ....       0.000 sec  (  0.0%)
Orbital Orthonormalization  ....       0.000 sec  (  0.0%)
DIIS solution               ....       1.694 sec  (  3.5%)
SOSCF solution              ....       0.442 sec  (  0.9%)
Grid generation             ....       4.468 sec  (  9.2%)

Maximum memory used throughout the entire SCF-calculation: 48.3 MB


-------------------------------------------------------------------------------
                          DFT DISPERSION CORRECTION                            
                                                                               
                              DFTD3 V3.1  Rev 1                                
                          USING Becke-Johnson damping                          
-------------------------------------------------------------------------------
The PBEh-3c composite method is recognized
Using three-body term ABC
Active option DFTDOPT                   ...         4   

molecular C6(AA) [au] = 628.907064 


            DFT-D V3
 parameters
 s6 scaling factor         :     1.0000 
 a1 scaling factor         :     0.4860 
 s8 scaling factor         :     0.0000 
 a2 scaling factor         :     4.5000 
 Damping factor alpha9(ATM):    16.0000 
 ad hoc parameters k1-k3   :    16.0000     1.3333    -4.0000 

 Edisp/kcal,au: -1.823609112741  -0.002906105794 
 E6   /kcal   :  -1.826529912 
 E8   /kcal   :  -0.000000000 
 E6(ABC)      :   0.002920799 
 % E8         :   0.000000000 
 % E6(ABC)    :  -0.160165849 

-------------------------   ----------------
Dispersion correction           -0.002906106
-------------------------   ----------------

------------------   -----------------
gCP correction             0.030299987
------------------   -----------------

-------------------------   --------------------
FINAL SINGLE POINT ENERGY      -303.446654055840
-------------------------   --------------------


                            ***************************************
                            *     ORCA property calculations      *
                            ***************************************

                                    ---------------------
                                    Active property flags
                                    ---------------------
   (+) Dipole Moment


------------------------------------------------------------------------------
                       ORCA ELECTRIC PROPERTIES CALCULATION
------------------------------------------------------------------------------

Dipole Moment Calculation                       ... on
Quadrupole Moment Calculation                   ... off
Polarizability Calculation                      ... off
GBWName                                         ... pbeh-3c.gbw
Electron density                                ... pbeh-3c.scfp
The origin for moment calculation is the CENTER OF MASS  = (-0.131576, -1.222132  0.000000)

-------------
DIPOLE MOMENT
-------------
                                X             Y             Z
Electronic contribution:     -0.43271      -3.92850      -0.00000
Nuclear contribution   :      0.55324       5.31954       0.00000
                        -----------------------------------------
Total Dipole Moment    :      0.12054       1.39104      -0.00000
                        -----------------------------------------
Magnitude (a.u.)       :      1.39625
Magnitude (Debye)      :      3.54899



--------------------
Rotational spectrum 
--------------------
 
Rotational constants in cm-1:     0.279406     0.261326     0.150782 
Rotational constants in MHz :  8376.366705  7834.360412  4520.332259 

 Dipole components along the rotational axes: 
x,y,z [a.u.] :    -0.000000    -1.382103     0.198258 
x,y,z [Debye]:    -0.000000    -3.513026     0.503932 

 

Timings for individual modules:

Sum of individual times         ...       51.212 sec (=   0.854 min)
GTO integral calculation        ...        2.030 sec (=   0.034 min)   4.0 %
SCF iterations                  ...       49.182 sec (=   0.820 min)  96.0 %
                             ****ORCA TERMINATED NORMALLY****
TOTAL RUN TIME: 0 days 0 hours 0 minutes 52 seconds 417 msec
