
                                 *****************
                                 * O   R   C   A *
                                 *****************

                                            #,                                       
                                            ###                                      
                                            ####                                     
                                            #####                                    
                                            ######                                   
                                           ########,                                 
                                     ,,################,,,,,                         
                               ,,#################################,,                 
                          ,,##########################################,,             
                       ,#########################################, ''#####,          
                    ,#############################################,,   '####,        
                  ,##################################################,,,,####,       
                ,###########''''           ''''###############################       
              ,#####''   ,,,,##########,,,,          '''####'''          '####       
            ,##' ,,,,###########################,,,                        '##       
           ' ,,###''''                  '''############,,,                           
         ,,##''                                '''############,,,,        ,,,,,,###''
      ,#''                                            '''#######################'''  
     '                                                          ''''####''''         
             ,#######,   #######,   ,#######,      ##                                
            ,#'     '#,  ##    ##  ,#'     '#,    #''#        ######   ,####,        
            ##       ##  ##   ,#'  ##            #'  '#       #        #'  '#        
            ##       ##  #######   ##           ,######,      #####,   #    #        
            '#,     ,#'  ##    ##  '#,     ,#' ,#      #,         ##   #,  ,#        
             '#######'   ##     ##  '#######'  #'      '#     #####' # '####'        



                  #######################################################
                  #                        -***-                        #
                  #          Department of theory and spectroscopy      #
                  #    Directorship and core code : Frank Neese         #
                  #        Max Planck Institute fuer Kohlenforschung    #
                  #                Kaiser Wilhelm Platz 1               #
                  #                 D-45470 Muelheim/Ruhr               #
                  #                      Germany                        #
                  #                                                     #
                  #                  All rights reserved                #
                  #                        -***-                        #
                  #######################################################


                         Program Version 5.0.3 -  RELEASE  -


 With contributions from (in alphabetic order):
   Daniel Aravena         : Magnetic Suceptibility
   Michael Atanasov       : Ab Initio Ligand Field Theory (pilot matlab implementation)
   Alexander A. Auer      : GIAO ZORA, VPT2 properties, NMR spectrum
   Ute Becker             : Parallelization
   Giovanni Bistoni       : ED, misc. LED, open-shell LED, HFLD
   Martin Brehm           : Molecular dynamics
   Dmytro Bykov           : SCF Hessian
   Vijay G. Chilkuri      : MRCI spin determinant printing, contributions to CSF-ICE
   Dipayan Datta          : RHF DLPNO-CCSD density
   Achintya Kumar Dutta   : EOM-CC, STEOM-CC
   Dmitry Ganyushin       : Spin-Orbit,Spin-Spin,Magnetic field MRCI
   Miquel Garcia          : C-PCM and meta-GGA Hessian, CC/C-PCM, Gaussian charge scheme
   Yang Guo               : DLPNO-NEVPT2, F12-NEVPT2, CIM, IAO-localization
   Andreas Hansen         : Spin unrestricted coupled pair/coupled cluster methods
   Benjamin Helmich-Paris : MC-RPA, TRAH-SCF, COSX integrals
   Lee Huntington         : MR-EOM, pCC
   Robert Izsak           : Overlap fitted RIJCOSX, COSX-SCS-MP3, EOM
   Marcus Kettner         : VPT2
   Christian Kollmar      : KDIIS, OOCD, Brueckner-CCSD(T), CCSD density, CASPT2, CASPT2-K
   Simone Kossmann        : Meta GGA functionals, TD-DFT gradient, OOMP2, MP2 Hessian
   Martin Krupicka        : Initial AUTO-CI
   Lucas Lang             : DCDCAS
   Marvin Lechner         : AUTO-CI (C++ implementation), FIC-MRCC
   Dagmar Lenk            : GEPOL surface, SMD
   Dimitrios Liakos       : Extrapolation schemes; Compound Job, initial MDCI parallelization
   Dimitrios Manganas     : Further ROCIS development; embedding schemes
   Dimitrios Pantazis     : SARC Basis sets
   Anastasios Papadopoulos: AUTO-CI, single reference methods and gradients
   Taras Petrenko         : DFT Hessian,TD-DFT gradient, ASA, ECA, R-Raman, ABS, FL, XAS/XES, NRVS
   Peter Pinski           : DLPNO-MP2, DLPNO-MP2 Gradient
   Christoph Reimann      : Effective Core Potentials
   Marius Retegan         : Local ZFS, SOC
   Christoph Riplinger    : Optimizer, TS searches, QM/MM, DLPNO-CCSD(T), (RO)-DLPNO pert. Triples
   Tobias Risthaus        : Range-separated hybrids, TD-DFT gradient, RPA, STAB
   Michael Roemelt        : Original ROCIS implementation
   Masaaki Saitow         : Open-shell DLPNO-CCSD energy and density
   Barbara Sandhoefer     : DKH picture change effects
   Avijit Sen             : IP-ROCIS
   Kantharuban Sivalingam : CASSCF convergence, NEVPT2, FIC-MRCI
   Bernardo de Souza      : ESD, SOC TD-DFT
   Georgi Stoychev        : AutoAux, RI-MP2 NMR, DLPNO-MP2 response
   Willem Van den Heuvel  : Paramagnetic NMR
   Boris Wezisla          : Elementary symmetry handling
   Frank Wennmohs         : Technical directorship


 We gratefully acknowledge several colleagues who have allowed us to
 interface, adapt or use parts of their codes:
   Stefan Grimme, W. Hujo, H. Kruse, P. Pracht,  : VdW corrections, initial TS optimization,
                  C. Bannwarth, S. Ehlert          DFT functionals, gCP, sTDA/sTD-DF
   Ed Valeev, F. Pavosevic, A. Kumar             : LibInt (2-el integral package), F12 methods
   Garnet Chan, S. Sharma, J. Yang, R. Olivares  : DMRG
   Ulf Ekstrom                                   : XCFun DFT Library
   Mihaly Kallay                                 : mrcc  (arbitrary order and MRCC methods)
   Jiri Pittner, Ondrej Demel                    : Mk-CCSD
   Frank Weinhold                                : gennbo (NPA and NBO analysis)
   Christopher J. Cramer and Donald G. Truhlar   : smd solvation model
   Lars Goerigk                                  : TD-DFT with DH, B97 family of functionals
   V. Asgeirsson, H. Jonsson                     : NEB implementation
   FAccTs GmbH                                   : IRC, NEB, NEB-TS, DLPNO-Multilevel, CI-OPT
                                                   MM, QMMM, 2- and 3-layer-ONIOM, Crystal-QMMM,
                                                   LR-CPCM, SF, NACMEs, symmetry and pop. for TD-DFT,
                                                   nearIR, NL-DFT gradient (VV10), updates on ESD,
                                                   ML-optimized integration grids
   S Lehtola, MJT Oliveira, MAL Marques          : LibXC Library
   Liviu Ungur et al                             : ANISO software


 Your calculation uses the libint2 library for the computation of 2-el integrals
 For citations please refer to: http://libint.valeyev.net

 Your ORCA version has been built with support for libXC version: 5.1.0
 For citations please refer to: https://tddft.org/programs/libxc/

 This ORCA versions uses:
   CBLAS   interface :  Fast vector & matrix operations
   LAPACKE interface :  Fast linear algebra routines
   SCALAPACK package :  Parallel linear algebra routines
   Shared memory     :  Shared parallel matrices
   BLAS/LAPACK       :  OpenBLAS 0.3.15  USE64BITINT DYNAMIC_ARCH NO_AFFINITY Haswell SINGLE_THREADED
        Core in use  :  Haswell
   Copyright (c) 2011-2014, The OpenBLAS Project




***************************************
The coordinates will be read from file: me2s-cbh22.xyz
***************************************


Your calculation utilizes the geometrical counterpoise correction gCP
Please cite in your paper:
H.Kruse, S. Grimme J.Chem.Phys., 136, (2012), 154101 
   

Your calculation utilizes the atom-pairwise dispersion correction
with the Becke-Johnson damping scheme (D3BJ)
Cite in your paper:
S.Grimme, S.Ehrlich, L.Goerigk, J Comput Chem, (2011), 32, 1456–1465 
S.Grimme, J.Antony, S.Ehrlich and H.Krieg, J.Chem.Phys., 132, (2010), 154104 
   

Your calculation employs the composite approach PBEh-3c.
Please cite in your paper:
S. Grimme, J. G. Brandenburg, C. Bannwarth, A. Hansen J.Chem.Phys., 143, (2015), 054107 
   

================================================================================

----- Orbital basis set information -----
Your calculation utilizes the basis: def2-mSVP

----- AuxJ basis set information -----
Your calculation utilizes the auxiliary basis: def2/J
   F. Weigend, Phys. Chem. Chem. Phys. 8, 1057 (2006).

================================================================================
                                        WARNINGS
                       Please study these warnings very carefully!
================================================================================


INFO   : the flag for use of the SHARK integral package has been found!

================================================================================
                                       INPUT FILE
================================================================================
NAME = pbeh-3c.inp
|  1> ! PBEh-3c def2/J TightSCF DefGrid3
|  2> 
|  3> %maxcore 60000
|  4> 
|  5> %pal
|  6> nprocs 4
|  7> end
|  8> 
|  9> *xyzfile 0 1 me2s-cbh22.xyz
| 10> 
| 11>                          ****END OF INPUT****
================================================================================

                       ****************************
                       * Single Point Calculation *
                       ****************************

---------------------------------
CARTESIAN COORDINATES (ANGSTROEM)
---------------------------------
  C     -0.134674   -1.136336    0.000000
  S      0.621051    0.439663    0.000000
  C     -0.134674    1.353050    1.357432
  C     -0.134674    1.353050   -1.357432
  H     -1.215979    1.281310    1.263418
  H      0.203978    2.386991    1.320639
  H      0.199445    0.874962    2.274534
  H     -1.215979    1.281310   -1.263418
  H      0.199445    0.874962   -2.274534
  H      0.203978    2.386991   -1.320639
  B      0.854333   -2.267230    0.000000
  H      2.036686   -2.065061    0.000000
  H      0.446800   -3.389110    0.000000
  B     -1.630930   -1.234052    0.000000
  H     -2.347921   -0.266843    0.000000
  H     -2.140155   -2.312293    0.000000

----------------------------
CARTESIAN COORDINATES (A.U.)
----------------------------
  NO LB      ZA    FRAG     MASS         X           Y           Z
   0 C     6.0000    0    12.011   -0.254497   -2.147364    0.000000
   1 S    16.0000    0    32.060    1.173616    0.830843    0.000000
   2 C     6.0000    0    12.011   -0.254497    2.556894    2.565175
   3 C     6.0000    0    12.011   -0.254497    2.556894   -2.565175
   4 H     1.0000    0     1.008   -2.297867    2.421325    2.387514
   5 H     1.0000    0     1.008    0.385463    4.510759    2.495646
   6 H     1.0000    0     1.008    0.376896    1.653438    4.298246
   7 H     1.0000    0     1.008   -2.297867    2.421325   -2.387514
   8 H     1.0000    0     1.008    0.376896    1.653438   -4.298246
   9 H     1.0000    0     1.008    0.385463    4.510759   -2.495646
  10 B     5.0000    0    10.810    1.614455   -4.284443    0.000000
  11 H     1.0000    0     1.008    3.848779   -3.902400    0.000000
  12 H     1.0000    0     1.008    0.844330   -6.404489    0.000000
  13 B     5.0000    0    10.810   -3.082011   -2.332020    0.000000
  14 H     1.0000    0     1.008   -4.436927   -0.504260    0.000000
  15 H     1.0000    0     1.008   -4.044306   -4.369600    0.000000

--------------------------------
INTERNAL COORDINATES (ANGSTROEM)
--------------------------------
 C      0   0   0     0.000000000000     0.00000000     0.00000000
 S      1   0   0     1.747825165291     0.00000000     0.00000000
 C      2   1   0     1.802225642880   106.00237670     0.00000000
 C      2   1   3     1.802225642880   106.00237670   256.82456483
 H      3   2   1     1.087752520824   108.56130796   309.28955634
 H      3   2   1     1.088610438424   108.99311517   187.47367365
 H      3   2   1     1.086866844139   106.48165393    68.22571147
 H      4   2   1     1.087752520824   108.56130796    50.71044366
 H      4   2   1     1.086866844139   106.48165393   291.77428853
 H      4   2   1     1.088610438424   108.99311517   172.52632635
 B      1   2   3     1.502350046196   113.21044166   231.58771759
 H     11   1   2     1.199512768059   121.46776076     0.00000000
 H     11   1   2     1.193607053842   118.86514741   180.00000000
 B      1   2   3     1.499443274999   119.35521895    51.58771759
 H     14   1   2     1.203980484444   122.81298979     0.00000000
 H     14   1   2     1.192440118921   119.01664740   180.00000000

---------------------------
INTERNAL COORDINATES (A.U.)
---------------------------
 C      0   0   0     0.000000000000     0.00000000     0.00000000
 S      1   0   0     3.302910892377     0.00000000     0.00000000
 C      2   1   0     3.405712896573   106.00237670     0.00000000
 C      2   1   3     3.405712896573   106.00237670   256.82456483
 H      3   2   1     2.055554365841   108.56130796   309.28955634
 H      3   2   1     2.057175595149   108.99311517   187.47367365
 H      3   2   1     2.053880679462   106.48165393    68.22571147
 H      4   2   1     2.055554365841   108.56130796    50.71044366
 H      4   2   1     2.053880679462   106.48165393   291.77428853
 H      4   2   1     2.057175595149   108.99311517   172.52632635
 B      1   2   3     2.839030144594   113.21044166   231.58771759
 H     11   1   2     2.266750625773   121.46776076     0.00000000
 H     11   1   2     2.255590443279   118.86514741   180.00000000
 B      1   2   3     2.833537143099   119.35521895    51.58771759
 H     14   1   2     2.275193386185   122.81298979     0.00000000
 H     14   1   2     2.253385255862   119.01664740   180.00000000

---------------------
BASIS SET INFORMATION
---------------------
There are 4 groups of distinct atoms

 Group   1 Type C   : 8s4p1d contracted to 4s2p1d pattern {5111/31/1}
 Group   2 Type S   : 10s7p1d contracted to 4s3p1d pattern {5311/511/1}
 Group   3 Type H   : 4s contracted to 2s pattern {31}
 Group   4 Type B   : 8s4p1d contracted to 4s2p1d pattern {5111/31/1}

Atom   0C    basis set group =>   1
Atom   1S    basis set group =>   2
Atom   2C    basis set group =>   1
Atom   3C    basis set group =>   1
Atom   4H    basis set group =>   3
Atom   5H    basis set group =>   3
Atom   6H    basis set group =>   3
Atom   7H    basis set group =>   3
Atom   8H    basis set group =>   3
Atom   9H    basis set group =>   3
Atom  10B    basis set group =>   4
Atom  11H    basis set group =>   3
Atom  12H    basis set group =>   3
Atom  13B    basis set group =>   4
Atom  14H    basis set group =>   3
Atom  15H    basis set group =>   3
---------------------------------
AUXILIARY/J BASIS SET INFORMATION
---------------------------------
There are 4 groups of distinct atoms

 Group   1 Type C   : 12s5p4d2f1g contracted to 6s4p3d1f1g pattern {711111/2111/211/2/1}
 Group   2 Type S   : 14s5p5d2f1g contracted to 8s4p3d1f1g pattern {71111111/2111/311/2/1}
 Group   3 Type H   : 5s2p1d contracted to 3s1p1d pattern {311/2/1}
 Group   4 Type B   : 12s5p4d2f1g contracted to 6s4p3d1f1g pattern {711111/2111/211/2/1}

Atom   0C    basis set group =>   1
Atom   1S    basis set group =>   2
Atom   2C    basis set group =>   1
Atom   3C    basis set group =>   1
Atom   4H    basis set group =>   3
Atom   5H    basis set group =>   3
Atom   6H    basis set group =>   3
Atom   7H    basis set group =>   3
Atom   8H    basis set group =>   3
Atom   9H    basis set group =>   3
Atom  10B    basis set group =>   4
Atom  11H    basis set group =>   3
Atom  12H    basis set group =>   3
Atom  13B    basis set group =>   4
Atom  14H    basis set group =>   3
Atom  15H    basis set group =>   3


           ************************************************************
           *        Program running with 4 parallel MPI-processes     *
           *              working on a common directory               *
           ************************************************************
------------------------------------------------------------------------------
                           ORCA GTO INTEGRAL CALCULATION
                           -- RI-GTO INTEGRALS CHOSEN --
------------------------------------------------------------------------------
------------------------------------------------------------------------------
                   ___                                                        
                  /   \      - P O W E R E D   B Y -                         
                 /     \                                                     
                 |  |  |   _    _      __       _____    __    __             
                 |  |  |  | |  | |    /  \     |  _  \  |  |  /  |          
                  \  \/   | |  | |   /    \    | | | |  |  | /  /          
                 / \  \   | |__| |  /  /\  \   | |_| |  |  |/  /          
                |  |  |   |  __  | /  /__\  \  |    /   |      \           
                |  |  |   | |  | | |   __   |  |    \   |  |\   \          
                \     /   | |  | | |  |  |  |  | |\  \  |  | \   \       
                 \___/    |_|  |_| |__|  |__|  |_| \__\ |__|  \__/        
                                                                              
                      - O R C A' S   B I G   F R I E N D -                    
                                      &                                       
                       - I N T E G R A L  F E E D E R -                       
                                                                              
 v1 FN, 2020, v2 2021                                                         
------------------------------------------------------------------------------


Reading SHARK input file pbeh-3c.SHARKINP.tmp ... ok
----------------------
SHARK INTEGRAL PACKAGE
----------------------

Number of atoms                             ...     16
Number of basis functions                   ...    113
Number of shells                            ...     63
Maximum angular momentum                    ...      2
Integral batch strategy                     ... SHARK/LIBINT Hybrid
RI-J (if used) integral strategy            ... SPLIT-RIJ (Revised 2003 algorithm where possible)
Printlevel                                  ...      1
Contraction scheme used                     ... SEGMENTED contraction
Coulomb Range Separation                    ... NOT USED
Exchange Range Separation                   ... NOT USED
Finite Nucleus Model                        ... NOT USED
Auxiliary Coulomb fitting basis             ... AVAILABLE
   # of basis functions in Aux-J            ...    406
   # of shells in Aux-J                     ...    142
   Maximum angular momentum in Aux-J        ...      4
Auxiliary J/K fitting basis                 ... NOT available
Auxiliary Correlation fitting basis         ... NOT available
Auxiliary 'external' fitting basis          ... NOT available
Integral threshold                          ...     2.500000e-11
Primitive cut-off                           ...     2.500000e-12
Primitive pair pre-selection threshold      ...     2.500000e-12

Calculating pre-screening integrals         ... done (  0.0 sec) Dimension = 63
Organizing shell pair data                  ... done (  0.3 sec)
Shell pair information
Total number of shell pairs                 ...      2016
Shell pairs after pre-screening             ...      1892
Total number of primitive shell pairs       ...      7744
Primitive shell pairs kept                  ...      5188
          la=0 lb=0:    885 shell pairs
          la=1 lb=0:    565 shell pairs
          la=1 lb=1:     91 shell pairs
          la=2 lb=0:    252 shell pairs
          la=2 lb=1:     78 shell pairs
          la=2 lb=2:     21 shell pairs

Calculating one electron integrals          ... done (  0.0 sec)
Calculating RI/J V-Matrix + Cholesky decomp.... done (  0.7 sec)
Calculating Nuclear repulsion               ... done (  0.0 sec) ENN=    280.544488456774 Eh

SHARK setup successfully completed in   2.2 seconds

Maximum memory used throughout the entire GTOINT-calculation: 10.6 MB


           ************************************************************
           *        Program running with 4 parallel MPI-processes     *
           *              working on a common directory               *
           ************************************************************
-------------------------------------------------------------------------------
                                 ORCA SCF
-------------------------------------------------------------------------------

------------
SCF SETTINGS
------------
Hamiltonian:
 Density Functional     Method          .... DFT(GTOs)
 Exchange Functional    Exchange        .... PBE
   PBE kappa parameter   XKappa         ....  1.024500
   PBE mue parameter    XMuePBE         ....  0.123457
 Correlation Functional Correlation     .... PBE
   PBE beta parameter  CBetaPBE         ....  0.030000
 LDA part of GGA corr.  LDAOpt          .... PW91-LDA
 Gradients option       PostSCFGGA      .... off
 Hybrid DFT is turned on
   Fraction HF Exchange ScalHFX         ....  0.420000
   Scaling of DF-GGA-X  ScalDFX         ....  0.580000
   Scaling of DF-GGA-C  ScalDFC         ....  1.000000
   Scaling of DF-LDA-C  ScalLDAC        ....  1.000000
   Perturbative correction              ....  0.000000
   Density functional embedding theory  .... OFF
 RI-approximation to the Coulomb term is turned on
   Number of AuxJ basis functions       .... 406
   RIJ-ON(X) (HFX calculated with O(N)) .... on
   Number of AuxJ basis functions       .... 406
   RIJ-COSX (HFX calculated with COS-X)).... on


General Settings:
 Integral files         IntName         .... pbeh-3c
 Hartree-Fock type      HFTyp           .... RHF
 Total Charge           Charge          ....    0
 Multiplicity           Mult            ....    1
 Number of Electrons    NEL             ....   54
 Basis Dimension        Dim             ....  113
 Nuclear Repulsion      ENuc            ....    280.5444884568 Eh

Convergence Acceleration:
 DIIS                   CNVDIIS         .... on
   Start iteration      DIISMaxIt       ....    12
   Startup error        DIISStart       ....  0.200000
   # of expansion vecs  DIISMaxEq       ....     5
   Bias factor          DIISBfac        ....   1.050
   Max. coefficient     DIISMaxC        ....  10.000
 Trust-Rad. Augm. Hess. CNVTRAH         .... auto
   Auto Start mean grad. ratio tolernc. ....  1.125000
   Auto Start start iteration           ....    20
   Auto Start num. interpolation iter.  ....    10
   Max. Number of Micro iterations      ....    16
   Max. Number of Macro iterations      .... Maxiter - #DIIS iter
   Number of Davidson start vectors     ....     2
   Converg. threshold I  (grad. norm)   ....   1.000e-05
   Converg. threshold II (energy diff.) ....   1.000e-08
   Grad. Scal. Fac. for Micro threshold ....   0.100
   Minimum threshold for Micro iter.    ....   0.010
   NR start threshold (gradient norm)   ....   0.001
   Initial trust radius                 ....   0.400
   Minimum AH scaling param. (alpha)    ....   1.000
   Maximum AH scaling param. (alpha)    .... 1000.000
   Orbital update algorithm             .... Taylor
   White noise on init. David. guess    .... on
   Maximum white noise                  ....   0.010
   Quad. conv. algorithm                .... NR
   COSX micro iterations for RIJONX calc.... off
 SOSCF                  CNVSOSCF        .... on
   Start iteration      SOSCFMaxIt      ....   150
   Startup grad/error   SOSCFStart      ....  0.003300
 Level Shifting         CNVShift        .... on
   Level shift para.    LevelShift      ....    0.2500
   Turn off err/grad.   ShiftErr        ....    0.0010
 Zerner damping         CNVZerner       .... off
 Static damping         CNVDamp         .... on
   Fraction old density DampFac         ....    0.7000
   Max. Damping (<1)    DampMax         ....    0.9800
   Min. Damping (>=0)   DampMin         ....    0.0000
   Turn off err/grad.   DampErr         ....    0.1000
 Fernandez-Rico         CNVRico         .... off

SCF Procedure:
 Maximum # iterations   MaxIter         ....   125
 SCF integral mode      SCFMode         .... Direct
   Integral package                     .... SHARK and LIBINT hybrid scheme
 Reset frequency        DirectResetFreq ....    20
 Integral Threshold     Thresh          ....  2.500e-11 Eh
 Primitive CutOff       TCut            ....  2.500e-12 Eh

Convergence Tolerance:
 Convergence Check Mode ConvCheckMode   .... Total+1el-Energy
 Convergence forced     ConvForced      .... 0
 Energy Change          TolE            ....  1.000e-08 Eh
 1-El. energy change                    ....  1.000e-05 Eh
 Orbital Gradient       TolG            ....  1.000e-05
 Orbital Rotation angle TolX            ....  1.000e-05
 DIIS Error             TolErr          ....  5.000e-07


Diagonalization of the overlap matrix:
Smallest eigenvalue                        ... 5.157e-03
Time for diagonalization                   ...    0.004 sec
Threshold for overlap eigenvalues          ... 1.000e-08
Number of eigenvalues below threshold      ... 0
Time for construction of square roots      ...    0.118 sec
Total time needed                          ...    0.122 sec

--------------------------------
INITIAL GUESS: MINIMAL BASIS EHT
--------------------------------
The minimal basis has 44 functions
EHT matrix was diagonalized
Basis set overlap was calculated now projecting the orbitals
Using GuessMode=FMatrix for the initial guess
C*T matrix was formed
Effective Fockian was calculated
Effective Fockian was diagonalized
Initial density was built
                      ------------------
                      INITIAL GUESS DONE
                      ------------------
-------------------
DFT GRID GENERATION
-------------------

General Integration Accuracy     IntAcc      ... 4.959
Radial Grid Type                 RadialGrid  ... OptM3 with GC (2021)
Angular Grid (max. ang.)         AngularGrid ... 6 (Lebedev-590)
Angular grid pruning method      GridPruning ... 4 (adaptive)
Weight generation scheme         WeightScheme... Becke
Basis function cutoff            BFCut       ... 1.0000e-11
Integration weight cutoff        WCut        ... 1.0000e-14
Angular grids for H and He will be reduced by one unit
Partially contracted basis set               ... off
Rotationally invariant grid construction     ... off

Total number of grid points                  ...   174831
Total number of batches                      ...     2740
Average number of points per batch           ...       63
Average number of grid points per atom       ...    10927
Time for grid setup =    2.912 sec

--------------------
COSX GRID GENERATION
--------------------

GRIDX 1
-------
General Integration Accuracy     IntAcc      ... 4.020
Radial Grid Type                 RadialGrid  ... OptM3 with GC (2021)
Angular Grid (max. ang.)         AngularGrid ... 2 (Lebedev-110)
Angular grid pruning method      GridPruning ... 4 (adaptive)
Weight generation scheme         WeightScheme... Becke
Basis function cutoff            BFCut       ... 1.0000e-11
Integration weight cutoff        WCut        ... 1.0000e-14
Angular grids for H and He will be reduced by one unit
Partially contracted basis set               ... on
Rotationally invariant grid construction     ... off

Total number of grid points                  ...    18595
Total number of batches                      ...      300
Average number of points per batch           ...       61
Average number of grid points per atom       ...     1162
UseSFitting                                  ... on

GRIDX 2
-------
General Integration Accuracy     IntAcc      ... 4.338
Radial Grid Type                 RadialGrid  ... OptM3 with GC (2021)
Angular Grid (max. ang.)         AngularGrid ... 3 (Lebedev-194)
Angular grid pruning method      GridPruning ... 4 (adaptive)
Weight generation scheme         WeightScheme... Becke
Basis function cutoff            BFCut       ... 1.0000e-11
Integration weight cutoff        WCut        ... 1.0000e-14
Angular grids for H and He will be reduced by one unit
Partially contracted basis set               ... on
Rotationally invariant grid construction     ... off

Total number of grid points                  ...    41138
Total number of batches                      ...      652
Average number of points per batch           ...       63
Average number of grid points per atom       ...     2571
UseSFitting                                  ... on

GRIDX 3
-------
General Integration Accuracy     IntAcc      ... 4.871
Radial Grid Type                 RadialGrid  ... OptM3 with GC (2021)
Angular Grid (max. ang.)         AngularGrid ... 4 (Lebedev-302)
Angular grid pruning method      GridPruning ... 4 (adaptive)
Weight generation scheme         WeightScheme... Becke
Basis function cutoff            BFCut       ... 1.0000e-11
Integration weight cutoff        WCut        ... 1.0000e-14
Angular grids for H and He will be reduced by one unit
Partially contracted basis set               ... on
Rotationally invariant grid construction     ... off

Total number of grid points                  ...    80759
Total number of batches                      ...     1269
Average number of points per batch           ...       63
Average number of grid points per atom       ...     5047
UseSFitting                                  ... on

Time for X-Grid setup             =    4.089 sec

--------------
SCF ITERATIONS
--------------
ITER       Energy         Delta-E        Max-DP      RMS-DP      [F,P]     Damp
               ***  Starting incremental Fock matrix formation  ***
  0   -566.4903707925   0.000000000000 0.16974670  0.00445822  0.4124701 0.7000
  1   -566.7582613586  -0.267890566166 0.11344947  0.00328015  0.2883299 0.7000
                               ***Turning on DIIS***
  2   -566.9329031345  -0.174641775895 0.06848379  0.00227055  0.1992599 0.7000
  3   -567.0531790097  -0.120275875184 0.05093199  0.00166479  0.1369067 0.7000
  4   -567.1381339969  -0.084954987205 0.12654200  0.00421957  0.0942625 0.0000
  5   -567.3403500930  -0.202216096072 0.01949663  0.00039873  0.0107646 0.0000
  6   -567.3406316663  -0.000281573352 0.00481279  0.00015164  0.0040455 0.0000
                      *** Initiating the SOSCF procedure ***
                           *** Shutting down DIIS ***
                      *** Re-Reading the Fockian *** 
                      *** Removing any level shift *** 
ITER      Energy       Delta-E        Grad      Rot      Max-DP    RMS-DP
  7   -567.34070859  -0.0000769187  0.000663  0.000663  0.002649  0.000084
               *** Restarting incremental Fock matrix formation ***
  8   -567.34071602  -0.0000074338  0.000213  0.000571  0.001655  0.000052
  9   -567.34071830  -0.0000022799  0.000127  0.000506  0.000843  0.000025
 10   -567.34071840  -0.0000001051  0.000107  0.000193  0.000324  0.000010
 11   -567.34071856  -0.0000001535  0.000007  0.000013  0.000056  0.000002
 12   -567.34071856  -0.0000000012  0.000006  0.000009  0.000030  0.000001
                  ***Gradient check signals convergence***
              ***Rediagonalizing the Fockian in SOSCF/NRSCF***

               *****************************************************
               *                     SUCCESS                       *
               *           SCF CONVERGED AFTER  13 CYCLES          *
               *****************************************************

Old exchange energy                            =    -21.785528735 Eh
New exchange energy                            =    -21.785532693 Eh
Exchange energy change after final integration =     -0.000003957 Eh
Total energy after final integration           =   -567.340722516 Eh
Final COS-X integration done in                =     3.432 sec

----------------
TOTAL SCF ENERGY
----------------

Total Energy       :         -567.34072252 Eh          -15438.12592 eV

Components:
Nuclear Repulsion  :          280.54448846 Eh            7634.00364 eV
Electronic Energy  :         -847.88521097 Eh          -23072.12955 eV
One Electron Energy:        -1332.00085631 Eh          -36245.58599 eV
Two Electron Energy:          484.11564534 Eh           13173.45644 eV
Max COSX asymmetry :            0.00000675 Eh               0.00018 eV

Virial components:
Potential Energy   :        -1132.61686663 Eh          -30820.07180 eV
Kinetic Energy     :          565.27614412 Eh           15381.94588 eV
Virial Ratio       :            2.00365234


DFT components:
N(Alpha)           :       27.000002027119 electrons
N(Beta)            :       27.000002027119 electrons
N(Total)           :       54.000004054238 electrons
E(X)               :      -28.941447581528 Eh       
E(C)               :       -2.385796685532 Eh       
E(XC)              :      -31.327244267060 Eh       
DFET-embed. en.    :        0.000000000000 Eh       

---------------
SCF CONVERGENCE
---------------

  Last Energy change         ...   -1.1585e-10  Tolerance :   1.0000e-08
  Last MAX-Density change    ...    2.2204e-15  Tolerance :   1.0000e-07
  Last RMS-Density change    ...    5.2359e-17  Tolerance :   5.0000e-09
  Last Orbital Gradient      ...    4.0895e-07  Tolerance :   1.0000e-05
  Last Orbital Rotation      ...    1.1684e-06  Tolerance :   1.0000e-05

             **** THE GBW FILE WAS UPDATED (pbeh-3c.gbw) ****
             **** DENSITY pbeh-3c.scfp WAS UPDATED ****
             **** ENERGY FILE WAS UPDATED (pbeh-3c.en.tmp) ****
             **** THE GBW FILE WAS UPDATED (pbeh-3c.gbw) ****
             **** DENSITY pbeh-3c.scfp WAS UPDATED ****
----------------
ORBITAL ENERGIES
----------------

  NO   OCC          E(Eh)            E(eV) 
   0   2.0000     -89.680964     -2440.3431 
   1   2.0000     -10.491564      -285.4900 
   2   2.0000     -10.491522      -285.4888 
   3   2.0000     -10.409961      -283.2694 
   4   2.0000      -8.314613      -226.2521 
   5   2.0000      -6.925397      -188.4496 
   6   2.0000      -6.916078      -188.1960 
   7   2.0000      -6.204611      -168.8360 
   8   2.0000      -6.203246      -168.7989 
   9   2.0000      -6.198516      -168.6702 
  10   2.0000      -0.973700       -26.4957 
  11   2.0000      -0.829819       -22.5805 
  12   2.0000      -0.790524       -21.5113 
  13   2.0000      -0.675208       -18.3734 
  14   2.0000      -0.570606       -15.5270 
  15   2.0000      -0.550521       -14.9804 
  16   2.0000      -0.528893       -14.3919 
  17   2.0000      -0.525995       -14.3131 
  18   2.0000      -0.505558       -13.7569 
  19   2.0000      -0.489086       -13.3087 
  20   2.0000      -0.461390       -12.5551 
  21   2.0000      -0.439948       -11.9716 
  22   2.0000      -0.396578       -10.7914 
  23   2.0000      -0.347190        -9.4475 
  24   2.0000      -0.344193        -9.3660 
  25   2.0000      -0.329208        -8.9582 
  26   2.0000      -0.277036        -7.5385 
  27   0.0000      -0.003978        -0.1082 
  28   0.0000       0.037486         1.0201 
  29   0.0000       0.075143         2.0447 
  30   0.0000       0.096609         2.6289 
  31   0.0000       0.105828         2.8797 
  32   0.0000       0.121901         3.3171 
  33   0.0000       0.140994         3.8366 
  34   0.0000       0.159170         4.3312 
  35   0.0000       0.185080         5.0363 
  36   0.0000       0.201375         5.4797 
  37   0.0000       0.212048         5.7701 
  38   0.0000       0.215046         5.8517 
  39   0.0000       0.220320         5.9952 
  40   0.0000       0.253671         6.9027 
  41   0.0000       0.278383         7.5752 
  42   0.0000       0.285297         7.7633 
  43   0.0000       0.347854         9.4656 
  44   0.0000       0.362308         9.8589 
  45   0.0000       0.362776         9.8716 
  46   0.0000       0.389297        10.5933 
  47   0.0000       0.411906        11.2085 
  48   0.0000       0.413925        11.2635 
  49   0.0000       0.427242        11.6259 
  50   0.0000       0.454111        12.3570 
  51   0.0000       0.475724        12.9451 
  52   0.0000       0.503640        13.7047 
  53   0.0000       0.511097        13.9077 
  54   0.0000       0.562099        15.2955 
  55   0.0000       0.574392        15.6300 
  56   0.0000       0.645245        17.5580 
  57   0.0000       0.649607        17.6767 
  58   0.0000       0.713353        19.4113 
  59   0.0000       0.731590        19.9076 
  60   0.0000       0.745143        20.2764 
  61   0.0000       0.754925        20.5426 
  62   0.0000       0.777519        21.1574 
  63   0.0000       0.789944        21.4955 
  64   0.0000       0.815682        22.1958 
  65   0.0000       0.888435        24.1755 
  66   0.0000       0.962401        26.1883 
  67   0.0000       0.974679        26.5224 
  68   0.0000       0.988755        26.9054 
  69   0.0000       1.008865        27.4526 
  70   0.0000       1.015617        27.6363 
  71   0.0000       1.029626        28.0175 
  72   0.0000       1.037721        28.2378 
  73   0.0000       1.084232        29.5035 
  74   0.0000       1.140130        31.0245 
  75   0.0000       1.141911        31.0730 
  76   0.0000       1.149799        31.2876 
  77   0.0000       1.207706        32.8633 
  78   0.0000       1.241832        33.7920 
  79   0.0000       1.261769        34.3345 
  80   0.0000       1.309976        35.6463 
  81   0.0000       1.322132        35.9770 
  82   0.0000       1.379869        37.5482 
  83   0.0000       1.504624        40.9429 
  84   0.0000       1.663173        45.2572 
  85   0.0000       1.722795        46.8796 
  86   0.0000       1.775161        48.3046 
  87   0.0000       1.815164        49.3931 
  88   0.0000       1.836715        49.9795 
  89   0.0000       1.845895        50.2294 
  90   0.0000       1.883607        51.2555 
  91   0.0000       1.942461        52.8571 
  92   0.0000       1.993498        54.2459 
  93   0.0000       2.076003        56.4909 
  94   0.0000       2.149610        58.4939 
  95   0.0000       2.167676        58.9855 
  96   0.0000       2.212674        60.2099 
  97   0.0000       2.221324        60.4453 
  98   0.0000       2.249057        61.2000 
  99   0.0000       2.259805        61.4924 
 100   0.0000       2.262704        61.5713 
 101   0.0000       2.279124        62.0181 
 102   0.0000       2.289277        62.2944 
 103   0.0000       2.305972        62.7487 
 104   0.0000       2.445274        66.5393 
 105   0.0000       2.490751        67.7768 
 106   0.0000       2.805628        76.3450 
 107   0.0000       2.885583        78.5207 
 108   0.0000       9.105803       247.7815 
 109   0.0000       9.170606       249.5449 
 110   0.0000      13.640294       371.1713 
 111   0.0000      13.721440       373.3794 
 112   0.0000      13.893554       378.0628 

                    ********************************
                    * MULLIKEN POPULATION ANALYSIS *
                    ********************************

-----------------------
MULLIKEN ATOMIC CHARGES
-----------------------
   0 C :   -0.446990
   1 S :    0.329454
   2 C :   -0.738045
   3 C :   -0.738045
   4 H :    0.282928
   5 H :    0.256645
   6 H :    0.288871
   7 H :    0.282928
   8 H :    0.288871
   9 H :    0.256645
  10 B :   -0.069564
  11 H :    0.015802
  12 H :    0.036650
  13 B :   -0.084950
  14 H :   -0.009522
  15 H :    0.048322
Sum of atomic charges:   -0.0000000

--------------------------------
MULLIKEN REDUCED ORBITAL CHARGES
--------------------------------
  0 C s       :     3.305136  s :     3.305136
      pz      :     1.312122  p :     3.119885
      px      :     1.071588
      py      :     0.736174
      dz2     :     0.002636  d :     0.021969
      dxz     :     0.000170
      dyz     :     0.000926
      dx2y2   :     0.008784
      dxy     :     0.009453
  1 S s       :     5.742095  s :     5.742095
      pz      :     3.021952  p :     9.740422
      px      :     3.619487
      py      :     3.098984
      dz2     :     0.027480  d :     0.188029
      dxz     :     0.027352
      dyz     :     0.071485
      dx2y2   :     0.024223
      dxy     :     0.037488
  2 C s       :     3.437577  s :     3.437577
      pz      :     1.022718  p :     3.264949
      px      :     1.146505
      py      :     1.095726
      dz2     :     0.008092  d :     0.035519
      dxz     :     0.005259
      dyz     :     0.007148
      dx2y2   :     0.010407
      dxy     :     0.004614
  3 C s       :     3.437577  s :     3.437577
      pz      :     1.022718  p :     3.264949
      px      :     1.146505
      py      :     1.095726
      dz2     :     0.008092  d :     0.035519
      dxz     :     0.005259
      dyz     :     0.007148
      dx2y2   :     0.010407
      dxy     :     0.004614
  4 H s       :     0.717072  s :     0.717072
  5 H s       :     0.743355  s :     0.743355
  6 H s       :     0.711129  s :     0.711129
  7 H s       :     0.717072  s :     0.717072
  8 H s       :     0.711129  s :     0.711129
  9 H s       :     0.743355  s :     0.743355
 10 B s       :     3.003500  s :     3.003500
      pz      :     0.266645  p :     2.039075
      px      :     0.900206
      py      :     0.872224
      dz2     :     0.003759  d :     0.026989
      dxz     :     0.001574
      dyz     :     0.002301
      dx2y2   :     0.010257
      dxy     :     0.009097
 11 H s       :     0.984198  s :     0.984198
 12 H s       :     0.963350  s :     0.963350
 13 B s       :     2.995241  s :     2.995241
      pz      :     0.266690  p :     2.062806
      px      :     0.800423
      py      :     0.995693
      dz2     :     0.003784  d :     0.026903
      dxz     :     0.003781
      dyz     :     0.000053
      dx2y2   :     0.008653
      dxy     :     0.010632
 14 H s       :     1.009522  s :     1.009522
 15 H s       :     0.951678  s :     0.951678


                     *******************************
                     * LOEWDIN POPULATION ANALYSIS *
                     *******************************

----------------------
LOEWDIN ATOMIC CHARGES
----------------------
   0 C :   -0.458082
   1 S :    0.737378
   2 C :   -0.455022
   3 C :   -0.455022
   4 H :    0.157561
   5 H :    0.142982
   6 H :    0.159332
   7 H :    0.157561
   8 H :    0.159332
   9 H :    0.142982
  10 B :   -0.157053
  11 H :   -0.002032
  12 H :    0.016264
  13 B :   -0.152880
  14 H :   -0.017179
  15 H :    0.023879

-------------------------------
LOEWDIN REDUCED ORBITAL CHARGES
-------------------------------
  0 C s       :     2.976108  s :     2.976108
      pz      :     1.239302  p :     3.426654
      px      :     1.210703
      py      :     0.976649
      dz2     :     0.005004  d :     0.055319
      dxz     :     0.000389
      dyz     :     0.002222
      dx2y2   :     0.022419
      dxy     :     0.025286
  1 S s       :     5.397701  s :     5.397701
      pz      :     3.003928  p :     9.631585
      px      :     3.573255
      py      :     3.054402
      dz2     :     0.034068  d :     0.233336
      dxz     :     0.032161
      dyz     :     0.092505
      dx2y2   :     0.031285
      dxy     :     0.043317
  2 C s       :     3.026060  s :     3.026060
      pz      :     1.084761  p :     3.365976
      px      :     1.158069
      py      :     1.123146
      dz2     :     0.014360  d :     0.062987
      dxz     :     0.009988
      dyz     :     0.013267
      dx2y2   :     0.017724
      dxy     :     0.007648
  3 C s       :     3.026060  s :     3.026060
      pz      :     1.084761  p :     3.365976
      px      :     1.158069
      py      :     1.123146
      dz2     :     0.014360  d :     0.062987
      dxz     :     0.009988
      dyz     :     0.013267
      dx2y2   :     0.017724
      dxy     :     0.007648
  4 H s       :     0.842439  s :     0.842439
  5 H s       :     0.857018  s :     0.857018
  6 H s       :     0.840668  s :     0.840668
  7 H s       :     0.842439  s :     0.842439
  8 H s       :     0.840668  s :     0.840668
  9 H s       :     0.857018  s :     0.857018
 10 B s       :     2.850442  s :     2.850442
      pz      :     0.310747  p :     2.254702
      px      :     0.962740
      py      :     0.981214
      dz2     :     0.005767  d :     0.051909
      dxz     :     0.003182
      dyz     :     0.004541
      dx2y2   :     0.019544
      dxy     :     0.018875
 11 H s       :     1.002032  s :     1.002032
 12 H s       :     0.983736  s :     0.983736
 13 B s       :     2.846427  s :     2.846427
      pz      :     0.308473  p :     2.254850
      px      :     0.950584
      py      :     0.995793
      dz2     :     0.005813  d :     0.051603
      dxz     :     0.007506
      dyz     :     0.000075
      dx2y2   :     0.017895
      dxy     :     0.020314
 14 H s       :     1.017179  s :     1.017179
 15 H s       :     0.976121  s :     0.976121


                      *****************************
                      * MAYER POPULATION ANALYSIS *
                      *****************************

  NA   - Mulliken gross atomic population
  ZA   - Total nuclear charge
  QA   - Mulliken gross atomic charge
  VA   - Mayer's total valence
  BVA  - Mayer's bonded valence
  FA   - Mayer's free valence

  ATOM       NA         ZA         QA         VA         BVA        FA
  0 C      6.4470     6.0000    -0.4470     3.5500     3.5500     0.0000
  1 S     15.6705    16.0000     0.3295     2.9673     2.9673     0.0000
  2 C      6.7380     6.0000    -0.7380     3.6281     3.6281    -0.0000
  3 C      6.7380     6.0000    -0.7380     3.6281     3.6281    -0.0000
  4 H      0.7171     1.0000     0.2829     0.8883     0.8883    -0.0000
  5 H      0.7434     1.0000     0.2566     0.8959     0.8959    -0.0000
  6 H      0.7111     1.0000     0.2889     0.8877     0.8877    -0.0000
  7 H      0.7171     1.0000     0.2829     0.8883     0.8883    -0.0000
  8 H      0.7111     1.0000     0.2889     0.8877     0.8877    -0.0000
  9 H      0.7434     1.0000     0.2566     0.8959     0.8959    -0.0000
 10 B      5.0696     5.0000    -0.0696     3.3575     3.3575    -0.0000
 11 H      0.9842     1.0000     0.0158     0.9830     0.9830     0.0000
 12 H      0.9634     1.0000     0.0366     0.9882     0.9882    -0.0000
 13 B      5.0849     5.0000    -0.0849     3.3784     3.3784    -0.0000
 14 H      1.0095     1.0000    -0.0095     0.9778     0.9778    -0.0000
 15 H      0.9517     1.0000     0.0483     0.9890     0.9890    -0.0000

  Mayer bond orders larger than 0.100000
B(  0-C ,  1-S ) :   1.0128 B(  0-C , 10-B ) :   1.2594 B(  0-C , 13-B ) :   1.2717 
B(  1-S ,  2-C ) :   0.9445 B(  1-S ,  3-C ) :   0.9445 B(  2-C ,  4-H ) :   0.8751 
B(  2-C ,  5-H ) :   0.8930 B(  2-C ,  6-H ) :   0.8934 B(  3-C ,  7-H ) :   0.8751 
B(  3-C ,  8-H ) :   0.8934 B(  3-C ,  9-H ) :   0.8930 B( 10-B , 11-H ) :   0.9874 
B( 10-B , 12-H ) :   0.9896 B( 13-B , 14-H ) :   0.9731 B( 13-B , 15-H ) :   0.9855 


-------
TIMINGS
-------

Total SCF time: 0 days 0 hours 1 min 22 sec 

Total time                  ....      82.262 sec
Sum of individual times     ....      74.414 sec  ( 90.5%)

Fock matrix formation       ....      63.283 sec  ( 76.9%)
  Split-RI-J                ....       7.252 sec  ( 11.5% of F)
  Chain of spheres X        ....      21.140 sec  ( 33.4% of F)
  XC integration            ....      21.161 sec  ( 33.4% of F)
    Basis function eval.    ....       2.806 sec  ( 13.3% of XC)
    Density eval.           ....       1.600 sec  (  7.6% of XC)
    XC-Functional eval.     ....       1.223 sec  (  5.8% of XC)
    XC-Potential eval.      ....       1.044 sec  (  4.9% of XC)
Diagonalization             ....       0.555 sec  (  0.7%)
Density matrix formation    ....       0.051 sec  (  0.1%)
Population analysis         ....       0.844 sec  (  1.0%)
Initial guess               ....       0.009 sec  (  0.0%)
Orbital Transformation      ....       0.000 sec  (  0.0%)
Orbital Orthonormalization  ....       0.000 sec  (  0.0%)
DIIS solution               ....       1.689 sec  (  2.1%)
SOSCF solution              ....       0.982 sec  (  1.2%)
Grid generation             ....       7.001 sec  (  8.5%)

Maximum memory used throughout the entire SCF-calculation: 53.3 MB


-------------------------------------------------------------------------------
                          DFT DISPERSION CORRECTION                            
                                                                               
                              DFTD3 V3.1  Rev 1                                
                          USING Becke-Johnson damping                          
-------------------------------------------------------------------------------
The PBEh-3c composite method is recognized
Using three-body term ABC
Active option DFTDOPT                   ...         4   

molecular C6(AA) [au] = 2869.994648 


            DFT-D V3
 parameters
 s6 scaling factor         :     1.0000 
 a1 scaling factor         :     0.4860 
 s8 scaling factor         :     0.0000 
 a2 scaling factor         :     4.5000 
 Damping factor alpha9(ATM):    16.0000 
 ad hoc parameters k1-k3   :    16.0000     1.3333    -4.0000 

 Edisp/kcal,au: -5.075123551876  -0.008087723326 
 E6   /kcal   :  -5.102045811 
 E8   /kcal   :  -0.000000000 
 E6(ABC)      :   0.026922259 
 % E8         :   0.000000000 
 % E6(ABC)    :  -0.530474950 

-------------------------   ----------------
Dispersion correction           -0.008087723
-------------------------   ----------------

------------------   -----------------
gCP correction             0.017506842
------------------   -----------------

-------------------------   --------------------
FINAL SINGLE POINT ENERGY      -567.331303397942
-------------------------   --------------------


                            ***************************************
                            *     ORCA property calculations      *
                            ***************************************

                                    ---------------------
                                    Active property flags
                                    ---------------------
   (+) Dipole Moment


------------------------------------------------------------------------------
                       ORCA ELECTRIC PROPERTIES CALCULATION
------------------------------------------------------------------------------

Dipole Moment Calculation                       ... on
Quadrupole Moment Calculation                   ... off
Polarizability Calculation                      ... off
GBWName                                         ... pbeh-3c.gbw
Electron density                                ... pbeh-3c.scfp
The origin for moment calculation is the CENTER OF MASS  = ( 0.056893, -0.072663 -0.000000)

-------------
DIPOLE MOMENT
-------------
                                X             Y             Z
Electronic contribution:      3.22813      -1.60388      -0.00000
Nuclear contribution   :     -3.07225       3.92378       0.00000
                        -----------------------------------------
Total Dipole Moment    :      0.15589       2.31991      -0.00000
                        -----------------------------------------
Magnitude (a.u.)       :      2.32514
Magnitude (Debye)      :      5.91003



--------------------
Rotational spectrum 
--------------------
 
Rotational constants in cm-1:     0.131237     0.071153     0.069511 
Rotational constants in MHz :  3934.389895  2133.115831  2083.884552 

 Dipole components along the rotational axes: 
x,y,z [a.u.] :     2.324713    -0.044475    -0.000000 
x,y,z [Debye]:     5.908950    -0.113045    -0.000000 

 

Timings for individual modules:

Sum of individual times         ...       86.075 sec (=   1.435 min)
GTO integral calculation        ...        3.044 sec (=   0.051 min)   3.5 %
SCF iterations                  ...       83.031 sec (=   1.384 min)  96.5 %
                             ****ORCA TERMINATED NORMALLY****
TOTAL RUN TIME: 0 days 0 hours 1 minutes 30 seconds 458 msec
