
                                 *****************
                                 * O   R   C   A *
                                 *****************

                                            #,                                       
                                            ###                                      
                                            ####                                     
                                            #####                                    
                                            ######                                   
                                           ########,                                 
                                     ,,################,,,,,                         
                               ,,#################################,,                 
                          ,,##########################################,,             
                       ,#########################################, ''#####,          
                    ,#############################################,,   '####,        
                  ,##################################################,,,,####,       
                ,###########''''           ''''###############################       
              ,#####''   ,,,,##########,,,,          '''####'''          '####       
            ,##' ,,,,###########################,,,                        '##       
           ' ,,###''''                  '''############,,,                           
         ,,##''                                '''############,,,,        ,,,,,,###''
      ,#''                                            '''#######################'''  
     '                                                          ''''####''''         
             ,#######,   #######,   ,#######,      ##                                
            ,#'     '#,  ##    ##  ,#'     '#,    #''#        ######   ,####,        
            ##       ##  ##   ,#'  ##            #'  '#       #        #'  '#        
            ##       ##  #######   ##           ,######,      #####,   #    #        
            '#,     ,#'  ##    ##  '#,     ,#' ,#      #,         ##   #,  ,#        
             '#######'   ##     ##  '#######'  #'      '#     #####' # '####'        



                  #######################################################
                  #                        -***-                        #
                  #          Department of theory and spectroscopy      #
                  #    Directorship and core code : Frank Neese         #
                  #        Max Planck Institute fuer Kohlenforschung    #
                  #                Kaiser Wilhelm Platz 1               #
                  #                 D-45470 Muelheim/Ruhr               #
                  #                      Germany                        #
                  #                                                     #
                  #                  All rights reserved                #
                  #                        -***-                        #
                  #######################################################


                         Program Version 5.0.3 -  RELEASE  -


 With contributions from (in alphabetic order):
   Daniel Aravena         : Magnetic Suceptibility
   Michael Atanasov       : Ab Initio Ligand Field Theory (pilot matlab implementation)
   Alexander A. Auer      : GIAO ZORA, VPT2 properties, NMR spectrum
   Ute Becker             : Parallelization
   Giovanni Bistoni       : ED, misc. LED, open-shell LED, HFLD
   Martin Brehm           : Molecular dynamics
   Dmytro Bykov           : SCF Hessian
   Vijay G. Chilkuri      : MRCI spin determinant printing, contributions to CSF-ICE
   Dipayan Datta          : RHF DLPNO-CCSD density
   Achintya Kumar Dutta   : EOM-CC, STEOM-CC
   Dmitry Ganyushin       : Spin-Orbit,Spin-Spin,Magnetic field MRCI
   Miquel Garcia          : C-PCM and meta-GGA Hessian, CC/C-PCM, Gaussian charge scheme
   Yang Guo               : DLPNO-NEVPT2, F12-NEVPT2, CIM, IAO-localization
   Andreas Hansen         : Spin unrestricted coupled pair/coupled cluster methods
   Benjamin Helmich-Paris : MC-RPA, TRAH-SCF, COSX integrals
   Lee Huntington         : MR-EOM, pCC
   Robert Izsak           : Overlap fitted RIJCOSX, COSX-SCS-MP3, EOM
   Marcus Kettner         : VPT2
   Christian Kollmar      : KDIIS, OOCD, Brueckner-CCSD(T), CCSD density, CASPT2, CASPT2-K
   Simone Kossmann        : Meta GGA functionals, TD-DFT gradient, OOMP2, MP2 Hessian
   Martin Krupicka        : Initial AUTO-CI
   Lucas Lang             : DCDCAS
   Marvin Lechner         : AUTO-CI (C++ implementation), FIC-MRCC
   Dagmar Lenk            : GEPOL surface, SMD
   Dimitrios Liakos       : Extrapolation schemes; Compound Job, initial MDCI parallelization
   Dimitrios Manganas     : Further ROCIS development; embedding schemes
   Dimitrios Pantazis     : SARC Basis sets
   Anastasios Papadopoulos: AUTO-CI, single reference methods and gradients
   Taras Petrenko         : DFT Hessian,TD-DFT gradient, ASA, ECA, R-Raman, ABS, FL, XAS/XES, NRVS
   Peter Pinski           : DLPNO-MP2, DLPNO-MP2 Gradient
   Christoph Reimann      : Effective Core Potentials
   Marius Retegan         : Local ZFS, SOC
   Christoph Riplinger    : Optimizer, TS searches, QM/MM, DLPNO-CCSD(T), (RO)-DLPNO pert. Triples
   Tobias Risthaus        : Range-separated hybrids, TD-DFT gradient, RPA, STAB
   Michael Roemelt        : Original ROCIS implementation
   Masaaki Saitow         : Open-shell DLPNO-CCSD energy and density
   Barbara Sandhoefer     : DKH picture change effects
   Avijit Sen             : IP-ROCIS
   Kantharuban Sivalingam : CASSCF convergence, NEVPT2, FIC-MRCI
   Bernardo de Souza      : ESD, SOC TD-DFT
   Georgi Stoychev        : AutoAux, RI-MP2 NMR, DLPNO-MP2 response
   Willem Van den Heuvel  : Paramagnetic NMR
   Boris Wezisla          : Elementary symmetry handling
   Frank Wennmohs         : Technical directorship


 We gratefully acknowledge several colleagues who have allowed us to
 interface, adapt or use parts of their codes:
   Stefan Grimme, W. Hujo, H. Kruse, P. Pracht,  : VdW corrections, initial TS optimization,
                  C. Bannwarth, S. Ehlert          DFT functionals, gCP, sTDA/sTD-DF
   Ed Valeev, F. Pavosevic, A. Kumar             : LibInt (2-el integral package), F12 methods
   Garnet Chan, S. Sharma, J. Yang, R. Olivares  : DMRG
   Ulf Ekstrom                                   : XCFun DFT Library
   Mihaly Kallay                                 : mrcc  (arbitrary order and MRCC methods)
   Jiri Pittner, Ondrej Demel                    : Mk-CCSD
   Frank Weinhold                                : gennbo (NPA and NBO analysis)
   Christopher J. Cramer and Donald G. Truhlar   : smd solvation model
   Lars Goerigk                                  : TD-DFT with DH, B97 family of functionals
   V. Asgeirsson, H. Jonsson                     : NEB implementation
   FAccTs GmbH                                   : IRC, NEB, NEB-TS, DLPNO-Multilevel, CI-OPT
                                                   MM, QMMM, 2- and 3-layer-ONIOM, Crystal-QMMM,
                                                   LR-CPCM, SF, NACMEs, symmetry and pop. for TD-DFT,
                                                   nearIR, NL-DFT gradient (VV10), updates on ESD,
                                                   ML-optimized integration grids
   S Lehtola, MJT Oliveira, MAL Marques          : LibXC Library
   Liviu Ungur et al                             : ANISO software


 Your calculation uses the libint2 library for the computation of 2-el integrals
 For citations please refer to: http://libint.valeyev.net

 Your ORCA version has been built with support for libXC version: 5.1.0
 For citations please refer to: https://tddft.org/programs/libxc/

 This ORCA versions uses:
   CBLAS   interface :  Fast vector & matrix operations
   LAPACKE interface :  Fast linear algebra routines
   SCALAPACK package :  Parallel linear algebra routines
   Shared memory     :  Shared parallel matrices
   BLAS/LAPACK       :  OpenBLAS 0.3.15  USE64BITINT DYNAMIC_ARCH NO_AFFINITY Haswell SINGLE_THREADED
        Core in use  :  Haswell
   Copyright (c) 2011-2014, The OpenBLAS Project




***************************************
The coordinates will be read from file: biphenyl.xyz
***************************************


Your calculation utilizes the geometrical counterpoise correction gCP
Please cite in your paper:
H.Kruse, S. Grimme J.Chem.Phys., 136, (2012), 154101 
   

Your calculation utilizes the atom-pairwise dispersion correction
with the Becke-Johnson damping scheme (D3BJ)
Cite in your paper:
S.Grimme, S.Ehrlich, L.Goerigk, J Comput Chem, (2011), 32, 1456–1465 
S.Grimme, J.Antony, S.Ehrlich and H.Krieg, J.Chem.Phys., 132, (2010), 154104 
   

Your calculation employs the composite approach PBEh-3c.
Please cite in your paper:
S. Grimme, J. G. Brandenburg, C. Bannwarth, A. Hansen J.Chem.Phys., 143, (2015), 054107 
   

================================================================================

----- Orbital basis set information -----
Your calculation utilizes the basis: def2-mSVP

----- AuxJ basis set information -----
Your calculation utilizes the auxiliary basis: def2/J
   F. Weigend, Phys. Chem. Chem. Phys. 8, 1057 (2006).

================================================================================
                                        WARNINGS
                       Please study these warnings very carefully!
================================================================================


INFO   : the flag for use of the SHARK integral package has been found!

================================================================================
                                       INPUT FILE
================================================================================
NAME = pbeh-3c.inp
|  1> ! PBEh-3c def2/J TightSCF DefGrid3
|  2> 
|  3> %maxcore 60000
|  4> 
|  5> %pal
|  6> nprocs 4
|  7> end
|  8> 
|  9> *xyzfile 0 1 biphenyl.xyz
| 10> 
| 11>                          ****END OF INPUT****
================================================================================

                       ****************************
                       * Single Point Calculation *
                       ****************************

---------------------------------
CARTESIAN COORDINATES (ANGSTROEM)
---------------------------------
  C      0.000000    0.000000    0.739583
  C      1.131558   -0.399724    1.457941
  C      1.131997   -0.400373    2.846238
  C      0.000000    0.000000    3.547097
  C     -1.131997    0.400373    2.846238
  C     -1.131558    0.399724    1.457941
  C      0.000000    0.000000   -0.739583
  C      1.131558    0.399724   -1.457941
  C      1.131997    0.400373   -2.846238
  C      0.000000    0.000000   -3.547097
  C     -1.131997   -0.400373   -2.846238
  C     -1.131558   -0.399724   -1.457941
  H      2.009660   -0.736225    0.921921
  H      2.016109   -0.722313    3.382055
  H      0.000000    0.000000    4.629523
  H     -2.016109    0.722313    3.382055
  H     -2.009660    0.736225    0.921921
  H      2.009660    0.736225   -0.921921
  H      2.016109    0.722313   -3.382055
  H      0.000000    0.000000   -4.629523
  H     -2.016109   -0.722313   -3.382055
  H     -2.009660   -0.736225   -0.921921

----------------------------
CARTESIAN COORDINATES (A.U.)
----------------------------
  NO LB      ZA    FRAG     MASS         X           Y           Z
   0 C     6.0000    0    12.011    0.000000    0.000000    1.397610
   1 C     6.0000    0    12.011    2.138335   -0.755370    2.755110
   2 C     6.0000    0    12.011    2.139165   -0.756596    5.378611
   3 C     6.0000    0    12.011    0.000000    0.000000    6.703041
   4 C     6.0000    0    12.011   -2.139165    0.756596    5.378611
   5 C     6.0000    0    12.011   -2.138335    0.755370    2.755110
   6 C     6.0000    0    12.011    0.000000    0.000000   -1.397610
   7 C     6.0000    0    12.011    2.138335    0.755370   -2.755110
   8 C     6.0000    0    12.011    2.139165    0.756596   -5.378611
   9 C     6.0000    0    12.011    0.000000    0.000000   -6.703041
  10 C     6.0000    0    12.011   -2.139165   -0.756596   -5.378611
  11 C     6.0000    0    12.011   -2.138335   -0.755370   -2.755110
  12 H     1.0000    0     1.008    3.797707   -1.391264    1.742179
  13 H     1.0000    0     1.008    3.809894   -1.364973    6.391158
  14 H     1.0000    0     1.008    0.000000    0.000000    8.748530
  15 H     1.0000    0     1.008   -3.809894    1.364973    6.391158
  16 H     1.0000    0     1.008   -3.797707    1.391264    1.742179
  17 H     1.0000    0     1.008    3.797707    1.391264   -1.742179
  18 H     1.0000    0     1.008    3.809894    1.364973   -6.391158
  19 H     1.0000    0     1.008    0.000000    0.000000   -8.748530
  20 H     1.0000    0     1.008   -3.809894   -1.364973   -6.391158
  21 H     1.0000    0     1.008   -3.797707   -1.391264   -1.742179

--------------------------------
INTERNAL COORDINATES (ANGSTROEM)
--------------------------------
 C      0   0   0     0.000000000000     0.00000000     0.00000000
 C      1   0   0     1.398657211658     0.00000000     0.00000000
 C      2   1   0     1.388297421108   120.93030479     0.00000000
 C      3   2   1     1.390294744304   120.24611520   359.95508620
 C      4   3   2     1.390294744304   119.45572385     0.00000000
 C      5   4   3     1.388297421108   120.24611520     0.00000000
 C      1   2   3     1.479166200000   120.90429317   180.02239300
 C      7   1   2     1.398657211658   120.90429317   321.08832381
 C      8   7   1     1.388297421108   120.93030479   180.02239300
 C      9   8   7     1.390294744304   120.24611520   359.95508620
 C     10   9   8     1.390294744304   119.45572385     0.00000000
 C     11  10   9     1.388297421108   120.24611520     0.00000000
 H      2   1   3     1.082410474042   119.39508733   178.47022258
 H      3   2   1     1.082773375596   119.68644493   179.44659992
 H      4   3   2     1.082426200000   120.27213807   180.02222381
 H      5   4   3     1.082773375596   120.06548326   180.53264627
 H      6   5   4     1.082410474042   119.65704389   181.48883101
 H      8   7   1     1.082410474042   119.39508733   358.49261558
 H      9   8   7     1.082773375596   119.68644493   179.44659992
 H     10   9   8     1.082426200000   120.27213807   180.02222381
 H     11  10   9     1.082773375596   120.06548326   180.53264627
 H     12  11  10     1.082410474042   119.65704389   181.48883101

---------------------------
INTERNAL COORDINATES (A.U.)
---------------------------
 C      0   0   0     0.000000000000     0.00000000     0.00000000
 C      1   0   0     2.643079085268     0.00000000     0.00000000
 C      2   1   0     2.623501918322   120.93030479     0.00000000
 C      3   2   1     2.627276312164   120.24611520   359.95508620
 C      4   3   2     2.627276312164   119.45572385     0.00000000
 C      5   4   3     2.623501918322   120.24611520     0.00000000
 C      1   2   3     2.795219024553   120.90429317   180.02239300
 C      7   1   2     2.643079085268   120.90429317   321.08832381
 C      8   7   1     2.623501918322   120.93030479   180.02239300
 C      9   8   7     2.627276312164   120.24611520   359.95508620
 C     10   9   8     2.627276312164   119.45572385     0.00000000
 C     11  10   9     2.623501918322   120.24611520     0.00000000
 H      2   1   3     2.045459360427   119.39508733   178.47022258
 H      3   2   1     2.046145144978   119.68644493   179.44659992
 H      4   3   2     2.045489078181   120.27213807   180.02222381
 H      5   4   3     2.046145144978   120.06548326   180.53264627
 H      6   5   4     2.045459360427   119.65704389   181.48883101
 H      8   7   1     2.045459360427   119.39508733   358.49261558
 H      9   8   7     2.046145144978   119.68644493   179.44659992
 H     10   9   8     2.045489078181   120.27213807   180.02222381
 H     11  10   9     2.046145144978   120.06548326   180.53264627
 H     12  11  10     2.045459360427   119.65704389   181.48883101

---------------------
BASIS SET INFORMATION
---------------------
There are 2 groups of distinct atoms

 Group   1 Type C   : 8s4p1d contracted to 4s2p1d pattern {5111/31/1}
 Group   2 Type H   : 4s contracted to 2s pattern {31}

Atom   0C    basis set group =>   1
Atom   1C    basis set group =>   1
Atom   2C    basis set group =>   1
Atom   3C    basis set group =>   1
Atom   4C    basis set group =>   1
Atom   5C    basis set group =>   1
Atom   6C    basis set group =>   1
Atom   7C    basis set group =>   1
Atom   8C    basis set group =>   1
Atom   9C    basis set group =>   1
Atom  10C    basis set group =>   1
Atom  11C    basis set group =>   1
Atom  12H    basis set group =>   2
Atom  13H    basis set group =>   2
Atom  14H    basis set group =>   2
Atom  15H    basis set group =>   2
Atom  16H    basis set group =>   2
Atom  17H    basis set group =>   2
Atom  18H    basis set group =>   2
Atom  19H    basis set group =>   2
Atom  20H    basis set group =>   2
Atom  21H    basis set group =>   2
---------------------------------
AUXILIARY/J BASIS SET INFORMATION
---------------------------------
There are 2 groups of distinct atoms

 Group   1 Type C   : 12s5p4d2f1g contracted to 6s4p3d1f1g pattern {711111/2111/211/2/1}
 Group   2 Type H   : 5s2p1d contracted to 3s1p1d pattern {311/2/1}

Atom   0C    basis set group =>   1
Atom   1C    basis set group =>   1
Atom   2C    basis set group =>   1
Atom   3C    basis set group =>   1
Atom   4C    basis set group =>   1
Atom   5C    basis set group =>   1
Atom   6C    basis set group =>   1
Atom   7C    basis set group =>   1
Atom   8C    basis set group =>   1
Atom   9C    basis set group =>   1
Atom  10C    basis set group =>   1
Atom  11C    basis set group =>   1
Atom  12H    basis set group =>   2
Atom  13H    basis set group =>   2
Atom  14H    basis set group =>   2
Atom  15H    basis set group =>   2
Atom  16H    basis set group =>   2
Atom  17H    basis set group =>   2
Atom  18H    basis set group =>   2
Atom  19H    basis set group =>   2
Atom  20H    basis set group =>   2
Atom  21H    basis set group =>   2


           ************************************************************
           *        Program running with 4 parallel MPI-processes     *
           *              working on a common directory               *
           ************************************************************
------------------------------------------------------------------------------
                           ORCA GTO INTEGRAL CALCULATION
                           -- RI-GTO INTEGRALS CHOSEN --
------------------------------------------------------------------------------
------------------------------------------------------------------------------
                   ___                                                        
                  /   \      - P O W E R E D   B Y -                         
                 /     \                                                     
                 |  |  |   _    _      __       _____    __    __             
                 |  |  |  | |  | |    /  \     |  _  \  |  |  /  |          
                  \  \/   | |  | |   /    \    | | | |  |  | /  /          
                 / \  \   | |__| |  /  /\  \   | |_| |  |  |/  /          
                |  |  |   |  __  | /  /__\  \  |    /   |      \           
                |  |  |   | |  | | |   __   |  |    \   |  |\   \          
                \     /   | |  | | |  |  |  |  | |\  \  |  | \   \       
                 \___/    |_|  |_| |__|  |__|  |_| \__\ |__|  \__/        
                                                                              
                      - O R C A' S   B I G   F R I E N D -                    
                                      &                                       
                       - I N T E G R A L  F E E D E R -                       
                                                                              
 v1 FN, 2020, v2 2021                                                         
------------------------------------------------------------------------------


Reading SHARK input file pbeh-3c.SHARKINP.tmp ... ok
----------------------
SHARK INTEGRAL PACKAGE
----------------------

Number of atoms                             ...     22
Number of basis functions                   ...    200
Number of shells                            ...    104
Maximum angular momentum                    ...      2
Integral batch strategy                     ... SHARK/LIBINT Hybrid
RI-J (if used) integral strategy            ... SPLIT-RIJ (Revised 2003 algorithm where possible)
Printlevel                                  ...      1
Contraction scheme used                     ... SEGMENTED contraction
Coulomb Range Separation                    ... NOT USED
Exchange Range Separation                   ... NOT USED
Finite Nucleus Model                        ... NOT USED
Auxiliary Coulomb fitting basis             ... AVAILABLE
   # of basis functions in Aux-J            ...    698
   # of shells in Aux-J                     ...    230
   Maximum angular momentum in Aux-J        ...      4
Auxiliary J/K fitting basis                 ... NOT available
Auxiliary Correlation fitting basis         ... NOT available
Auxiliary 'external' fitting basis          ... NOT available
Integral threshold                          ...     2.500000e-11
Primitive cut-off                           ...     2.500000e-12
Primitive pair pre-selection threshold      ...     2.500000e-12

Calculating pre-screening integrals         ... done (  0.1 sec) Dimension = 104
Organizing shell pair data                  ... done (  0.4 sec)
Shell pair information
Total number of shell pairs                 ...      5460
Shell pairs after pre-screening             ...      4492
Total number of primitive shell pairs       ...     19492
Primitive shell pairs kept                  ...     10961
          la=0 lb=0:   1752 shell pairs
          la=1 lb=0:   1490 shell pairs
          la=1 lb=1:    291 shell pairs
          la=2 lb=0:    628 shell pairs
          la=2 lb=1:    270 shell pairs
          la=2 lb=2:     61 shell pairs

Calculating one electron integrals          ... done (  0.1 sec)
Calculating RI/J V-Matrix + Cholesky decomp.... done (  0.6 sec)
Calculating Nuclear repulsion               ... done (  0.0 sec) ENN=    601.351585935659 Eh

SHARK setup successfully completed in   3.1 seconds

Maximum memory used throughout the entire GTOINT-calculation: 13.0 MB


           ************************************************************
           *        Program running with 4 parallel MPI-processes     *
           *              working on a common directory               *
           ************************************************************
-------------------------------------------------------------------------------
                                 ORCA SCF
-------------------------------------------------------------------------------

------------
SCF SETTINGS
------------
Hamiltonian:
 Density Functional     Method          .... DFT(GTOs)
 Exchange Functional    Exchange        .... PBE
   PBE kappa parameter   XKappa         ....  1.024500
   PBE mue parameter    XMuePBE         ....  0.123457
 Correlation Functional Correlation     .... PBE
   PBE beta parameter  CBetaPBE         ....  0.030000
 LDA part of GGA corr.  LDAOpt          .... PW91-LDA
 Gradients option       PostSCFGGA      .... off
 Hybrid DFT is turned on
   Fraction HF Exchange ScalHFX         ....  0.420000
   Scaling of DF-GGA-X  ScalDFX         ....  0.580000
   Scaling of DF-GGA-C  ScalDFC         ....  1.000000
   Scaling of DF-LDA-C  ScalLDAC        ....  1.000000
   Perturbative correction              ....  0.000000
   Density functional embedding theory  .... OFF
 RI-approximation to the Coulomb term is turned on
   Number of AuxJ basis functions       .... 698
   RIJ-ON(X) (HFX calculated with O(N)) .... on
   Number of AuxJ basis functions       .... 698
   RIJ-COSX (HFX calculated with COS-X)).... on


General Settings:
 Integral files         IntName         .... pbeh-3c
 Hartree-Fock type      HFTyp           .... RHF
 Total Charge           Charge          ....    0
 Multiplicity           Mult            ....    1
 Number of Electrons    NEL             ....   82
 Basis Dimension        Dim             ....  200
 Nuclear Repulsion      ENuc            ....    601.3515859357 Eh

Convergence Acceleration:
 DIIS                   CNVDIIS         .... on
   Start iteration      DIISMaxIt       ....    12
   Startup error        DIISStart       ....  0.200000
   # of expansion vecs  DIISMaxEq       ....     5
   Bias factor          DIISBfac        ....   1.050
   Max. coefficient     DIISMaxC        ....  10.000
 Trust-Rad. Augm. Hess. CNVTRAH         .... auto
   Auto Start mean grad. ratio tolernc. ....  1.125000
   Auto Start start iteration           ....    20
   Auto Start num. interpolation iter.  ....    10
   Max. Number of Micro iterations      ....    16
   Max. Number of Macro iterations      .... Maxiter - #DIIS iter
   Number of Davidson start vectors     ....     2
   Converg. threshold I  (grad. norm)   ....   1.000e-05
   Converg. threshold II (energy diff.) ....   1.000e-08
   Grad. Scal. Fac. for Micro threshold ....   0.100
   Minimum threshold for Micro iter.    ....   0.010
   NR start threshold (gradient norm)   ....   0.001
   Initial trust radius                 ....   0.400
   Minimum AH scaling param. (alpha)    ....   1.000
   Maximum AH scaling param. (alpha)    .... 1000.000
   Orbital update algorithm             .... Taylor
   White noise on init. David. guess    .... on
   Maximum white noise                  ....   0.010
   Quad. conv. algorithm                .... NR
   COSX micro iterations for RIJONX calc.... off
 SOSCF                  CNVSOSCF        .... on
   Start iteration      SOSCFMaxIt      ....   150
   Startup grad/error   SOSCFStart      ....  0.003300
 Level Shifting         CNVShift        .... on
   Level shift para.    LevelShift      ....    0.2500
   Turn off err/grad.   ShiftErr        ....    0.0010
 Zerner damping         CNVZerner       .... off
 Static damping         CNVDamp         .... on
   Fraction old density DampFac         ....    0.7000
   Max. Damping (<1)    DampMax         ....    0.9800
   Min. Damping (>=0)   DampMin         ....    0.0000
   Turn off err/grad.   DampErr         ....    0.1000
 Fernandez-Rico         CNVRico         .... off

SCF Procedure:
 Maximum # iterations   MaxIter         ....   125
 SCF integral mode      SCFMode         .... Direct
   Integral package                     .... SHARK and LIBINT hybrid scheme
 Reset frequency        DirectResetFreq ....    20
 Integral Threshold     Thresh          ....  2.500e-11 Eh
 Primitive CutOff       TCut            ....  2.500e-12 Eh

Convergence Tolerance:
 Convergence Check Mode ConvCheckMode   .... Total+1el-Energy
 Convergence forced     ConvForced      .... 0
 Energy Change          TolE            ....  1.000e-08 Eh
 1-El. energy change                    ....  1.000e-05 Eh
 Orbital Gradient       TolG            ....  1.000e-05
 Orbital Rotation angle TolX            ....  1.000e-05
 DIIS Error             TolErr          ....  5.000e-07


Diagonalization of the overlap matrix:
Smallest eigenvalue                        ... 3.754e-04
Time for diagonalization                   ...    0.009 sec
Threshold for overlap eigenvalues          ... 1.000e-08
Number of eigenvalues below threshold      ... 0
Time for construction of square roots      ...    0.174 sec
Total time needed                          ...    0.183 sec

--------------------------------
INITIAL GUESS: MINIMAL BASIS EHT
--------------------------------
The minimal basis has 70 functions
EHT matrix was diagonalized
Basis set overlap was calculated now projecting the orbitals
Using GuessMode=FMatrix for the initial guess
C*T matrix was formed
Effective Fockian was calculated
Effective Fockian was diagonalized
Initial density was built
                      ------------------
                      INITIAL GUESS DONE
                      ------------------
-------------------
DFT GRID GENERATION
-------------------

General Integration Accuracy     IntAcc      ... 4.959
Radial Grid Type                 RadialGrid  ... OptM3 with GC (2021)
Angular Grid (max. ang.)         AngularGrid ... 6 (Lebedev-590)
Angular grid pruning method      GridPruning ... 4 (adaptive)
Weight generation scheme         WeightScheme... Becke
Basis function cutoff            BFCut       ... 1.0000e-11
Integration weight cutoff        WCut        ... 1.0000e-14
Angular grids for H and He will be reduced by one unit
Partially contracted basis set               ... off
Rotationally invariant grid construction     ... off

Total number of grid points                  ...   257156
Total number of batches                      ...     4034
Average number of points per batch           ...       63
Average number of grid points per atom       ...    11689
Time for grid setup =    5.716 sec

--------------------
COSX GRID GENERATION
--------------------

GRIDX 1
-------
General Integration Accuracy     IntAcc      ... 4.020
Radial Grid Type                 RadialGrid  ... OptM3 with GC (2021)
Angular Grid (max. ang.)         AngularGrid ... 2 (Lebedev-110)
Angular grid pruning method      GridPruning ... 4 (adaptive)
Weight generation scheme         WeightScheme... Becke
Basis function cutoff            BFCut       ... 1.0000e-11
Integration weight cutoff        WCut        ... 1.0000e-14
Angular grids for H and He will be reduced by one unit
Partially contracted basis set               ... on
Rotationally invariant grid construction     ... off

Total number of grid points                  ...    28916
Total number of batches                      ...      458
Average number of points per batch           ...       63
Average number of grid points per atom       ...     1314
UseSFitting                                  ... on

GRIDX 2
-------
General Integration Accuracy     IntAcc      ... 4.338
Radial Grid Type                 RadialGrid  ... OptM3 with GC (2021)
Angular Grid (max. ang.)         AngularGrid ... 3 (Lebedev-194)
Angular grid pruning method      GridPruning ... 4 (adaptive)
Weight generation scheme         WeightScheme... Becke
Basis function cutoff            BFCut       ... 1.0000e-11
Integration weight cutoff        WCut        ... 1.0000e-14
Angular grids for H and He will be reduced by one unit
Partially contracted basis set               ... on
Rotationally invariant grid construction     ... off

Total number of grid points                  ...    63346
Total number of batches                      ...     1000
Average number of points per batch           ...       63
Average number of grid points per atom       ...     2879
UseSFitting                                  ... on

GRIDX 3
-------
General Integration Accuracy     IntAcc      ... 4.871
Radial Grid Type                 RadialGrid  ... OptM3 with GC (2021)
Angular Grid (max. ang.)         AngularGrid ... 4 (Lebedev-302)
Angular grid pruning method      GridPruning ... 4 (adaptive)
Weight generation scheme         WeightScheme... Becke
Basis function cutoff            BFCut       ... 1.0000e-11
Integration weight cutoff        WCut        ... 1.0000e-14
Angular grids for H and He will be reduced by one unit
Partially contracted basis set               ... on
Rotationally invariant grid construction     ... off

Total number of grid points                  ...   119668
Total number of batches                      ...     1880
Average number of points per batch           ...       63
Average number of grid points per atom       ...     5439
UseSFitting                                  ... on

Time for X-Grid setup             =    5.744 sec

--------------
SCF ITERATIONS
--------------
ITER       Energy         Delta-E        Max-DP      RMS-DP      [F,P]     Damp
               ***  Starting incremental Fock matrix formation  ***
  0   -461.1457528046   0.000000000000 0.07183492  0.00355244  0.4115497 0.7000
  1   -461.4727163989  -0.326963594324 0.05365561  0.00261800  0.2905399 0.7000
  2   -461.7087747190  -0.236058320115 0.03909652  0.00193062  0.2039839 0.7000
                               ***Turning on DIIS***
  3   -461.8775403843  -0.168765665230 0.02829629  0.00142314  0.1432249 0.7000
  4   -461.9976573212  -0.120116936974 0.02135540  0.00111133  0.1005723 0.7000
  5   -462.0828909614  -0.085233640152 0.05121084  0.00274965  0.0705031 0.0000
                      *** Initiating the SOSCF procedure ***
                           *** Shutting down DIIS ***
                      *** Re-Reading the Fockian *** 
                      *** Removing any level shift *** 
ITER      Energy       Delta-E        Grad      Rot      Max-DP    RMS-DP
  6   -462.28630487  -0.2034139053  0.001702  0.001702  0.001771  0.000086
               *** Restarting incremental Fock matrix formation ***
  7   -462.28641320  -0.0001083379  0.000601  0.000780  0.000806  0.000042
  8   -462.28642377  -0.0000105651  0.000085  0.000338  0.000238  0.000011
  9   -462.28642403  -0.0000002614  0.000107  0.000170  0.000179  0.000005
 10   -462.28642420  -0.0000001676  0.000035  0.000063  0.000053  0.000003
 11   -462.28642421  -0.0000000164  0.000015  0.000024  0.000019  0.000001
 12   -462.28642423  -0.0000000151  0.000003  0.000007  0.000011  0.000000
                  ***Gradient check signals convergence***
              ***Rediagonalizing the Fockian in SOSCF/NRSCF***

               *****************************************************
               *                     SUCCESS                       *
               *           SCF CONVERGED AFTER  13 CYCLES          *
               *****************************************************

Old exchange energy                            =    -27.613857547 Eh
New exchange energy                            =    -27.613838790 Eh
Exchange energy change after final integration =      0.000018758 Eh
Total energy after final integration           =   -462.286405475 Eh
Final COS-X integration done in                =    10.569 sec

----------------
TOTAL SCF ENERGY
----------------

Total Energy       :         -462.28640547 Eh          -12579.45262 eV

Components:
Nuclear Repulsion  :          601.35158594 Eh           16363.60856 eV
Electronic Energy  :        -1063.63799141 Eh          -28943.06118 eV
One Electron Energy:        -1815.31678987 Eh          -49397.28116 eV
Two Electron Energy:          751.67879846 Eh           20454.21998 eV
Max COSX asymmetry :            0.00000127 Eh               0.00003 eV

Virial components:
Potential Energy   :         -920.83000180 Eh          -25057.05823 eV
Kinetic Energy     :          458.54359633 Eh           12477.60561 eV
Virial Ratio       :            2.00816238


DFT components:
N(Alpha)           :       40.999999081203 electrons
N(Beta)            :       40.999999081203 electrons
N(Total)           :       81.999998162407 electrons
E(X)               :      -36.660795373632 Eh       
E(C)               :       -3.548230973500 Eh       
E(XC)              :      -40.209026347131 Eh       
DFET-embed. en.    :        0.000000000000 Eh       

---------------
SCF CONVERGENCE
---------------

  Last Energy change         ...   -2.7956e-09  Tolerance :   1.0000e-08
  Last MAX-Density change    ...    1.5543e-15  Tolerance :   1.0000e-07
  Last RMS-Density change    ...    3.3189e-17  Tolerance :   5.0000e-09
  Last Orbital Gradient      ...    1.6067e-06  Tolerance :   1.0000e-05
  Last Orbital Rotation      ...    1.9925e-06  Tolerance :   1.0000e-05

             **** THE GBW FILE WAS UPDATED (pbeh-3c.gbw) ****
             **** DENSITY pbeh-3c.scfp WAS UPDATED ****
             **** ENERGY FILE WAS UPDATED (pbeh-3c.en.tmp) ****
             **** THE GBW FILE WAS UPDATED (pbeh-3c.gbw) ****
             **** DENSITY pbeh-3c.scfp WAS UPDATED ****
----------------
ORBITAL ENERGIES
----------------

  NO   OCC          E(Eh)            E(eV) 
   0   2.0000     -10.461474      -284.6712 
   1   2.0000     -10.461156      -284.6625 
   2   2.0000     -10.450119      -284.3622 
   3   2.0000     -10.450088      -284.3614 
   4   2.0000     -10.450017      -284.3594 
   5   2.0000     -10.450005      -284.3591 
   6   2.0000     -10.449329      -284.3407 
   7   2.0000     -10.449288      -284.3396 
   8   2.0000     -10.449230      -284.3380 
   9   2.0000     -10.449217      -284.3377 
  10   2.0000     -10.448814      -284.3267 
  11   2.0000     -10.448811      -284.3266 
  12   2.0000      -0.972845       -26.4725 
  13   2.0000      -0.948732       -25.8163 
  14   2.0000      -0.873019       -23.7560 
  15   2.0000      -0.843378       -22.9495 
  16   2.0000      -0.835265       -22.7287 
  17   2.0000      -0.811287       -22.0762 
  18   2.0000      -0.705370       -19.1941 
  19   2.0000      -0.698751       -19.0140 
  20   2.0000      -0.668939       -18.2028 
  21   2.0000      -0.654180       -17.8012 
  22   2.0000      -0.603949       -16.4343 
  23   2.0000      -0.567716       -15.4483 
  24   2.0000      -0.536558       -14.6005 
  25   2.0000      -0.530764       -14.4428 
  26   2.0000      -0.504833       -13.7372 
  27   2.0000      -0.501269       -13.6402 
  28   2.0000      -0.487114       -13.2550 
  29   2.0000      -0.482885       -13.1400 
  30   2.0000      -0.479059       -13.0359 
  31   2.0000      -0.435536       -11.8515 
  32   2.0000      -0.423693       -11.5293 
  33   2.0000      -0.415865       -11.3163 
  34   2.0000      -0.407263       -11.0822 
  35   2.0000      -0.392578       -10.6826 
  36   2.0000      -0.390017       -10.6129 
  37   2.0000      -0.321202        -8.7404 
  38   2.0000      -0.295819        -8.0497 
  39   2.0000      -0.295531        -8.0418 
  40   2.0000      -0.265771        -7.2320 
  41   0.0000      -0.011383        -0.3098 
  42   0.0000       0.014840         0.4038 
  43   0.0000       0.018721         0.5094 
  44   0.0000       0.050347         1.3700 
  45   0.0000       0.145254         3.9526 
  46   0.0000       0.146289         3.9807 
  47   0.0000       0.179283         4.8785 
  48   0.0000       0.179693         4.8897 
  49   0.0000       0.203833         5.5466 
  50   0.0000       0.212422         5.7803 
  51   0.0000       0.216074         5.8797 
  52   0.0000       0.217321         5.9136 
  53   0.0000       0.223571         6.0837 
  54   0.0000       0.235869         6.4183 
  55   0.0000       0.249941         6.8013 
  56   0.0000       0.260269         7.0823 
  57   0.0000       0.282714         7.6930 
  58   0.0000       0.298366         8.1190 
  59   0.0000       0.315610         8.5882 
  60   0.0000       0.323403         8.8003 
  61   0.0000       0.332463         9.0468 
  62   0.0000       0.338686         9.2161 
  63   0.0000       0.360672         9.8144 
  64   0.0000       0.367994        10.0136 
  65   0.0000       0.412119        11.2143 
  66   0.0000       0.432651        11.7730 
  67   0.0000       0.493350        13.4247 
  68   0.0000       0.525336        14.2951 
  69   0.0000       0.543330        14.7848 
  70   0.0000       0.550909        14.9910 
  71   0.0000       0.556127        15.1330 
  72   0.0000       0.562028        15.2935 
  73   0.0000       0.581665        15.8279 
  74   0.0000       0.585322        15.9274 
  75   0.0000       0.591211        16.0877 
  76   0.0000       0.603880        16.4324 
  77   0.0000       0.609565        16.5871 
  78   0.0000       0.611471        16.6390 
  79   0.0000       0.619802        16.8657 
  80   0.0000       0.620117        16.8742 
  81   0.0000       0.630794        17.1648 
  82   0.0000       0.634239        17.2585 
  83   0.0000       0.636705        17.3256 
  84   0.0000       0.657387        17.8884 
  85   0.0000       0.658097        17.9077 
  86   0.0000       0.670683        18.2502 
  87   0.0000       0.679473        18.4894 
  88   0.0000       0.695220        18.9179 
  89   0.0000       0.699091        19.0232 
  90   0.0000       0.702228        19.1086 
  91   0.0000       0.715886        19.4803 
  92   0.0000       0.742207        20.1965 
  93   0.0000       0.746091        20.3022 
  94   0.0000       0.777339        21.1525 
  95   0.0000       0.779266        21.2049 
  96   0.0000       0.833789        22.6885 
  97   0.0000       0.913878        24.8679 
  98   0.0000       0.941206        25.6115 
  99   0.0000       0.945416        25.7261 
 100   0.0000       0.949732        25.8435 
 101   0.0000       0.956913        26.0389 
 102   0.0000       0.967240        26.3199 
 103   0.0000       0.971355        26.4319 
 104   0.0000       0.995012        27.0757 
 105   0.0000       1.007007        27.4020 
 106   0.0000       1.010601        27.4998 
 107   0.0000       1.027349        27.9556 
 108   0.0000       1.040129        28.3033 
 109   0.0000       1.050925        28.5971 
 110   0.0000       1.062349        28.9080 
 111   0.0000       1.078984        29.3606 
 112   0.0000       1.093678        29.7605 
 113   0.0000       1.103007        30.0143 
 114   0.0000       1.105961        30.0947 
 115   0.0000       1.110723        30.2243 
 116   0.0000       1.133489        30.8438 
 117   0.0000       1.157298        31.4917 
 118   0.0000       1.177180        32.0327 
 119   0.0000       1.215765        33.0826 
 120   0.0000       1.227621        33.4053 
 121   0.0000       1.258174        34.2367 
 122   0.0000       1.301808        35.4240 
 123   0.0000       1.304254        35.4905 
 124   0.0000       1.315437        35.7949 
 125   0.0000       1.340135        36.4669 
 126   0.0000       1.392009        37.8785 
 127   0.0000       1.397283        38.0220 
 128   0.0000       1.487886        40.4874 
 129   0.0000       1.490944        40.5707 
 130   0.0000       1.542067        41.9618 
 131   0.0000       1.544323        42.0232 
 132   0.0000       1.546359        42.0786 
 133   0.0000       1.547907        42.1207 
 134   0.0000       1.559824        42.4450 
 135   0.0000       1.561887        42.5011 
 136   0.0000       1.586509        43.1711 
 137   0.0000       1.605791        43.6958 
 138   0.0000       1.640695        44.6456 
 139   0.0000       1.773640        48.2632 
 140   0.0000       1.823419        49.6177 
 141   0.0000       1.841327        50.1050 
 142   0.0000       1.865129        50.7527 
 143   0.0000       1.873219        50.9729 
 144   0.0000       1.902395        51.7668 
 145   0.0000       1.981895        53.9301 
 146   0.0000       1.998544        54.3831 
 147   0.0000       2.055500        55.9330 
 148   0.0000       2.075727        56.4834 
 149   0.0000       2.086924        56.7881 
 150   0.0000       2.128604        57.9223 
 151   0.0000       2.131867        58.0111 
 152   0.0000       2.136833        58.1462 
 153   0.0000       2.174497        59.1711 
 154   0.0000       2.179107        59.2965 
 155   0.0000       2.186313        59.4926 
 156   0.0000       2.208808        60.1047 
 157   0.0000       2.212633        60.2088 
 158   0.0000       2.236974        60.8712 
 159   0.0000       2.264217        61.6125 
 160   0.0000       2.284039        62.1519 
 161   0.0000       2.340847        63.6977 
 162   0.0000       2.347550        63.8801 
 163   0.0000       2.358599        64.1807 
 164   0.0000       2.375395        64.6378 
 165   0.0000       2.379697        64.7548 
 166   0.0000       2.381338        64.7995 
 167   0.0000       2.470834        67.2348 
 168   0.0000       2.547424        69.3189 
 169   0.0000       2.609916        71.0194 
 170   0.0000       2.628022        71.5121 
 171   0.0000       2.675740        72.8106 
 172   0.0000       2.701215        73.5038 
 173   0.0000       2.711770        73.7910 
 174   0.0000       2.730055        74.2886 
 175   0.0000       2.753783        74.9342 
 176   0.0000       2.762886        75.1820 
 177   0.0000       2.791054        75.9484 
 178   0.0000       2.793540        76.0161 
 179   0.0000       2.830480        77.0213 
 180   0.0000       2.839648        77.2707 
 181   0.0000       2.840996        77.3074 
 182   0.0000       2.890155        78.6451 
 183   0.0000       2.996905        81.5499 
 184   0.0000       3.030965        82.4767 
 185   0.0000       3.261217        88.7422 
 186   0.0000       3.418024        93.0092 
 187   0.0000       3.534629        96.1821 
 188   0.0000      13.185374       358.7923 
 189   0.0000      13.382242       364.1493 
 190   0.0000      13.633797       370.9945 
 191   0.0000      13.639481       371.1491 
 192   0.0000      13.678453       372.2096 
 193   0.0000      13.828111       376.2820 
 194   0.0000      14.095421       383.5559 
 195   0.0000      14.133317       384.5871 
 196   0.0000      14.148233       384.9930 
 197   0.0000      14.167156       385.5079 
 198   0.0000      14.546354       395.8264 
 199   0.0000      14.567861       396.4116 

                    ********************************
                    * MULLIKEN POPULATION ANALYSIS *
                    ********************************

-----------------------
MULLIKEN ATOMIC CHARGES
-----------------------
   0 C :    0.106467
   1 C :   -0.283677
   2 C :   -0.203882
   3 C :   -0.233319
   4 C :   -0.203882
   5 C :   -0.283677
   6 C :    0.106470
   7 C :   -0.283678
   8 C :   -0.203881
   9 C :   -0.233320
  10 C :   -0.203881
  11 C :   -0.283678
  12 H :    0.220768
  13 H :    0.219958
  14 H :    0.220517
  15 H :    0.219958
  16 H :    0.220768
  17 H :    0.220767
  18 H :    0.219958
  19 H :    0.220517
  20 H :    0.219958
  21 H :    0.220767
Sum of atomic charges:   -0.0000000

--------------------------------
MULLIKEN REDUCED ORBITAL CHARGES
--------------------------------
  0 C s       :     3.205035  s :     3.205035
      pz      :     0.802336  p :     2.642642
      px      :     0.879300
      py      :     0.961006
      dz2     :     0.012421  d :     0.045856
      dxz     :     0.013231
      dyz     :     0.007262
      dx2y2   :     0.006484
      dxy     :     0.006460
  1 C s       :     3.281236  s :     3.281236
      pz      :     0.944762  p :     2.962965
      px      :     1.022158
      py      :     0.996045
      dz2     :     0.009617  d :     0.039475
      dxz     :     0.013520
      dyz     :     0.006802
      dx2y2   :     0.004928
      dxy     :     0.004608
  2 C s       :     3.242410  s :     3.242410
      pz      :     0.933091  p :     2.921446
      px      :     0.996213
      py      :     0.992141
      dz2     :     0.009876  d :     0.040026
      dxz     :     0.013448
      dyz     :     0.006922
      dx2y2   :     0.005128
      dxy     :     0.004652
  3 C s       :     3.250898  s :     3.250898
      pz      :     1.047206  p :     2.942581
      px      :     0.914238
      py      :     0.981138
      dz2     :     0.013299  d :     0.039840
      dxz     :     0.010260
      dyz     :     0.003346
      dx2y2   :     0.006396
      dxy     :     0.006539
  4 C s       :     3.242410  s :     3.242410
      pz      :     0.933091  p :     2.921446
      px      :     0.996214
      py      :     0.992141
      dz2     :     0.009876  d :     0.040026
      dxz     :     0.013448
      dyz     :     0.006922
      dx2y2   :     0.005128
      dxy     :     0.004652
  5 C s       :     3.281236  s :     3.281236
      pz      :     0.944762  p :     2.962966
      px      :     1.022159
      py      :     0.996045
      dz2     :     0.009617  d :     0.039475
      dxz     :     0.013520
      dyz     :     0.006802
      dx2y2   :     0.004928
      dxy     :     0.004608
  6 C s       :     3.205034  s :     3.205034
      pz      :     0.802334  p :     2.642640
      px      :     0.879300
      py      :     0.961006
      dz2     :     0.012421  d :     0.045856
      dxz     :     0.013231
      dyz     :     0.007262
      dx2y2   :     0.006484
      dxy     :     0.006460
  7 C s       :     3.281237  s :     3.281237
      pz      :     0.944762  p :     2.962965
      px      :     1.022158
      py      :     0.996045
      dz2     :     0.009617  d :     0.039475
      dxz     :     0.013520
      dyz     :     0.006802
      dx2y2   :     0.004928
      dxy     :     0.004608
  8 C s       :     3.242410  s :     3.242410
      pz      :     0.933091  p :     2.921445
      px      :     0.996213
      py      :     0.992141
      dz2     :     0.009876  d :     0.040026
      dxz     :     0.013448
      dyz     :     0.006922
      dx2y2   :     0.005128
      dxy     :     0.004652
  9 C s       :     3.250899  s :     3.250899
      pz      :     1.047206  p :     2.942581
      px      :     0.914238
      py      :     0.981138
      dz2     :     0.013299  d :     0.039840
      dxz     :     0.010260
      dyz     :     0.003346
      dx2y2   :     0.006396
      dxy     :     0.006539
 10 C s       :     3.242410  s :     3.242410
      pz      :     0.933091  p :     2.921445
      px      :     0.996213
      py      :     0.992141
      dz2     :     0.009876  d :     0.040026
      dxz     :     0.013448
      dyz     :     0.006922
      dx2y2   :     0.005128
      dxy     :     0.004652
 11 C s       :     3.281238  s :     3.281238
      pz      :     0.944762  p :     2.962965
      px      :     1.022158
      py      :     0.996045
      dz2     :     0.009617  d :     0.039475
      dxz     :     0.013520
      dyz     :     0.006802
      dx2y2   :     0.004928
      dxy     :     0.004608
 12 H s       :     0.779232  s :     0.779232
 13 H s       :     0.780042  s :     0.780042
 14 H s       :     0.779483  s :     0.779483
 15 H s       :     0.780042  s :     0.780042
 16 H s       :     0.779232  s :     0.779232
 17 H s       :     0.779233  s :     0.779233
 18 H s       :     0.780042  s :     0.780042
 19 H s       :     0.779483  s :     0.779483
 20 H s       :     0.780042  s :     0.780042
 21 H s       :     0.779233  s :     0.779233


                     *******************************
                     * LOEWDIN POPULATION ANALYSIS *
                     *******************************

----------------------
LOEWDIN ATOMIC CHARGES
----------------------
   0 C :   -0.035032
   1 C :   -0.127198
   2 C :   -0.131200
   3 C :   -0.136320
   4 C :   -0.131200
   5 C :   -0.127198
   6 C :   -0.035032
   7 C :   -0.127198
   8 C :   -0.131200
   9 C :   -0.136320
  10 C :   -0.131200
  11 C :   -0.127198
  12 H :    0.138957
  13 H :    0.136888
  14 H :    0.136460
  15 H :    0.136888
  16 H :    0.138957
  17 H :    0.138957
  18 H :    0.136888
  19 H :    0.136460
  20 H :    0.136888
  21 H :    0.138957

-------------------------------
LOEWDIN REDUCED ORBITAL CHARGES
-------------------------------
  0 C s       :     2.839724  s :     2.839724
      pz      :     1.036648  p :     3.085119
      px      :     1.075761
      py      :     0.972711
      dz2     :     0.031376  d :     0.110189
      dxz     :     0.034494
      dyz     :     0.014835
      dx2y2   :     0.015072
      dxy     :     0.014413
  1 C s       :     2.889117  s :     2.889117
      pz      :     1.082187  p :     3.148818
      px      :     1.064273
      py      :     1.002357
      dz2     :     0.025263  d :     0.089263
      dxz     :     0.032591
      dyz     :     0.014280
      dx2y2   :     0.008965
      dxy     :     0.008163
  2 C s       :     2.891005  s :     2.891005
      pz      :     1.087772  p :     3.149344
      px      :     1.070653
      py      :     0.990919
      dz2     :     0.025933  d :     0.090851
      dxz     :     0.032364
      dyz     :     0.014706
      dx2y2   :     0.009409
      dxy     :     0.008438
  3 C s       :     2.892430  s :     2.892430
      pz      :     1.078696  p :     3.153725
      px      :     1.079438
      py      :     0.995591
      dz2     :     0.027492  d :     0.090166
      dxz     :     0.026484
      dyz     :     0.006353
      dx2y2   :     0.015076
      dxy     :     0.014761
  4 C s       :     2.891005  s :     2.891005
      pz      :     1.087772  p :     3.149344
      px      :     1.070653
      py      :     0.990919
      dz2     :     0.025933  d :     0.090851
      dxz     :     0.032364
      dyz     :     0.014706
      dx2y2   :     0.009409
      dxy     :     0.008438
  5 C s       :     2.889117  s :     2.889117
      pz      :     1.082187  p :     3.148818
      px      :     1.064273
      py      :     1.002357
      dz2     :     0.025263  d :     0.089263
      dxz     :     0.032591
      dyz     :     0.014280
      dx2y2   :     0.008965
      dxy     :     0.008163
  6 C s       :     2.839724  s :     2.839724
      pz      :     1.036648  p :     3.085119
      px      :     1.075761
      py      :     0.972711
      dz2     :     0.031376  d :     0.110189
      dxz     :     0.034494
      dyz     :     0.014835
      dx2y2   :     0.015072
      dxy     :     0.014413
  7 C s       :     2.889117  s :     2.889117
      pz      :     1.082187  p :     3.148818
      px      :     1.064273
      py      :     1.002357
      dz2     :     0.025263  d :     0.089263
      dxz     :     0.032591
      dyz     :     0.014280
      dx2y2   :     0.008965
      dxy     :     0.008163
  8 C s       :     2.891005  s :     2.891005
      pz      :     1.087772  p :     3.149344
      px      :     1.070653
      py      :     0.990919
      dz2     :     0.025933  d :     0.090851
      dxz     :     0.032364
      dyz     :     0.014706
      dx2y2   :     0.009409
      dxy     :     0.008438
  9 C s       :     2.892430  s :     2.892430
      pz      :     1.078696  p :     3.153725
      px      :     1.079438
      py      :     0.995591
      dz2     :     0.027492  d :     0.090166
      dxz     :     0.026484
      dyz     :     0.006353
      dx2y2   :     0.015076
      dxy     :     0.014761
 10 C s       :     2.891005  s :     2.891005
      pz      :     1.087772  p :     3.149344
      px      :     1.070653
      py      :     0.990919
      dz2     :     0.025933  d :     0.090851
      dxz     :     0.032364
      dyz     :     0.014706
      dx2y2   :     0.009409
      dxy     :     0.008438
 11 C s       :     2.889117  s :     2.889117
      pz      :     1.082187  p :     3.148818
      px      :     1.064273
      py      :     1.002357
      dz2     :     0.025263  d :     0.089263
      dxz     :     0.032591
      dyz     :     0.014280
      dx2y2   :     0.008965
      dxy     :     0.008163
 12 H s       :     0.861043  s :     0.861043
 13 H s       :     0.863112  s :     0.863112
 14 H s       :     0.863540  s :     0.863540
 15 H s       :     0.863112  s :     0.863112
 16 H s       :     0.861043  s :     0.861043
 17 H s       :     0.861043  s :     0.861043
 18 H s       :     0.863112  s :     0.863112
 19 H s       :     0.863540  s :     0.863540
 20 H s       :     0.863112  s :     0.863112
 21 H s       :     0.861043  s :     0.861043


                      *****************************
                      * MAYER POPULATION ANALYSIS *
                      *****************************

  NA   - Mulliken gross atomic population
  ZA   - Total nuclear charge
  QA   - Mulliken gross atomic charge
  VA   - Mayer's total valence
  BVA  - Mayer's bonded valence
  FA   - Mayer's free valence

  ATOM       NA         ZA         QA         VA         BVA        FA
  0 C      5.8935     6.0000     0.1065     3.7045     3.7045     0.0000
  1 C      6.2837     6.0000    -0.2837     3.8065     3.8065    -0.0000
  2 C      6.2039     6.0000    -0.2039     3.8143     3.8143    -0.0000
  3 C      6.2333     6.0000    -0.2333     3.8239     3.8239    -0.0000
  4 C      6.2039     6.0000    -0.2039     3.8143     3.8143    -0.0000
  5 C      6.2837     6.0000    -0.2837     3.8065     3.8065    -0.0000
  6 C      5.8935     6.0000     0.1065     3.7045     3.7045     0.0000
  7 C      6.2837     6.0000    -0.2837     3.8065     3.8065     0.0000
  8 C      6.2039     6.0000    -0.2039     3.8143     3.8143    -0.0000
  9 C      6.2333     6.0000    -0.2333     3.8239     3.8239    -0.0000
 10 C      6.2039     6.0000    -0.2039     3.8143     3.8143    -0.0000
 11 C      6.2837     6.0000    -0.2837     3.8065     3.8065    -0.0000
 12 H      0.7792     1.0000     0.2208     0.9153     0.9153    -0.0000
 13 H      0.7800     1.0000     0.2200     0.9115     0.9115    -0.0000
 14 H      0.7795     1.0000     0.2205     0.9116     0.9116     0.0000
 15 H      0.7800     1.0000     0.2200     0.9115     0.9115    -0.0000
 16 H      0.7792     1.0000     0.2208     0.9153     0.9153    -0.0000
 17 H      0.7792     1.0000     0.2208     0.9153     0.9153     0.0000
 18 H      0.7800     1.0000     0.2200     0.9115     0.9115    -0.0000
 19 H      0.7795     1.0000     0.2205     0.9116     0.9116    -0.0000
 20 H      0.7800     1.0000     0.2200     0.9115     0.9115    -0.0000
 21 H      0.7792     1.0000     0.2208     0.9153     0.9153    -0.0000

  Mayer bond orders larger than 0.100000
B(  0-C ,  1-C ) :   1.3794 B(  0-C ,  5-C ) :   1.3794 B(  0-C ,  6-C ) :   0.9827 
B(  1-C ,  2-C ) :   1.4320 B(  1-C , 12-H ) :   0.9184 B(  2-C ,  3-C ) :   1.4209 
B(  2-C , 13-H ) :   0.9199 B(  3-C ,  4-C ) :   1.4209 B(  3-C , 14-H ) :   0.9190 
B(  4-C ,  5-C ) :   1.4320 B(  4-C , 15-H ) :   0.9199 B(  5-C , 16-H ) :   0.9184 
B(  6-C ,  7-C ) :   1.3794 B(  6-C , 11-C ) :   1.3793 B(  7-C ,  8-C ) :   1.4320 
B(  7-C , 17-H ) :   0.9184 B(  8-C ,  9-C ) :   1.4209 B(  8-C , 18-H ) :   0.9199 
B(  9-C , 10-C ) :   1.4209 B(  9-C , 19-H ) :   0.9190 B( 10-C , 11-C ) :   1.4320 
B( 10-C , 20-H ) :   0.9199 B( 11-C , 21-H ) :   0.9184 

-------
TIMINGS
-------

Total SCF time: 0 days 0 hours 2 min 20 sec 

Total time                  ....     140.016 sec
Sum of individual times     ....     132.026 sec  ( 94.3%)

Fock matrix formation       ....     116.464 sec  ( 83.2%)
  Split-RI-J                ....      11.920 sec  ( 10.2% of F)
  Chain of spheres X        ....      65.440 sec  ( 56.2% of F)
  XC integration            ....      24.645 sec  ( 21.2% of F)
    Basis function eval.    ....       5.115 sec  ( 20.8% of XC)
    Density eval.           ....       3.307 sec  ( 13.4% of XC)
    XC-Functional eval.     ....       1.752 sec  (  7.1% of XC)
    XC-Potential eval.      ....       2.116 sec  (  8.6% of XC)
Diagonalization             ....       0.269 sec  (  0.2%)
Density matrix formation    ....       0.107 sec  (  0.1%)
Population analysis         ....       0.668 sec  (  0.5%)
Initial guess               ....       0.136 sec  (  0.1%)
Orbital Transformation      ....       0.000 sec  (  0.0%)
Orbital Orthonormalization  ....       0.000 sec  (  0.0%)
DIIS solution               ....       0.896 sec  (  0.6%)
SOSCF solution              ....       2.025 sec  (  1.4%)
Grid generation             ....      11.461 sec  (  8.2%)

Maximum memory used throughout the entire SCF-calculation: 63.9 MB


-------------------------------------------------------------------------------
                          DFT DISPERSION CORRECTION                            
                                                                               
                              DFTD3 V3.1  Rev 1                                
                          USING Becke-Johnson damping                          
-------------------------------------------------------------------------------
The PBEh-3c composite method is recognized
Using three-body term ABC
Active option DFTDOPT                   ...         4   

molecular C6(AA) [au] = 6052.665585 


            DFT-D V3
 parameters
 s6 scaling factor         :     1.0000 
 a1 scaling factor         :     0.4860 
 s8 scaling factor         :     0.0000 
 a2 scaling factor         :     4.5000 
 Damping factor alpha9(ATM):    16.0000 
 ad hoc parameters k1-k3   :    16.0000     1.3333    -4.0000 

 Edisp/kcal,au: -9.066023325483  -0.014447626264 
 E6   /kcal   :  -9.065694502 
 E8   /kcal   :  -0.000000000 
 E6(ABC)      :  -0.000328823 
 % E8         :   0.000000000 
 % E6(ABC)    :   0.003626983 

-------------------------   ----------------
Dispersion correction           -0.014447626
-------------------------   ----------------

------------------   -----------------
gCP correction             0.029026045
------------------   -----------------

-------------------------   --------------------
FINAL SINGLE POINT ENERGY      -462.271827055890
-------------------------   --------------------


                            ***************************************
                            *     ORCA property calculations      *
                            ***************************************

                                    ---------------------
                                    Active property flags
                                    ---------------------
   (+) Dipole Moment


------------------------------------------------------------------------------
                       ORCA ELECTRIC PROPERTIES CALCULATION
------------------------------------------------------------------------------

Dipole Moment Calculation                       ... on
Quadrupole Moment Calculation                   ... off
Polarizability Calculation                      ... off
GBWName                                         ... pbeh-3c.gbw
Electron density                                ... pbeh-3c.scfp
The origin for moment calculation is the CENTER OF MASS  = ( 0.000000,  0.000000  0.000000)

-------------
DIPOLE MOMENT
-------------
                                X             Y             Z
Electronic contribution:     -0.00000       0.00000       0.00000
Nuclear contribution   :      0.00000       0.00000      -0.00000
                        -----------------------------------------
Total Dipole Moment    :     -0.00000       0.00000       0.00000
                        -----------------------------------------
Magnitude (a.u.)       :      0.00000
Magnitude (Debye)      :      0.00000



--------------------
Rotational spectrum 
--------------------
 
Rotational constants in cm-1:     0.096098     0.018341     0.015975 
Rotational constants in MHz :  2880.950022   549.843791   478.932782 

 Dipole components along the rotational axes: 
x,y,z [a.u.] :     0.000000     0.000000    -0.000000 
x,y,z [Debye]:     0.000000     0.000000    -0.000000 

 

Timings for individual modules:

Sum of individual times         ...      144.776 sec (=   2.413 min)
GTO integral calculation        ...        3.651 sec (=   0.061 min)   2.5 %
SCF iterations                  ...      141.126 sec (=   2.352 min)  97.5 %
                             ****ORCA TERMINATED NORMALLY****
TOTAL RUN TIME: 0 days 0 hours 2 minutes 33 seconds 83 msec
