
                                 *****************
                                 * O   R   C   A *
                                 *****************

                                            #,                                       
                                            ###                                      
                                            ####                                     
                                            #####                                    
                                            ######                                   
                                           ########,                                 
                                     ,,################,,,,,                         
                               ,,#################################,,                 
                          ,,##########################################,,             
                       ,#########################################, ''#####,          
                    ,#############################################,,   '####,        
                  ,##################################################,,,,####,       
                ,###########''''           ''''###############################       
              ,#####''   ,,,,##########,,,,          '''####'''          '####       
            ,##' ,,,,###########################,,,                        '##       
           ' ,,###''''                  '''############,,,                           
         ,,##''                                '''############,,,,        ,,,,,,###''
      ,#''                                            '''#######################'''  
     '                                                          ''''####''''         
             ,#######,   #######,   ,#######,      ##                                
            ,#'     '#,  ##    ##  ,#'     '#,    #''#        ######   ,####,        
            ##       ##  ##   ,#'  ##            #'  '#       #        #'  '#        
            ##       ##  #######   ##           ,######,      #####,   #    #        
            '#,     ,#'  ##    ##  '#,     ,#' ,#      #,         ##   #,  ,#        
             '#######'   ##     ##  '#######'  #'      '#     #####' # '####'        



                  #######################################################
                  #                        -***-                        #
                  #          Department of theory and spectroscopy      #
                  #    Directorship and core code : Frank Neese         #
                  #        Max Planck Institute fuer Kohlenforschung    #
                  #                Kaiser Wilhelm Platz 1               #
                  #                 D-45470 Muelheim/Ruhr               #
                  #                      Germany                        #
                  #                                                     #
                  #                  All rights reserved                #
                  #                        -***-                        #
                  #######################################################


                         Program Version 5.0.3 -  RELEASE  -


 With contributions from (in alphabetic order):
   Daniel Aravena         : Magnetic Suceptibility
   Michael Atanasov       : Ab Initio Ligand Field Theory (pilot matlab implementation)
   Alexander A. Auer      : GIAO ZORA, VPT2 properties, NMR spectrum
   Ute Becker             : Parallelization
   Giovanni Bistoni       : ED, misc. LED, open-shell LED, HFLD
   Martin Brehm           : Molecular dynamics
   Dmytro Bykov           : SCF Hessian
   Vijay G. Chilkuri      : MRCI spin determinant printing, contributions to CSF-ICE
   Dipayan Datta          : RHF DLPNO-CCSD density
   Achintya Kumar Dutta   : EOM-CC, STEOM-CC
   Dmitry Ganyushin       : Spin-Orbit,Spin-Spin,Magnetic field MRCI
   Miquel Garcia          : C-PCM and meta-GGA Hessian, CC/C-PCM, Gaussian charge scheme
   Yang Guo               : DLPNO-NEVPT2, F12-NEVPT2, CIM, IAO-localization
   Andreas Hansen         : Spin unrestricted coupled pair/coupled cluster methods
   Benjamin Helmich-Paris : MC-RPA, TRAH-SCF, COSX integrals
   Lee Huntington         : MR-EOM, pCC
   Robert Izsak           : Overlap fitted RIJCOSX, COSX-SCS-MP3, EOM
   Marcus Kettner         : VPT2
   Christian Kollmar      : KDIIS, OOCD, Brueckner-CCSD(T), CCSD density, CASPT2, CASPT2-K
   Simone Kossmann        : Meta GGA functionals, TD-DFT gradient, OOMP2, MP2 Hessian
   Martin Krupicka        : Initial AUTO-CI
   Lucas Lang             : DCDCAS
   Marvin Lechner         : AUTO-CI (C++ implementation), FIC-MRCC
   Dagmar Lenk            : GEPOL surface, SMD
   Dimitrios Liakos       : Extrapolation schemes; Compound Job, initial MDCI parallelization
   Dimitrios Manganas     : Further ROCIS development; embedding schemes
   Dimitrios Pantazis     : SARC Basis sets
   Anastasios Papadopoulos: AUTO-CI, single reference methods and gradients
   Taras Petrenko         : DFT Hessian,TD-DFT gradient, ASA, ECA, R-Raman, ABS, FL, XAS/XES, NRVS
   Peter Pinski           : DLPNO-MP2, DLPNO-MP2 Gradient
   Christoph Reimann      : Effective Core Potentials
   Marius Retegan         : Local ZFS, SOC
   Christoph Riplinger    : Optimizer, TS searches, QM/MM, DLPNO-CCSD(T), (RO)-DLPNO pert. Triples
   Tobias Risthaus        : Range-separated hybrids, TD-DFT gradient, RPA, STAB
   Michael Roemelt        : Original ROCIS implementation
   Masaaki Saitow         : Open-shell DLPNO-CCSD energy and density
   Barbara Sandhoefer     : DKH picture change effects
   Avijit Sen             : IP-ROCIS
   Kantharuban Sivalingam : CASSCF convergence, NEVPT2, FIC-MRCI
   Bernardo de Souza      : ESD, SOC TD-DFT
   Georgi Stoychev        : AutoAux, RI-MP2 NMR, DLPNO-MP2 response
   Willem Van den Heuvel  : Paramagnetic NMR
   Boris Wezisla          : Elementary symmetry handling
   Frank Wennmohs         : Technical directorship


 We gratefully acknowledge several colleagues who have allowed us to
 interface, adapt or use parts of their codes:
   Stefan Grimme, W. Hujo, H. Kruse, P. Pracht,  : VdW corrections, initial TS optimization,
                  C. Bannwarth, S. Ehlert          DFT functionals, gCP, sTDA/sTD-DF
   Ed Valeev, F. Pavosevic, A. Kumar             : LibInt (2-el integral package), F12 methods
   Garnet Chan, S. Sharma, J. Yang, R. Olivares  : DMRG
   Ulf Ekstrom                                   : XCFun DFT Library
   Mihaly Kallay                                 : mrcc  (arbitrary order and MRCC methods)
   Jiri Pittner, Ondrej Demel                    : Mk-CCSD
   Frank Weinhold                                : gennbo (NPA and NBO analysis)
   Christopher J. Cramer and Donald G. Truhlar   : smd solvation model
   Lars Goerigk                                  : TD-DFT with DH, B97 family of functionals
   V. Asgeirsson, H. Jonsson                     : NEB implementation
   FAccTs GmbH                                   : IRC, NEB, NEB-TS, DLPNO-Multilevel, CI-OPT
                                                   MM, QMMM, 2- and 3-layer-ONIOM, Crystal-QMMM,
                                                   LR-CPCM, SF, NACMEs, symmetry and pop. for TD-DFT,
                                                   nearIR, NL-DFT gradient (VV10), updates on ESD,
                                                   ML-optimized integration grids
   S Lehtola, MJT Oliveira, MAL Marques          : LibXC Library
   Liviu Ungur et al                             : ANISO software


 Your calculation uses the libint2 library for the computation of 2-el integrals
 For citations please refer to: http://libint.valeyev.net

 Your ORCA version has been built with support for libXC version: 5.1.0
 For citations please refer to: https://tddft.org/programs/libxc/

 This ORCA versions uses:
   CBLAS   interface :  Fast vector & matrix operations
   LAPACKE interface :  Fast linear algebra routines
   SCALAPACK package :  Parallel linear algebra routines
   Shared memory     :  Shared parallel matrices
   BLAS/LAPACK       :  OpenBLAS 0.3.15  USE64BITINT DYNAMIC_ARCH NO_AFFINITY Haswell SINGLE_THREADED
        Core in use  :  Haswell
   Copyright (c) 2011-2014, The OpenBLAS Project




***************************************
The coordinates will be read from file: i6p.xyz
***************************************


Your calculation utilizes the geometrical counterpoise correction gCP
Please cite in your paper:
H.Kruse, S. Grimme J.Chem.Phys., 136, (2012), 154101 
   

Your calculation utilizes the atom-pairwise dispersion correction
with the Becke-Johnson damping scheme (D3BJ)
Cite in your paper:
S.Grimme, S.Ehrlich, L.Goerigk, J Comput Chem, (2011), 32, 1456–1465 
S.Grimme, J.Antony, S.Ehrlich and H.Krieg, J.Chem.Phys., 132, (2010), 154104 
   

Your calculation employs the composite approach PBEh-3c.
Please cite in your paper:
S. Grimme, J. G. Brandenburg, C. Bannwarth, A. Hansen J.Chem.Phys., 143, (2015), 054107 
   

================================================================================

----- Orbital basis set information -----
Your calculation utilizes the basis: def2-mSVP

----- AuxJ basis set information -----
Your calculation utilizes the auxiliary basis: def2/J
   F. Weigend, Phys. Chem. Chem. Phys. 8, 1057 (2006).

================================================================================
                                        WARNINGS
                       Please study these warnings very carefully!
================================================================================


INFO   : the flag for use of the SHARK integral package has been found!

================================================================================
                                       INPUT FILE
================================================================================
NAME = pbeh-3c.inp
|  1> ! PBEh-3c def2/J TightSCF DefGrid3
|  2> 
|  3> %maxcore 60000
|  4> 
|  5> %pal
|  6> nprocs 4
|  7> end
|  8> 
|  9> *xyzfile 0 1 i6p.xyz
| 10> 
| 11>                          ****END OF INPUT****
================================================================================

                       ****************************
                       * Single Point Calculation *
                       ****************************

---------------------------------
CARTESIAN COORDINATES (ANGSTROEM)
---------------------------------
  C      0.825783    0.565518    1.345473
  C      1.726940    0.071720    0.453547
  C      2.979295    0.814677    0.173760
  C      3.638271    1.546383    1.182962
  C      4.797689    2.271534    0.903547
  C      5.332390    2.275650   -0.390113
  C      4.697066    1.544027   -1.399987
  C      3.538110    0.817895   -1.120882
  H      3.244993    1.521000    2.196992
  H      5.294317    2.822231    1.700630
  H      6.239951    2.835986   -0.606471
  H      5.104558    1.540687   -2.409468
  H      3.046252    0.255444   -1.910844
  C      1.507443   -1.183348   -0.313297
  C      0.309920   -1.423038   -1.034311
  C      0.119388   -2.644792   -1.705757
  C      1.110720   -3.621560   -1.685813
  C      2.305519   -3.389040   -0.989044
  C      2.496750   -2.180746   -0.318364
  N     -0.628214   -0.369611   -1.102560
  H     -0.808062   -2.791645   -2.252883
  H      0.961919   -4.558574   -2.219348
  H      3.087200   -4.146152   -0.975005
  H      3.421215   -1.997604    0.224833
  N     -1.832668   -0.730345   -1.177594
  C     -2.768138    0.336365   -1.255679
  C     -4.117766   -0.049212   -1.211723
  C     -5.125267    0.917214   -1.241578
  C     -4.789132    2.272972   -1.320013
  C     -3.440111    2.659896   -1.370380
  C     -2.430027    1.702644   -1.337392
  H     -4.350126   -1.109454   -1.141088
  H     -6.169945    0.614945   -1.201967
  H     -5.572353    3.028477   -1.345119
  H     -3.182415    3.715831   -1.434507
  H     -1.381108    1.983835   -1.367057
  H      1.023113    1.564877    1.736291
  C     -0.411645   -0.048670    1.834635
  C     -1.508685    0.784828    2.132287
  C     -2.725322    0.249139    2.555479
  C     -2.864530   -1.133658    2.712514
  C     -1.772563   -1.971814    2.453643
  C     -0.558773   -1.437432    2.024371
  H     -1.406983    1.860572    1.997689
  H     -3.567211    0.909818    2.753604
  H     -3.813087   -1.555359    3.039421
  H     -1.868147   -3.047605    2.589153
  H      0.283475   -2.094509    1.827415

----------------------------
CARTESIAN COORDINATES (A.U.)
----------------------------
  NO LB      ZA    FRAG     MASS         X           Y           Z
   0 C     6.0000    0    12.011    1.560504    1.068675    2.542575
   1 C     6.0000    0    12.011    3.263443    0.135530    0.857080
   2 C     6.0000    0    12.011    5.630052    1.539516    0.328360
   3 C     6.0000    0    12.011    6.875336    2.922240    2.235474
   4 C     6.0000    0    12.011    9.066318    4.292577    1.707457
   5 C     6.0000    0    12.011   10.076757    4.300356   -0.737207
   6 C     6.0000    0    12.011    8.876169    2.917788   -2.645592
   7 C     6.0000    0    12.011    6.686059    1.545598   -2.118160
   8 H     1.0000    0     1.008    6.132149    2.874273    4.151713
   9 H     1.0000    0     1.008   10.004809    5.333244    3.213724
  10 H     1.0000    0     1.008   11.791799    5.359237   -1.146065
  11 H     1.0000    0     1.008    9.646216    2.911477   -4.553235
  12 H     1.0000    0     1.008    5.756583    0.482718   -3.610971
  13 C     6.0000    0    12.011    2.848655   -2.236204   -0.592045
  14 C     6.0000    0    12.011    0.585664   -2.689152   -1.954565
  15 C     6.0000    0    12.011    0.225610   -4.997932   -3.223413
  16 C     6.0000    0    12.011    2.098956   -6.843757   -3.185725
  17 C     6.0000    0    12.011    4.356799   -6.404358   -1.869022
  18 C     6.0000    0    12.011    4.718174   -4.121012   -0.601622
  19 N     7.0000    0    14.007   -1.187152   -0.698465   -2.083536
  20 H     1.0000    0     1.008   -1.527016   -5.275445   -4.257332
  21 H     1.0000    0     1.008    1.817763   -8.614456   -4.193960
  22 H     1.0000    0     1.008    5.833963   -7.835091   -1.842492
  23 H     1.0000    0     1.008    6.465159   -3.774924    0.424873
  24 N     7.0000    0    14.007   -3.463240   -1.380151   -2.225331
  25 C     6.0000    0    12.011   -5.231023    0.635638   -2.372890
  26 C     6.0000    0    12.011   -7.781450   -0.092998   -2.289824
  27 C     6.0000    0    12.011   -9.685352    1.733283   -2.346243
  28 C     6.0000    0    12.011   -9.050148    4.295295   -2.494464
  29 C     6.0000    0    12.011   -6.500869    5.026475   -2.589643
  30 C     6.0000    0    12.011   -4.592086    3.217530   -2.527304
  31 H     1.0000    0     1.008   -8.220547   -2.096565   -2.156344
  32 H     1.0000    0     1.008  -11.659507    1.162078   -2.271388
  33 H     1.0000    0     1.008  -10.530221    5.722992   -2.541907
  34 H     1.0000    0     1.008   -6.013892    7.021903   -2.710825
  35 H     1.0000    0     1.008   -2.609917    3.748906   -2.583364
  36 H     1.0000    0     1.008    1.933404    2.957189    3.281114
  37 C     6.0000    0    12.011   -0.777896   -0.091973    3.466958
  38 C     6.0000    0    12.011   -2.851001    1.483109    4.029439
  39 C     6.0000    0    12.011   -5.150113    0.470805    4.829156
  40 C     6.0000    0    12.011   -5.413178   -2.142304    5.125908
  41 C     6.0000    0    12.011   -3.349658   -3.726189    4.636713
  42 C     6.0000    0    12.011   -1.055928   -2.716352    3.825508
  43 H     1.0000    0     1.008   -2.658813    3.515971    3.775085
  44 H     1.0000    0     1.008   -6.741053    1.719307    5.203558
  45 H     1.0000    0     1.008   -7.205690   -2.939202    5.743673
  46 H     1.0000    0     1.008   -3.530286   -5.759138    4.892790
  47 H     1.0000    0     1.008    0.535691   -3.958048    3.453314

--------------------------------
INTERNAL COORDINATES (ANGSTROEM)
--------------------------------
 C      0   0   0     0.000000000000     0.00000000     0.00000000
 C      1   0   0     1.360680618916     0.00000000     0.00000000
 C      2   1   0     1.482787961602   120.08021418     0.00000000
 C      3   2   1     1.410010896203   121.31137417    34.61306013
 C      4   3   2     1.395767021961   120.96677244   181.68236097
 C      5   4   3     1.399814205737   120.25386528   359.55761856
 C      6   5   4     1.399555296015   119.46633951   359.83180597
 C      7   6   5     1.395831629389   120.30304768     0.12213641
 H      4   3   2     1.087919606467   119.08284499     3.17717120
 H      5   4   3     1.088690681135   119.68018223   180.52168866
 H      6   5   4     1.088326220531   120.24991259   180.38829159
 H      7   6   5     1.088628847673   120.05233053   179.98762514
 H      8   7   6     1.087343505043   119.96073019   179.69416316
 C      2   1   3     1.487085203779   123.13072400   182.05442528
 C     14   2   1     1.418229706296   121.96700939    50.27960604
 C     15  14   2     1.407061979300   120.24438439   182.42853625
 C     16  15  14     1.391838342163   120.40275400   359.05174977
 C     17  16  15     1.402532691399   119.83646772     0.19429532
 C     18  17  16     1.395118729292   119.94574562     0.00000000
 N     15  14   2     1.412253341930   117.34894914     5.70590264
 H     16  15  14     1.086773137532   118.23780218   180.34247788
 H     17  16  15     1.088482882396   119.98242932   180.86841836
 H     18  17  16     1.088320144297   120.19473600   180.39871084
 H     19  18  17     1.087768026942   120.15727396   179.87252298
 N     20  15  14     1.259550790806   115.11728684   210.75542745
 C     25  20  15     1.420940797643   114.69705665   180.43893971
 C     26  25  20     1.404313746568   115.14241726   185.77924500
 C     27  26  25     1.396399157747   120.17949550   178.13592591
 C     28  27  26     1.399006649095   119.90318539     0.21441935
 C     29  28  27     1.404315890656   119.98839766     0.08470941
 C     30  29  28     1.392009790436   120.44668832   359.73960260
 H     27  26  25     1.087701009757   118.35765379   358.93741798
 H     28  27  26     1.088250034267   119.97369200   180.32749587
 H     29  28  27     1.088509361977   120.06809474   179.89832601
 H     30  29  28     1.088815227028   119.78018839   179.81060810
 H     31  30  29     1.086360483313   121.46494736   180.51734461
 H      1   2   3     1.091052579637   116.57868129     6.84209063
 C      1   2   3     1.465515413058   128.74906526   184.89427456
 C     38   1   2     1.409542804494   118.67416704   213.86955730
 C     39  38   1     1.395084451025   121.04697532   177.69818253
 C     40  39  38     1.398630513168   120.03277574     1.09580065
 C     41  40  39     1.400682925065   119.55584077     0.56187536
 C     42  41  40     1.393960243963   120.42108742   359.11486369
 H     39  38   1     1.088891806953   119.03802475   359.61485883
 H     40  39  38     1.088360068514   119.78340320   181.67019887
 H     41  40  39     1.088328623885   120.23603095   180.19536937
 H     42  41  40     1.088496120545   119.99597183   179.00393679
 H     43  42  41     1.086243120400   119.94058567   179.90215388

---------------------------
INTERNAL COORDINATES (A.U.)
---------------------------
 C      0   0   0     0.000000000000     0.00000000     0.00000000
 C      1   0   0     2.571313725486     0.00000000     0.00000000
 C      2   1   0     2.802063162103   120.08021418     0.00000000
 C      3   2   1     2.664534439669   121.31137417    34.61306013
 C      4   3   2     2.637617418266   120.96677244   181.68236097
 C      5   4   3     2.645265487216   120.25386528   359.55761856
 C      6   5   4     2.644776218748   119.46633951   359.83180597
 C      7   6   5     2.637739508611   120.30304768     0.12213641
 H      4   3   2     2.055870111947   119.08284499     3.17717120
 H      5   4   3     2.057327231896   119.68018223   180.52168866
 H      6   5   4     2.056638501170   120.24991259   180.38829159
 H      7   6   5     2.057210383588   120.05233053   179.98762514
 H      8   7   6     2.054781438028   119.96073019   179.69416316
 C      2   1   3     2.810183772949   123.13072400   182.05442528
 C     14   2   1     2.680065739891   121.96700939    50.27960604
 C     15  14   2     2.658961794331   120.24438439   182.42853625
 C     16  15  14     2.630193289380   120.40275400   359.05174977
 C     17  16  15     2.650402680616   119.83646772     0.19429532
 C     18  17  16     2.636392322667   119.94574562     0.00000000
 N     15  14   2     2.668772047962   117.34894914     5.70590264
 H     16  15  14     2.053703599637   118.23780218   180.34247788
 H     17  16  15     2.056934549189   119.98242932   180.86841836
 H     18  17  16     2.056627018751   120.19473600   180.39871084
 H     19  18  17     2.055583668156   120.15727396   179.87252298
 N     20  15  14     2.380206046386   115.11728684   210.75542745
 C     25  20  15     2.685188960061   114.69705665   180.43893971
 C     26  25  20     2.653768387115   115.14241726   185.77924500
 C     27  26  25     2.638811981779   120.17949550   178.13592591
 C     28  27  26     2.643739426324   119.90318539     0.21441935
 C     29  28  27     2.653772438854   119.98839766     0.08470941
 C     30  29  28     2.630517279661   120.44668832   359.73960260
 H     27  26  25     2.055457024031   118.35765379   358.93741798
 H     28  27  26     2.056494529995   119.97369200   180.32749587
 H     29  28  27     2.056984588347   120.06809474   179.89832601
 H     30  29  28     2.057562589526   119.78018839   179.81060810
 H     31  30  29     2.052923796175   121.46494736   180.51734461
 H      1   2   3     2.061790573222   116.57868129     6.84209063
 C      1   2   3     2.769422775720   128.74906526   184.89427456
 C     38   1   2     2.663649874533   118.67416704   213.86955730
 C     39  38   1     2.636327546129   121.04697532   177.69818253
 C     40  39  38     2.643028632433   120.03277574     1.09580065
 C     41  40  39     2.646907128832   119.55584077     0.56187536
 C     42  41  40     2.634203102663   120.42108742   359.11486369
 H     39  38   1     2.057707304612   119.03802475   359.61485883
 H     40  39  38     2.056702464586   119.78340320   181.67019887
 H     41  40  39     2.056643042850   120.23603095   180.19536937
 H     42  41  40     2.056959565665   119.99597183   179.00393679
 H     43  42  41     2.052702012412   119.94058567   179.90215388

---------------------
BASIS SET INFORMATION
---------------------
There are 3 groups of distinct atoms

 Group   1 Type C   : 8s4p1d contracted to 4s2p1d pattern {5111/31/1}
 Group   2 Type H   : 4s contracted to 2s pattern {31}
 Group   3 Type N   : 8s4p1d contracted to 4s2p1d pattern {5111/31/1}

Atom   0C    basis set group =>   1
Atom   1C    basis set group =>   1
Atom   2C    basis set group =>   1
Atom   3C    basis set group =>   1
Atom   4C    basis set group =>   1
Atom   5C    basis set group =>   1
Atom   6C    basis set group =>   1
Atom   7C    basis set group =>   1
Atom   8H    basis set group =>   2
Atom   9H    basis set group =>   2
Atom  10H    basis set group =>   2
Atom  11H    basis set group =>   2
Atom  12H    basis set group =>   2
Atom  13C    basis set group =>   1
Atom  14C    basis set group =>   1
Atom  15C    basis set group =>   1
Atom  16C    basis set group =>   1
Atom  17C    basis set group =>   1
Atom  18C    basis set group =>   1
Atom  19N    basis set group =>   3
Atom  20H    basis set group =>   2
Atom  21H    basis set group =>   2
Atom  22H    basis set group =>   2
Atom  23H    basis set group =>   2
Atom  24N    basis set group =>   3
Atom  25C    basis set group =>   1
Atom  26C    basis set group =>   1
Atom  27C    basis set group =>   1
Atom  28C    basis set group =>   1
Atom  29C    basis set group =>   1
Atom  30C    basis set group =>   1
Atom  31H    basis set group =>   2
Atom  32H    basis set group =>   2
Atom  33H    basis set group =>   2
Atom  34H    basis set group =>   2
Atom  35H    basis set group =>   2
Atom  36H    basis set group =>   2
Atom  37C    basis set group =>   1
Atom  38C    basis set group =>   1
Atom  39C    basis set group =>   1
Atom  40C    basis set group =>   1
Atom  41C    basis set group =>   1
Atom  42C    basis set group =>   1
Atom  43H    basis set group =>   2
Atom  44H    basis set group =>   2
Atom  45H    basis set group =>   2
Atom  46H    basis set group =>   2
Atom  47H    basis set group =>   2
---------------------------------
AUXILIARY/J BASIS SET INFORMATION
---------------------------------
There are 3 groups of distinct atoms

 Group   1 Type C   : 12s5p4d2f1g contracted to 6s4p3d1f1g pattern {711111/2111/211/2/1}
 Group   2 Type H   : 5s2p1d contracted to 3s1p1d pattern {311/2/1}
 Group   3 Type N   : 12s5p4d2f1g contracted to 6s4p3d1f1g pattern {711111/2111/211/2/1}

Atom   0C    basis set group =>   1
Atom   1C    basis set group =>   1
Atom   2C    basis set group =>   1
Atom   3C    basis set group =>   1
Atom   4C    basis set group =>   1
Atom   5C    basis set group =>   1
Atom   6C    basis set group =>   1
Atom   7C    basis set group =>   1
Atom   8H    basis set group =>   2
Atom   9H    basis set group =>   2
Atom  10H    basis set group =>   2
Atom  11H    basis set group =>   2
Atom  12H    basis set group =>   2
Atom  13C    basis set group =>   1
Atom  14C    basis set group =>   1
Atom  15C    basis set group =>   1
Atom  16C    basis set group =>   1
Atom  17C    basis set group =>   1
Atom  18C    basis set group =>   1
Atom  19N    basis set group =>   3
Atom  20H    basis set group =>   2
Atom  21H    basis set group =>   2
Atom  22H    basis set group =>   2
Atom  23H    basis set group =>   2
Atom  24N    basis set group =>   3
Atom  25C    basis set group =>   1
Atom  26C    basis set group =>   1
Atom  27C    basis set group =>   1
Atom  28C    basis set group =>   1
Atom  29C    basis set group =>   1
Atom  30C    basis set group =>   1
Atom  31H    basis set group =>   2
Atom  32H    basis set group =>   2
Atom  33H    basis set group =>   2
Atom  34H    basis set group =>   2
Atom  35H    basis set group =>   2
Atom  36H    basis set group =>   2
Atom  37C    basis set group =>   1
Atom  38C    basis set group =>   1
Atom  39C    basis set group =>   1
Atom  40C    basis set group =>   1
Atom  41C    basis set group =>   1
Atom  42C    basis set group =>   1
Atom  43H    basis set group =>   2
Atom  44H    basis set group =>   2
Atom  45H    basis set group =>   2
Atom  46H    basis set group =>   2
Atom  47H    basis set group =>   2


           ************************************************************
           *        Program running with 4 parallel MPI-processes     *
           *              working on a common directory               *
           ************************************************************
------------------------------------------------------------------------------
                           ORCA GTO INTEGRAL CALCULATION
                           -- RI-GTO INTEGRALS CHOSEN --
------------------------------------------------------------------------------
------------------------------------------------------------------------------
                   ___                                                        
                  /   \      - P O W E R E D   B Y -                         
                 /     \                                                     
                 |  |  |   _    _      __       _____    __    __             
                 |  |  |  | |  | |    /  \     |  _  \  |  |  /  |          
                  \  \/   | |  | |   /    \    | | | |  |  | /  /          
                 / \  \   | |__| |  /  /\  \   | |_| |  |  |/  /          
                |  |  |   |  __  | /  /__\  \  |    /   |      \           
                |  |  |   | |  | | |   __   |  |    \   |  |\   \          
                \     /   | |  | | |  |  |  |  | |\  \  |  | \   \       
                 \___/    |_|  |_| |__|  |__|  |_| \__\ |__|  \__/        
                                                                              
                      - O R C A' S   B I G   F R I E N D -                    
                                      &                                       
                       - I N T E G R A L  F E E D E R -                       
                                                                              
 v1 FN, 2020, v2 2021                                                         
------------------------------------------------------------------------------


Reading SHARK input file pbeh-3c.SHARKINP.tmp ... ok
----------------------
SHARK INTEGRAL PACKAGE
----------------------

Number of atoms                             ...     48
Number of basis functions                   ...    460
Number of shells                            ...    236
Maximum angular momentum                    ...      2
Integral batch strategy                     ... SHARK/LIBINT Hybrid
RI-J (if used) integral strategy            ... SPLIT-RIJ (Revised 2003 algorithm where possible)
Printlevel                                  ...      1
Contraction scheme used                     ... SEGMENTED contraction
Coulomb Range Separation                    ... NOT USED
Exchange Range Separation                   ... NOT USED
Finite Nucleus Model                        ... NOT USED
Auxiliary Coulomb fitting basis             ... AVAILABLE
   # of basis functions in Aux-J            ...   1592
   # of shells in Aux-J                     ...    520
   Maximum angular momentum in Aux-J        ...      4
Auxiliary J/K fitting basis                 ... NOT available
Auxiliary Correlation fitting basis         ... NOT available
Auxiliary 'external' fitting basis          ... NOT available
Integral threshold                          ...     2.500000e-11
Primitive cut-off                           ...     2.500000e-12
Primitive pair pre-selection threshold      ...     2.500000e-12

Calculating pre-screening integrals         ... done (  0.1 sec) Dimension = 236
Organizing shell pair data                  ... done (  0.5 sec)
Shell pair information
Total number of shell pairs                 ...     27966
Shell pairs after pre-screening             ...     17553
Total number of primitive shell pairs       ...     99214
Primitive shell pairs kept                  ...     38000
          la=0 lb=0:   6280 shell pairs
          la=1 lb=0:   6230 shell pairs
          la=1 lb=1:   1392 shell pairs
          la=2 lb=0:   2254 shell pairs
          la=2 lb=1:   1182 shell pairs
          la=2 lb=2:    215 shell pairs

Calculating one electron integrals          ... done (  0.1 sec)
Calculating RI/J V-Matrix + Cholesky decomp.... done (  1.3 sec)
Calculating Nuclear repulsion               ... done (  0.0 sec) ENN=   2384.452397870259 Eh

SHARK setup successfully completed in   3.0 seconds

Maximum memory used throughout the entire GTOINT-calculation: 37.0 MB


           ************************************************************
           *        Program running with 4 parallel MPI-processes     *
           *              working on a common directory               *
           ************************************************************
-------------------------------------------------------------------------------
                                 ORCA SCF
-------------------------------------------------------------------------------

------------
SCF SETTINGS
------------
Hamiltonian:
 Density Functional     Method          .... DFT(GTOs)
 Exchange Functional    Exchange        .... PBE
   PBE kappa parameter   XKappa         ....  1.024500
   PBE mue parameter    XMuePBE         ....  0.123457
 Correlation Functional Correlation     .... PBE
   PBE beta parameter  CBetaPBE         ....  0.030000
 LDA part of GGA corr.  LDAOpt          .... PW91-LDA
 Gradients option       PostSCFGGA      .... off
 Hybrid DFT is turned on
   Fraction HF Exchange ScalHFX         ....  0.420000
   Scaling of DF-GGA-X  ScalDFX         ....  0.580000
   Scaling of DF-GGA-C  ScalDFC         ....  1.000000
   Scaling of DF-LDA-C  ScalLDAC        ....  1.000000
   Perturbative correction              ....  0.000000
   Density functional embedding theory  .... OFF
 RI-approximation to the Coulomb term is turned on
   Number of AuxJ basis functions       .... 1592
   RIJ-ON(X) (HFX calculated with O(N)) .... on
   Number of AuxJ basis functions       .... 1592
   RIJ-COSX (HFX calculated with COS-X)).... on


General Settings:
 Integral files         IntName         .... pbeh-3c
 Hartree-Fock type      HFTyp           .... RHF
 Total Charge           Charge          ....    0
 Multiplicity           Mult            ....    1
 Number of Electrons    NEL             ....  190
 Basis Dimension        Dim             ....  460
 Nuclear Repulsion      ENuc            ....   2384.4523978703 Eh

Convergence Acceleration:
 DIIS                   CNVDIIS         .... on
   Start iteration      DIISMaxIt       ....    12
   Startup error        DIISStart       ....  0.200000
   # of expansion vecs  DIISMaxEq       ....     5
   Bias factor          DIISBfac        ....   1.050
   Max. coefficient     DIISMaxC        ....  10.000
 Trust-Rad. Augm. Hess. CNVTRAH         .... auto
   Auto Start mean grad. ratio tolernc. ....  1.125000
   Auto Start start iteration           ....    20
   Auto Start num. interpolation iter.  ....    10
   Max. Number of Micro iterations      ....    16
   Max. Number of Macro iterations      .... Maxiter - #DIIS iter
   Number of Davidson start vectors     ....     2
   Converg. threshold I  (grad. norm)   ....   1.000e-05
   Converg. threshold II (energy diff.) ....   1.000e-08
   Grad. Scal. Fac. for Micro threshold ....   0.100
   Minimum threshold for Micro iter.    ....   0.010
   NR start threshold (gradient norm)   ....   0.001
   Initial trust radius                 ....   0.400
   Minimum AH scaling param. (alpha)    ....   1.000
   Maximum AH scaling param. (alpha)    .... 1000.000
   Orbital update algorithm             .... Taylor
   White noise on init. David. guess    .... on
   Maximum white noise                  ....   0.010
   Quad. conv. algorithm                .... NR
   COSX micro iterations for RIJONX calc.... off
 SOSCF                  CNVSOSCF        .... on
   Start iteration      SOSCFMaxIt      ....   150
   Startup grad/error   SOSCFStart      ....  0.003300
 Level Shifting         CNVShift        .... on
   Level shift para.    LevelShift      ....    0.2500
   Turn off err/grad.   ShiftErr        ....    0.0010
 Zerner damping         CNVZerner       .... off
 Static damping         CNVDamp         .... on
   Fraction old density DampFac         ....    0.7000
   Max. Damping (<1)    DampMax         ....    0.9800
   Min. Damping (>=0)   DampMin         ....    0.0000
   Turn off err/grad.   DampErr         ....    0.1000
 Fernandez-Rico         CNVRico         .... off

SCF Procedure:
 Maximum # iterations   MaxIter         ....   125
 SCF integral mode      SCFMode         .... Direct
   Integral package                     .... SHARK and LIBINT hybrid scheme
 Reset frequency        DirectResetFreq ....    20
 Integral Threshold     Thresh          ....  2.500e-11 Eh
 Primitive CutOff       TCut            ....  2.500e-12 Eh

Convergence Tolerance:
 Convergence Check Mode ConvCheckMode   .... Total+1el-Energy
 Convergence forced     ConvForced      .... 0
 Energy Change          TolE            ....  1.000e-08 Eh
 1-El. energy change                    ....  1.000e-05 Eh
 Orbital Gradient       TolG            ....  1.000e-05
 Orbital Rotation angle TolX            ....  1.000e-05
 DIIS Error             TolErr          ....  5.000e-07


Diagonalization of the overlap matrix:
Smallest eigenvalue                        ... 4.197e-04
Time for diagonalization                   ...    0.142 sec
Threshold for overlap eigenvalues          ... 1.000e-08
Number of eigenvalues below threshold      ... 0
Time for construction of square roots      ...    0.437 sec
Total time needed                          ...    0.581 sec

--------------------------------
INITIAL GUESS: MINIMAL BASIS EHT
--------------------------------
The minimal basis has 160 functions
EHT matrix was diagonalized
Basis set overlap was calculated now projecting the orbitals
Using GuessMode=FMatrix for the initial guess
C*T matrix was formed
Effective Fockian was calculated
Effective Fockian was diagonalized
Initial density was built
                      ------------------
                      INITIAL GUESS DONE
                      ------------------
-------------------
DFT GRID GENERATION
-------------------

General Integration Accuracy     IntAcc      ... 4.959
Radial Grid Type                 RadialGrid  ... OptM3 with GC (2021)
Angular Grid (max. ang.)         AngularGrid ... 6 (Lebedev-590)
Angular grid pruning method      GridPruning ... 4 (adaptive)
Weight generation scheme         WeightScheme... Becke
Basis function cutoff            BFCut       ... 1.0000e-11
Integration weight cutoff        WCut        ... 1.0000e-14
Angular grids for H and He will be reduced by one unit
Partially contracted basis set               ... off
Rotationally invariant grid construction     ... off

Total number of grid points                  ...   565529
Total number of batches                      ...     8861
Average number of points per batch           ...       63
Average number of grid points per atom       ...    11782
Time for grid setup =   14.058 sec

--------------------
COSX GRID GENERATION
--------------------

GRIDX 1
-------
General Integration Accuracy     IntAcc      ... 4.020
Radial Grid Type                 RadialGrid  ... OptM3 with GC (2021)
Angular Grid (max. ang.)         AngularGrid ... 2 (Lebedev-110)
Angular grid pruning method      GridPruning ... 4 (adaptive)
Weight generation scheme         WeightScheme... Becke
Basis function cutoff            BFCut       ... 1.0000e-11
Integration weight cutoff        WCut        ... 1.0000e-14
Angular grids for H and He will be reduced by one unit
Partially contracted basis set               ... on
Rotationally invariant grid construction     ... off

Total number of grid points                  ...    63391
Total number of batches                      ...     1010
Average number of points per batch           ...       62
Average number of grid points per atom       ...     1321
UseSFitting                                  ... on

GRIDX 2
-------
General Integration Accuracy     IntAcc      ... 4.338
Radial Grid Type                 RadialGrid  ... OptM3 with GC (2021)
Angular Grid (max. ang.)         AngularGrid ... 3 (Lebedev-194)
Angular grid pruning method      GridPruning ... 4 (adaptive)
Weight generation scheme         WeightScheme... Becke
Basis function cutoff            BFCut       ... 1.0000e-11
Integration weight cutoff        WCut        ... 1.0000e-14
Angular grids for H and He will be reduced by one unit
Partially contracted basis set               ... on
Rotationally invariant grid construction     ... off

Total number of grid points                  ...   138223
Total number of batches                      ...     2184
Average number of points per batch           ...       63
Average number of grid points per atom       ...     2880
UseSFitting                                  ... on

GRIDX 3
-------
General Integration Accuracy     IntAcc      ... 4.871
Radial Grid Type                 RadialGrid  ... OptM3 with GC (2021)
Angular Grid (max. ang.)         AngularGrid ... 4 (Lebedev-302)
Angular grid pruning method      GridPruning ... 4 (adaptive)
Weight generation scheme         WeightScheme... Becke
Basis function cutoff            BFCut       ... 1.0000e-11
Integration weight cutoff        WCut        ... 1.0000e-14
Angular grids for H and He will be reduced by one unit
Partially contracted basis set               ... on
Rotationally invariant grid construction     ... off

Total number of grid points                  ...   257179
Total number of batches                      ...     4041
Average number of points per batch           ...       63
Average number of grid points per atom       ...     5358
UseSFitting                                  ... on

Time for X-Grid setup             =   11.230 sec

--------------
SCF ITERATIONS
--------------
ITER       Energy         Delta-E        Max-DP      RMS-DP      [F,P]     Damp
               ***  Starting incremental Fock matrix formation  ***
  0  -1106.9883270438   0.000000000000 0.15914825  0.00324933  0.4032025 0.7000
  1  -1107.8350188079  -0.846691764014 0.09204068  0.00218876  0.2848021 0.7000
  2  -1108.4140305660  -0.579011758157 0.05586180  0.00149059  0.2000691 0.7000
                               ***Turning on DIIS***
  3  -1108.8240011231  -0.409970557072 0.03977024  0.00106493  0.1407723 0.7000
  4  -1109.1167331279  -0.292732004811 0.09780620  0.00272510  0.0989582 0.0000
  5  -1109.8223445313  -0.705611403432 0.01391947  0.00020034  0.0100296 0.0000
  6  -1109.8239226772  -0.001578145890 0.00438155  0.00008105  0.0041133 0.0000
                      *** Initiating the SOSCF procedure ***
                           *** Shutting down DIIS ***
                      *** Re-Reading the Fockian *** 
                      *** Removing any level shift *** 
ITER      Energy       Delta-E        Grad      Rot      Max-DP    RMS-DP
  7  -1109.82429472  -0.0003720399  0.001836  0.001836  0.003597  0.000041
               *** Restarting incremental Fock matrix formation ***
  8  -1109.82441969  -0.0001249681  0.000972  0.004894  0.001552  0.000035
  9  -1109.82445928  -0.0000395913  0.000263  0.003172  0.001320  0.000027
 10  -1109.82445979  -0.0000005135  0.000405  0.000746  0.000572  0.000010
 11  -1109.82446547  -0.0000056825  0.000052  0.000188  0.000262  0.000005
 12  -1109.82446540   0.0000000729  0.000078  0.000113  0.000153  0.000003
 13  -1109.82446576  -0.0000003633  0.000013  0.000055  0.000052  0.000001
 14  -1109.82446576   0.0000000023  0.000017  0.000019  0.000034  0.000001
 15  -1109.82446578  -0.0000000175  0.000004  0.000022  0.000011  0.000000
                  ***Gradient check signals convergence***
              ***Rediagonalizing the Fockian in SOSCF/NRSCF***

               *****************************************************
               *                     SUCCESS                       *
               *           SCF CONVERGED AFTER  16 CYCLES          *
               *****************************************************

Old exchange energy                            =    -65.025421210 Eh
New exchange energy                            =    -65.025449373 Eh
Exchange energy change after final integration =     -0.000028163 Eh
Total energy after final integration           =  -1109.824493947 Eh
Final COS-X integration done in                =    59.750 sec

----------------
TOTAL SCF ENERGY
----------------

Total Energy       :        -1109.82449395 Eh          -30199.85981 eV

Components:
Nuclear Repulsion  :         2384.45239787 Eh           64884.24840 eV
Electronic Energy  :        -3494.27689182 Eh          -95084.10821 eV
One Electron Energy:        -6243.15330898 Eh         -169884.83832 eV
Two Electron Energy:         2748.87641716 Eh           74800.73011 eV
Max COSX asymmetry :            0.00000139 Eh               0.00004 eV

Virial components:
Potential Energy   :        -2210.02895068 Eh          -60137.94510 eV
Kinetic Energy     :         1100.20445674 Eh           29938.08529 eV
Virial Ratio       :            2.00874386


DFT components:
N(Alpha)           :       95.000012557357 electrons
N(Beta)            :       95.000012557357 electrons
N(Total)           :      190.000025114715 electrons
E(X)               :      -86.394209428216 Eh       
E(C)               :       -8.274214039132 Eh       
E(XC)              :      -94.668423467348 Eh       
DFET-embed. en.    :        0.000000000000 Eh       

---------------
SCF CONVERGENCE
---------------

  Last Energy change         ...   -5.7389e-09  Tolerance :   1.0000e-08
  Last MAX-Density change    ...    2.4425e-15  Tolerance :   1.0000e-07
  Last RMS-Density change    ...    3.1051e-17  Tolerance :   5.0000e-09
  Last Orbital Gradient      ...    2.2617e-06  Tolerance :   1.0000e-05
  Last Orbital Rotation      ...    8.7030e-06  Tolerance :   1.0000e-05

             **** THE GBW FILE WAS UPDATED (pbeh-3c.gbw) ****
             **** DENSITY pbeh-3c.scfp WAS UPDATED ****
             **** ENERGY FILE WAS UPDATED (pbeh-3c.en.tmp) ****
             **** THE GBW FILE WAS UPDATED (pbeh-3c.gbw) ****
             **** DENSITY pbeh-3c.scfp WAS UPDATED ****
----------------
ORBITAL ENERGIES
----------------

  NO   OCC          E(Eh)            E(eV) 
   0   2.0000     -14.688179      -399.6857 
   1   2.0000     -14.685952      -399.6251 
   2   2.0000     -10.485184      -285.3164 
   3   2.0000     -10.479245      -285.1548 
   4   2.0000     -10.470492      -284.9166 
   5   2.0000     -10.466774      -284.8154 
   6   2.0000     -10.463141      -284.7165 
   7   2.0000     -10.458425      -284.5882 
   8   2.0000     -10.458015      -284.5770 
   9   2.0000     -10.457496      -284.5629 
  10   2.0000     -10.457226      -284.5556 
  11   2.0000     -10.456259      -284.5293 
  12   2.0000     -10.455845      -284.5180 
  13   2.0000     -10.455593      -284.5112 
  14   2.0000     -10.455568      -284.5105 
  15   2.0000     -10.454865      -284.4913 
  16   2.0000     -10.454794      -284.4894 
  17   2.0000     -10.453269      -284.4479 
  18   2.0000     -10.451895      -284.4105 
  19   2.0000     -10.451374      -284.3963 
  20   2.0000     -10.451005      -284.3863 
  21   2.0000     -10.450730      -284.3788 
  22   2.0000     -10.449557      -284.3469 
  23   2.0000     -10.446031      -284.2509 
  24   2.0000     -10.445872      -284.2466 
  25   2.0000     -10.444982      -284.2224 
  26   2.0000     -10.444854      -284.2189 
  27   2.0000     -10.443700      -284.1875 
  28   2.0000      -1.137845       -30.9623 
  29   2.0000      -0.979114       -26.6431 
  30   2.0000      -0.960361       -26.1327 
  31   2.0000      -0.950462       -25.8634 
  32   2.0000      -0.949628       -25.8407 
  33   2.0000      -0.903932       -24.5972 
  34   2.0000      -0.888409       -24.1748 
  35   2.0000      -0.852751       -23.2045 
  36   2.0000      -0.841035       -22.8857 
  37   2.0000      -0.839278       -22.8379 
  38   2.0000      -0.833361       -22.6769 
  39   2.0000      -0.830173       -22.5901 
  40   2.0000      -0.828755       -22.5516 
  41   2.0000      -0.793384       -21.5891 
  42   2.0000      -0.762906       -20.7597 
  43   2.0000      -0.716963       -19.5095 
  44   2.0000      -0.697123       -18.9697 
  45   2.0000      -0.690563       -18.7912 
  46   2.0000      -0.682871       -18.5819 
  47   2.0000      -0.677541       -18.4368 
  48   2.0000      -0.671739       -18.2789 
  49   2.0000      -0.658536       -17.9197 
  50   2.0000      -0.640712       -17.4347 
  51   2.0000      -0.616956       -16.7882 
  52   2.0000      -0.596475       -16.2309 
  53   2.0000      -0.584688       -15.9102 
  54   2.0000      -0.576964       -15.7000 
  55   2.0000      -0.560766       -15.2592 
  56   2.0000      -0.545079       -14.8323 
  57   2.0000      -0.540730       -14.7140 
  58   2.0000      -0.529799       -14.4166 
  59   2.0000      -0.526035       -14.3141 
  60   2.0000      -0.517789       -14.0898 
  61   2.0000      -0.512119       -13.9355 
  62   2.0000      -0.503487       -13.7006 
  63   2.0000      -0.499909       -13.6032 
  64   2.0000      -0.495058       -13.4712 
  65   2.0000      -0.489504       -13.3201 
  66   2.0000      -0.486768       -13.2456 
  67   2.0000      -0.480358       -13.0712 
  68   2.0000      -0.479027       -13.0350 
  69   2.0000      -0.474856       -12.9215 
  70   2.0000      -0.473152       -12.8751 
  71   2.0000      -0.463582       -12.6147 
  72   2.0000      -0.449955       -12.2439 
  73   2.0000      -0.429669       -11.6919 
  74   2.0000      -0.424545       -11.5525 
  75   2.0000      -0.422056       -11.4847 
  76   2.0000      -0.418510       -11.3882 
  77   2.0000      -0.415596       -11.3089 
  78   2.0000      -0.410478       -11.1697 
  79   2.0000      -0.405549       -11.0355 
  80   2.0000      -0.400997       -10.9117 
  81   2.0000      -0.399436       -10.8692 
  82   2.0000      -0.394389       -10.7319 
  83   2.0000      -0.387739       -10.5509 
  84   2.0000      -0.383201       -10.4274 
  85   2.0000      -0.347644        -9.4599 
  86   2.0000      -0.316572        -8.6144 
  87   2.0000      -0.301393        -8.2013 
  88   2.0000      -0.299208        -8.1419 
  89   2.0000      -0.294805        -8.0220 
  90   2.0000      -0.291968        -7.9449 
  91   2.0000      -0.286269        -7.7898 
  92   2.0000      -0.278693        -7.5836 
  93   2.0000      -0.266219        -7.2442 
  94   2.0000      -0.240163        -6.5352 
  95   0.0000      -0.058613        -1.5949 
  96   0.0000      -0.033924        -0.9231 
  97   0.0000       0.005867         0.1596 
  98   0.0000       0.011770         0.3203 
  99   0.0000       0.016117         0.4386 
 100   0.0000       0.023847         0.6489 
 101   0.0000       0.031214         0.8494 
 102   0.0000       0.036243         0.9862 
 103   0.0000       0.069901         1.9021 
 104   0.0000       0.092869         2.5271 
 105   0.0000       0.141341         3.8461 
 106   0.0000       0.145568         3.9611 
 107   0.0000       0.146128         3.9763 
 108   0.0000       0.152102         4.1389 
 109   0.0000       0.173901         4.7321 
 110   0.0000       0.185543         5.0489 
 111   0.0000       0.194611         5.2956 
 112   0.0000       0.199012         5.4154 
 113   0.0000       0.200676         5.4607 
 114   0.0000       0.202900         5.5212 
 115   0.0000       0.206612         5.6222 
 116   0.0000       0.208692         5.6788 
 117   0.0000       0.209408         5.6983 
 118   0.0000       0.210453         5.7267 
 119   0.0000       0.214578         5.8390 
 120   0.0000       0.224203         6.1009 
 121   0.0000       0.225167         6.1271 
 122   0.0000       0.228201         6.2097 
 123   0.0000       0.233549         6.3552 
 124   0.0000       0.236340         6.4311 
 125   0.0000       0.238183         6.4813 
 126   0.0000       0.241192         6.5632 
 127   0.0000       0.246095         6.6966 
 128   0.0000       0.255637         6.9562 
 129   0.0000       0.263490         7.1699 
 130   0.0000       0.273034         7.4296 
 131   0.0000       0.279372         7.6021 
 132   0.0000       0.289315         7.8727 
 133   0.0000       0.300804         8.1853 
 134   0.0000       0.306176         8.3315 
 135   0.0000       0.316707         8.6180 
 136   0.0000       0.320108         8.7106 
 137   0.0000       0.321099         8.7375 
 138   0.0000       0.326250         8.8777 
 139   0.0000       0.329037         8.9536 
 140   0.0000       0.333045         9.0626 
 141   0.0000       0.338720         9.2170 
 142   0.0000       0.348025         9.4702 
 143   0.0000       0.353242         9.6122 
 144   0.0000       0.357657         9.7323 
 145   0.0000       0.371711        10.1148 
 146   0.0000       0.372945        10.1484 
 147   0.0000       0.381762        10.3883 
 148   0.0000       0.390343        10.6218 
 149   0.0000       0.419550        11.4165 
 150   0.0000       0.435059        11.8385 
 151   0.0000       0.451069        12.2742 
 152   0.0000       0.459574        12.5056 
 153   0.0000       0.468647        12.7525 
 154   0.0000       0.486564        13.2401 
 155   0.0000       0.498675        13.5696 
 156   0.0000       0.507998        13.8233 
 157   0.0000       0.516969        14.0674 
 158   0.0000       0.519493        14.1361 
 159   0.0000       0.524671        14.2770 
 160   0.0000       0.539425        14.6785 
 161   0.0000       0.540806        14.7161 
 162   0.0000       0.547376        14.8949 
 163   0.0000       0.555356        15.1120 
 164   0.0000       0.559880        15.2351 
 165   0.0000       0.565502        15.3881 
 166   0.0000       0.568902        15.4806 
 167   0.0000       0.573290        15.6000 
 168   0.0000       0.576111        15.6768 
 169   0.0000       0.580521        15.7968 
 170   0.0000       0.581354        15.8194 
 171   0.0000       0.586704        15.9650 
 172   0.0000       0.593226        16.1425 
 173   0.0000       0.598757        16.2930 
 174   0.0000       0.602879        16.4052 
 175   0.0000       0.605749        16.4833 
 176   0.0000       0.610547        16.6138 
 177   0.0000       0.611944        16.6518 
 178   0.0000       0.613658        16.6985 
 179   0.0000       0.616507        16.7760 
 180   0.0000       0.618703        16.8358 
 181   0.0000       0.621061        16.8999 
 182   0.0000       0.622870        16.9491 
 183   0.0000       0.625345        17.0165 
 184   0.0000       0.626505        17.0481 
 185   0.0000       0.630528        17.1575 
 186   0.0000       0.635364        17.2891 
 187   0.0000       0.636543        17.3212 
 188   0.0000       0.638945        17.3866 
 189   0.0000       0.641433        17.4543 
 190   0.0000       0.644389        17.5347 
 191   0.0000       0.652372        17.7519 
 192   0.0000       0.658236        17.9115 
 193   0.0000       0.659511        17.9462 
 194   0.0000       0.663275        18.0486 
 195   0.0000       0.666535        18.1373 
 196   0.0000       0.670589        18.2476 
 197   0.0000       0.675863        18.3912 
 198   0.0000       0.684690        18.6314 
 199   0.0000       0.688625        18.7384 
 200   0.0000       0.694478        18.8977 
 201   0.0000       0.704054        19.1583 
 202   0.0000       0.707503        19.2521 
 203   0.0000       0.714785        19.4503 
 204   0.0000       0.722927        19.6719 
 205   0.0000       0.728701        19.8290 
 206   0.0000       0.734695        19.9921 
 207   0.0000       0.745826        20.2950 
 208   0.0000       0.748942        20.3797 
 209   0.0000       0.761389        20.7185 
 210   0.0000       0.768954        20.9243 
 211   0.0000       0.786524        21.4024 
 212   0.0000       0.792645        21.5690 
 213   0.0000       0.805565        21.9205 
 214   0.0000       0.810536        22.0558 
 215   0.0000       0.836693        22.7676 
 216   0.0000       0.840949        22.8834 
 217   0.0000       0.856118        23.2962 
 218   0.0000       0.870156        23.6782 
 219   0.0000       0.876639        23.8546 
 220   0.0000       0.900044        24.4915 
 221   0.0000       0.910546        24.7772 
 222   0.0000       0.932064        25.3627 
 223   0.0000       0.935549        25.4576 
 224   0.0000       0.936703        25.4890 
 225   0.0000       0.944982        25.7143 
 226   0.0000       0.951585        25.8939 
 227   0.0000       0.953980        25.9591 
 228   0.0000       0.954828        25.9822 
 229   0.0000       0.962112        26.1804 
 230   0.0000       0.963716        26.2241 
 231   0.0000       0.966949        26.3120 
 232   0.0000       0.970963        26.4212 
 233   0.0000       0.979756        26.6605 
 234   0.0000       0.983315        26.7574 
 235   0.0000       0.986716        26.8499 
 236   0.0000       0.991047        26.9678 
 237   0.0000       0.997103        27.1326 
 238   0.0000       1.001988        27.2655 
 239   0.0000       1.009523        27.4705 
 240   0.0000       1.016596        27.6630 
 241   0.0000       1.020742        27.7758 
 242   0.0000       1.022053        27.8115 
 243   0.0000       1.031030        28.0557 
 244   0.0000       1.038239        28.2519 
 245   0.0000       1.046303        28.4713 
 246   0.0000       1.051230        28.6054 
 247   0.0000       1.056804        28.7571 
 248   0.0000       1.060759        28.8647 
 249   0.0000       1.062578        28.9142 
 250   0.0000       1.064878        28.9768 
 251   0.0000       1.076382        29.2898 
 252   0.0000       1.078597        29.3501 
 253   0.0000       1.083062        29.4716 
 254   0.0000       1.087143        29.5827 
 255   0.0000       1.094608        29.7858 
 256   0.0000       1.102873        30.0107 
 257   0.0000       1.113396        30.2970 
 258   0.0000       1.126891        30.6643 
 259   0.0000       1.130553        30.7639 
 260   0.0000       1.134968        30.8841 
 261   0.0000       1.138973        30.9930 
 262   0.0000       1.145740        31.1772 
 263   0.0000       1.154400        31.4128 
 264   0.0000       1.170221        31.8433 
 265   0.0000       1.181208        32.1423 
 266   0.0000       1.184896        32.2427 
 267   0.0000       1.188736        32.3471 
 268   0.0000       1.199867        32.6500 
 269   0.0000       1.219373        33.1808 
 270   0.0000       1.243522        33.8380 
 271   0.0000       1.250134        34.0179 
 272   0.0000       1.250810        34.0363 
 273   0.0000       1.271872        34.6094 
 274   0.0000       1.283471        34.9250 
 275   0.0000       1.284700        34.9585 
 276   0.0000       1.289866        35.0990 
 277   0.0000       1.303639        35.4738 
 278   0.0000       1.311992        35.7011 
 279   0.0000       1.315520        35.7971 
 280   0.0000       1.322930        35.9988 
 281   0.0000       1.337114        36.3847 
 282   0.0000       1.345667        36.6175 
 283   0.0000       1.352053        36.7912 
 284   0.0000       1.361604        37.0511 
 285   0.0000       1.372103        37.3368 
 286   0.0000       1.379431        37.5362 
 287   0.0000       1.397798        38.0360 
 288   0.0000       1.410508        38.3819 
 289   0.0000       1.433828        39.0164 
 290   0.0000       1.454414        39.5766 
 291   0.0000       1.485254        40.4158 
 292   0.0000       1.487502        40.4770 
 293   0.0000       1.497436        40.7473 
 294   0.0000       1.507038        41.0086 
 295   0.0000       1.513774        41.1919 
 296   0.0000       1.521954        41.4145 
 297   0.0000       1.530291        41.6413 
 298   0.0000       1.538604        41.8675 
 299   0.0000       1.540142        41.9094 
 300   0.0000       1.542665        41.9781 
 301   0.0000       1.547906        42.1207 
 302   0.0000       1.553965        42.2855 
 303   0.0000       1.560459        42.4622 
 304   0.0000       1.566051        42.6144 
 305   0.0000       1.569783        42.7160 
 306   0.0000       1.571941        42.7747 
 307   0.0000       1.575980        42.8846 
 308   0.0000       1.582509        43.0622 
 309   0.0000       1.590074        43.2681 
 310   0.0000       1.608039        43.7570 
 311   0.0000       1.622466        44.1495 
 312   0.0000       1.646910        44.8147 
 313   0.0000       1.662961        45.2515 
 314   0.0000       1.689867        45.9836 
 315   0.0000       1.752242        47.6809 
 316   0.0000       1.758766        47.8585 
 317   0.0000       1.785829        48.5949 
 318   0.0000       1.804166        49.0938 
 319   0.0000       1.813411        49.3454 
 320   0.0000       1.831130        49.8276 
 321   0.0000       1.840517        50.0830 
 322   0.0000       1.844672        50.1961 
 323   0.0000       1.861008        50.6406 
 324   0.0000       1.865629        50.7664 
 325   0.0000       1.879498        51.1437 
 326   0.0000       1.885686        51.3121 
 327   0.0000       1.893719        51.5307 
 328   0.0000       1.911223        52.0070 
 329   0.0000       1.926255        52.4161 
 330   0.0000       1.953896        53.1682 
 331   0.0000       1.963754        53.4365 
 332   0.0000       1.968681        53.5705 
 333   0.0000       1.980119        53.8818 
 334   0.0000       1.997000        54.3411 
 335   0.0000       1.999366        54.4055 
 336   0.0000       2.007242        54.6198 
 337   0.0000       2.018609        54.9291 
 338   0.0000       2.028927        55.2099 
 339   0.0000       2.039173        55.4887 
 340   0.0000       2.050628        55.8004 
 341   0.0000       2.054317        55.9008 
 342   0.0000       2.059236        56.0347 
 343   0.0000       2.070607        56.3441 
 344   0.0000       2.095151        57.0120 
 345   0.0000       2.119043        57.6621 
 346   0.0000       2.123766        57.7906 
 347   0.0000       2.126204        57.8569 
 348   0.0000       2.133684        58.0605 
 349   0.0000       2.147759        58.4435 
 350   0.0000       2.157012        58.6953 
 351   0.0000       2.169691        59.0403 
 352   0.0000       2.173017        59.1308 
 353   0.0000       2.182548        59.3901 
 354   0.0000       2.187572        59.5269 
 355   0.0000       2.191078        59.6223 
 356   0.0000       2.192365        59.6573 
 357   0.0000       2.199250        59.8446 
 358   0.0000       2.204873        59.9976 
 359   0.0000       2.209124        60.1133 
 360   0.0000       2.217275        60.3351 
 361   0.0000       2.218785        60.3762 
 362   0.0000       2.244081        61.0645 
 363   0.0000       2.257402        61.4270 
 364   0.0000       2.267219        61.6942 
 365   0.0000       2.285520        62.1922 
 366   0.0000       2.291255        62.3482 
 367   0.0000       2.292296        62.3766 
 368   0.0000       2.324700        63.2583 
 369   0.0000       2.325810        63.2885 
 370   0.0000       2.342139        63.7328 
 371   0.0000       2.345629        63.8278 
 372   0.0000       2.356036        64.1110 
 373   0.0000       2.362150        64.2774 
 374   0.0000       2.367276        64.4169 
 375   0.0000       2.371941        64.5438 
 376   0.0000       2.377770        64.7024 
 377   0.0000       2.386220        64.9323 
 378   0.0000       2.392799        65.1114 
 379   0.0000       2.400775        65.3284 
 380   0.0000       2.410753        65.5999 
 381   0.0000       2.462291        67.0024 
 382   0.0000       2.469866        67.2085 
 383   0.0000       2.519038        68.5465 
 384   0.0000       2.533943        68.9521 
 385   0.0000       2.541444        69.1562 
 386   0.0000       2.572143        69.9916 
 387   0.0000       2.591867        70.5283 
 388   0.0000       2.603641        70.8487 
 389   0.0000       2.611150        71.0530 
 390   0.0000       2.627637        71.5016 
 391   0.0000       2.635706        71.7212 
 392   0.0000       2.643707        71.9389 
 393   0.0000       2.655697        72.2652 
 394   0.0000       2.658971        72.3543 
 395   0.0000       2.667806        72.5947 
 396   0.0000       2.687747        73.1373 
 397   0.0000       2.693157        73.2845 
 398   0.0000       2.707757        73.6818 
 399   0.0000       2.720771        74.0359 
 400   0.0000       2.729055        74.2614 
 401   0.0000       2.737693        74.4964 
 402   0.0000       2.753882        74.9369 
 403   0.0000       2.756218        75.0005 
 404   0.0000       2.764144        75.2162 
 405   0.0000       2.769671        75.3666 
 406   0.0000       2.776664        75.5569 
 407   0.0000       2.783127        75.7327 
 408   0.0000       2.784610        75.7731 
 409   0.0000       2.794842        76.0515 
 410   0.0000       2.798322        76.1462 
 411   0.0000       2.809490        76.4501 
 412   0.0000       2.813560        76.5609 
 413   0.0000       2.823280        76.8254 
 414   0.0000       2.825626        76.8892 
 415   0.0000       2.838966        77.2522 
 416   0.0000       2.868857        78.0656 
 417   0.0000       2.899990        78.9127 
 418   0.0000       2.946174        80.1695 
 419   0.0000       2.955020        80.4102 
 420   0.0000       2.975988        80.9808 
 421   0.0000       2.995569        81.5136 
 422   0.0000       3.044556        82.8466 
 423   0.0000       3.071275        83.5736 
 424   0.0000       3.186859        86.7189 
 425   0.0000       3.228786        87.8597 
 426   0.0000       3.264944        88.8436 
 427   0.0000       3.346175        91.0540 
 428   0.0000       3.446227        93.7766 
 429   0.0000       3.453272        93.9683 
 430   0.0000       3.465371        94.2976 
 431   0.0000       3.504972        95.3751 
 432   0.0000      13.205140       359.3301 
 433   0.0000      13.229858       360.0027 
 434   0.0000      13.308661       362.1471 
 435   0.0000      13.350660       363.2899 
 436   0.0000      13.593517       369.8984 
 437   0.0000      13.651161       371.4670 
 438   0.0000      13.653722       371.5367 
 439   0.0000      13.656327       371.6075 
 440   0.0000      13.680686       372.2704 
 441   0.0000      13.701432       372.8349 
 442   0.0000      13.729343       373.5944 
 443   0.0000      13.804192       375.6312 
 444   0.0000      13.865297       377.2939 
 445   0.0000      14.092595       383.4790 
 446   0.0000      14.115397       384.0995 
 447   0.0000      14.125193       384.3660 
 448   0.0000      14.128843       384.4654 
 449   0.0000      14.132051       384.5526 
 450   0.0000      14.144860       384.9012 
 451   0.0000      14.160775       385.3343 
 452   0.0000      14.177559       385.7910 
 453   0.0000      14.292431       388.9168 
 454   0.0000      14.506554       394.7434 
 455   0.0000      14.525550       395.2603 
 456   0.0000      14.534165       395.4947 
 457   0.0000      14.545281       395.7972 
 458   0.0000      19.303402       525.2723 
 459   0.0000      19.625349       534.0329 

                    ********************************
                    * MULLIKEN POPULATION ANALYSIS *
                    ********************************

-----------------------
MULLIKEN ATOMIC CHARGES
-----------------------
   0 C :   -0.288628
   1 C :    0.129114
   2 C :    0.081128
   3 C :   -0.288289
   4 C :   -0.207495
   5 C :   -0.233881
   6 C :   -0.206864
   7 C :   -0.273372
   8 H :    0.223545
   9 H :    0.219909
  10 H :    0.220548
  11 H :    0.220998
  12 H :    0.237522
  13 C :   -0.069759
  14 C :    0.219384
  15 C :   -0.238635
  16 C :   -0.233296
  17 C :   -0.216692
  18 C :   -0.253505
  19 N :   -0.244368
  20 H :    0.243443
  21 H :    0.225676
  22 H :    0.225295
  23 H :    0.238160
  24 N :   -0.253278
  25 C :    0.237040
  26 C :   -0.247091
  27 C :   -0.219973
  28 C :   -0.222183
  29 C :   -0.221458
  30 C :   -0.240221
  31 H :    0.239091
  32 H :    0.223006
  33 H :    0.224692
  34 H :    0.225210
  35 H :    0.259808
  36 H :    0.222878
  37 C :    0.114270
  38 C :   -0.271486
  39 C :   -0.199528
  40 C :   -0.234832
  41 C :   -0.199515
  42 C :   -0.277197
  43 H :    0.214219
  44 H :    0.219126
  45 H :    0.216892
  46 H :    0.218284
  47 H :    0.242308
Sum of atomic charges:   -0.0000000

--------------------------------
MULLIKEN REDUCED ORBITAL CHARGES
--------------------------------
  0 C s       :     3.296246  s :     3.296246
      pz      :     0.990983  p :     2.953137
      px      :     0.911713
      py      :     1.050441
      dz2     :     0.007077  d :     0.039245
      dxz     :     0.007773
      dyz     :     0.006189
      dx2y2   :     0.010327
      dxy     :     0.007878
  1 C s       :     3.167478  s :     3.167478
      pz      :     0.933406  p :     2.658803
      px      :     0.893484
      py      :     0.831913
      dz2     :     0.008650  d :     0.044605
      dxz     :     0.006880
      dyz     :     0.008252
      dx2y2   :     0.010512
      dxy     :     0.010311
  2 C s       :     3.202032  s :     3.202032
      pz      :     0.858206  p :     2.671540
      px      :     0.873245
      py      :     0.940090
      dz2     :     0.011199  d :     0.045300
      dxz     :     0.011891
      dyz     :     0.008944
      dx2y2   :     0.006321
      dxy     :     0.006945
  3 C s       :     3.288342  s :     3.288342
      pz      :     1.047487  p :     2.961169
      px      :     0.955724
      py      :     0.957958
      dz2     :     0.010667  d :     0.038778
      dxz     :     0.010044
      dyz     :     0.005472
      dx2y2   :     0.006556
      dxy     :     0.006039
  4 C s       :     3.248581  s :     3.248581
      pz      :     0.972598  p :     2.919560
      px      :     0.956972
      py      :     0.989990
      dz2     :     0.008879  d :     0.039354
      dxz     :     0.010784
      dyz     :     0.008569
      dx2y2   :     0.005065
      dxy     :     0.006058
  5 C s       :     3.255970  s :     3.255970
      pz      :     0.910858  p :     2.938717
      px      :     1.029994
      py      :     0.997866
      dz2     :     0.011059  d :     0.039193
      dxz     :     0.009599
      dyz     :     0.008041
      dx2y2   :     0.003865
      dxy     :     0.006628
  6 C s       :     3.247946  s :     3.247946
      pz      :     1.017722  p :     2.919568
      px      :     0.944023
      py      :     0.957823
      dz2     :     0.010835  d :     0.039350
      dxz     :     0.010120
      dyz     :     0.005524
      dx2y2   :     0.006784
      dxy     :     0.006088
  7 C s       :     3.293412  s :     3.293412
      pz      :     0.993121  p :     2.941102
      px      :     0.952488
      py      :     0.995493
      dz2     :     0.008820  d :     0.038859
      dxz     :     0.010610
      dyz     :     0.008227
      dx2y2   :     0.005141
      dxy     :     0.006061
  8 H s       :     0.776455  s :     0.776455
  9 H s       :     0.780091  s :     0.780091
 10 H s       :     0.779452  s :     0.779452
 11 H s       :     0.779002  s :     0.779002
 12 H s       :     0.762478  s :     0.762478
 13 C s       :     3.245727  s :     3.245727
      pz      :     0.943917  p :     2.779519
      px      :     0.921179
      py      :     0.914423
      dz2     :     0.006612  d :     0.044513
      dxz     :     0.007877
      dyz     :     0.007473
      dx2y2   :     0.011804
      dxy     :     0.010746
 14 C s       :     3.149966  s :     3.149966
      pz      :     0.958968  p :     2.573668
      px      :     0.817441
      py      :     0.797259
      dz2     :     0.007802  d :     0.056982
      dxz     :     0.008061
      dyz     :     0.008354
      dx2y2   :     0.015665
      dxy     :     0.017101
 15 C s       :     3.268128  s :     3.268128
      pz      :     1.022224  p :     2.932094
      px      :     1.005805
      py      :     0.904065
      dz2     :     0.003834  d :     0.038413
      dxz     :     0.007172
      dyz     :     0.007063
      dx2y2   :     0.011753
      dxy     :     0.008591
 16 C s       :     3.261118  s :     3.261118
      pz      :     0.994388  p :     2.932629
      px      :     0.915260
      py      :     1.022981
      dz2     :     0.004118  d :     0.039549
      dxz     :     0.007087
      dyz     :     0.007479
      dx2y2   :     0.011488
      dxy     :     0.009376
 17 C s       :     3.250931  s :     3.250931
      pz      :     0.957955  p :     2.926431
      px      :     0.982641
      py      :     0.985835
      dz2     :     0.006778  d :     0.039331
      dxz     :     0.005594
      dyz     :     0.005708
      dx2y2   :     0.008298
      dxy     :     0.012953
 18 C s       :     3.285661  s :     3.285661
      pz      :     0.999051  p :     2.928763
      px      :     1.038022
      py      :     0.891690
      dz2     :     0.004094  d :     0.039080
      dxz     :     0.007313
      dyz     :     0.007043
      dx2y2   :     0.010892
      dxy     :     0.009737
 19 N s       :     3.664679  s :     3.664679
      pz      :     1.029046  p :     3.518431
      px      :     0.975254
      py      :     1.514130
      dz2     :     0.006659  d :     0.061259
      dxz     :     0.012604
      dyz     :     0.005670
      dx2y2   :     0.013700
      dxy     :     0.022627
 20 H s       :     0.756557  s :     0.756557
 21 H s       :     0.774324  s :     0.774324
 22 H s       :     0.774705  s :     0.774705
 23 H s       :     0.761840  s :     0.761840
 24 N s       :     3.673585  s :     3.673585
      pz      :     1.016845  p :     3.517928
      px      :     0.984442
      py      :     1.516641
      dz2     :     0.006768  d :     0.061765
      dxz     :     0.013119
      dyz     :     0.005715
      dx2y2   :     0.013584
      dxy     :     0.022579
 25 C s       :     3.109476  s :     3.109476
      pz      :     0.994727  p :     2.596925
      px      :     0.803151
      py      :     0.799047
      dz2     :     0.004211  d :     0.056559
      dxz     :     0.007014
      dyz     :     0.006906
      dx2y2   :     0.018313
      dxy     :     0.020114
 26 C s       :     3.276867  s :     3.276867
      pz      :     0.964877  p :     2.932022
      px      :     0.925729
      py      :     1.041416
      dz2     :     0.003876  d :     0.038203
      dxz     :     0.006567
      dyz     :     0.002694
      dx2y2   :     0.014454
      dxy     :     0.010612
 27 C s       :     3.252941  s :     3.252941
      pz      :     0.997944  p :     2.927930
      px      :     1.028707
      py      :     0.901278
      dz2     :     0.003837  d :     0.039102
      dxz     :     0.002681
      dyz     :     0.006235
      dx2y2   :     0.014054
      dxy     :     0.012296
 28 C s       :     3.255514  s :     3.255514
      pz      :     0.977278  p :     2.927448
      px      :     0.977232
      py      :     0.972938
      dz2     :     0.003848  d :     0.039222
      dxz     :     0.004403
      dyz     :     0.004649
      dx2y2   :     0.010998
      dxy     :     0.015324
 29 C s       :     3.254681  s :     3.254681
      pz      :     0.995343  p :     2.927466
      px      :     0.893957
      py      :     1.038166
      dz2     :     0.003801  d :     0.039311
      dxz     :     0.006389
      dyz     :     0.002634
      dx2y2   :     0.014657
      dxy     :     0.011831
 30 C s       :     3.267530  s :     3.267530
      pz      :     0.960650  p :     2.934502
      px      :     1.056025
      py      :     0.917827
      dz2     :     0.003863  d :     0.038188
      dxz     :     0.002938
      dyz     :     0.006097
      dx2y2   :     0.014404
      dxy     :     0.010886
 31 H s       :     0.760909  s :     0.760909
 32 H s       :     0.776994  s :     0.776994
 33 H s       :     0.775308  s :     0.775308
 34 H s       :     0.774790  s :     0.774790
 35 H s       :     0.740192  s :     0.740192
 36 H s       :     0.777122  s :     0.777122
 37 C s       :     3.175826  s :     3.175826
      pz      :     0.979172  p :     2.664088
      px      :     0.842148
      py      :     0.842768
      dz2     :     0.004732  d :     0.045817
      dxz     :     0.006052
      dyz     :     0.007597
      dx2y2   :     0.013449
      dxy     :     0.013988
 38 C s       :     3.283911  s :     3.283911
      pz      :     0.983960  p :     2.948703
      px      :     0.912072
      py      :     1.052670
      dz2     :     0.004700  d :     0.038872
      dxz     :     0.006617
      dyz     :     0.003226
      dx2y2   :     0.014038
      dxy     :     0.010290
 39 C s       :     3.244746  s :     3.244746
      pz      :     0.984634  p :     2.915399
      px      :     0.986125
      py      :     0.944639
      dz2     :     0.004249  d :     0.039383
      dxz     :     0.004432
      dyz     :     0.005890
      dx2y2   :     0.010537
      dxy     :     0.014275
 40 C s       :     3.256179  s :     3.256179
      pz      :     0.995235  p :     2.939415
      px      :     1.019368
      py      :     0.924812
      dz2     :     0.003429  d :     0.039238
      dxz     :     0.004381
      dyz     :     0.006661
      dx2y2   :     0.012178
      dxy     :     0.012589
 41 C s       :     3.245460  s :     3.245460
      pz      :     0.984295  p :     2.914687
      px      :     0.904729
      py      :     1.025662
      dz2     :     0.004551  d :     0.039368
      dxz     :     0.006654
      dyz     :     0.003345
      dx2y2   :     0.014477
      dxy     :     0.010340
 42 C s       :     3.285117  s :     3.285117
      pz      :     0.981898  p :     2.953020
      px      :     1.011182
      py      :     0.959939
      dz2     :     0.004468  d :     0.039060
      dxz     :     0.004432
      dyz     :     0.005594
      dx2y2   :     0.010677
      dxy     :     0.013889
 43 H s       :     0.785781  s :     0.785781
 44 H s       :     0.780874  s :     0.780874
 45 H s       :     0.783108  s :     0.783108
 46 H s       :     0.781716  s :     0.781716
 47 H s       :     0.757692  s :     0.757692


                     *******************************
                     * LOEWDIN POPULATION ANALYSIS *
                     *******************************

----------------------
LOEWDIN ATOMIC CHARGES
----------------------
   0 C :   -0.107411
   1 C :   -0.029938
   2 C :   -0.038475
   3 C :   -0.129589
   4 C :   -0.134319
   5 C :   -0.136183
   6 C :   -0.133861
   7 C :   -0.120992
   8 H :    0.139998
   9 H :    0.137060
  10 H :    0.136565
  11 H :    0.137476
  12 H :    0.146985
  13 C :   -0.039757
  14 C :   -0.011680
  15 C :   -0.126112
  16 C :   -0.132708
  17 C :   -0.132041
  18 C :   -0.120555
  19 N :   -0.035099
  20 H :    0.150586
  21 H :    0.139130
  22 H :    0.139457
  23 H :    0.147459
  24 N :   -0.039965
  25 C :   -0.027460
  26 C :   -0.115536
  27 C :   -0.138800
  28 C :   -0.126730
  29 C :   -0.135909
  30 C :   -0.122219
  31 H :    0.148192
  32 H :    0.138145
  33 H :    0.137811
  34 H :    0.137999
  35 H :    0.155040
  36 H :    0.142992
  37 C :   -0.054712
  38 C :   -0.120477
  39 C :   -0.131267
  40 C :   -0.135002
  41 C :   -0.131676
  42 C :   -0.118588
  43 H :    0.136898
  44 H :    0.137469
  45 H :    0.135045
  46 H :    0.136512
  47 H :    0.146242

-------------------------------
LOEWDIN REDUCED ORBITAL CHARGES
-------------------------------
  0 C s       :     2.894521  s :     2.894521
      pz      :     1.030165  p :     3.124967
      px      :     1.030983
      py      :     1.063819
      dz2     :     0.013700  d :     0.087923
      dxz     :     0.018840
      dyz     :     0.013255
      dx2y2   :     0.023908
      dxy     :     0.018219
  1 C s       :     2.843365  s :     2.843365
      pz      :     1.018618  p :     3.079785
      px      :     1.041927
      py      :     1.019241
      dz2     :     0.018387  d :     0.106787
      dxz     :     0.017619
      dyz     :     0.020329
      dx2y2   :     0.025616
      dxy     :     0.024835
  2 C s       :     2.845438  s :     2.845438
      pz      :     1.082433  p :     3.084626
      px      :     1.012135
      py      :     0.990057
      dz2     :     0.029421  d :     0.108411
      dxz     :     0.029283
      dyz     :     0.021166
      dx2y2   :     0.012912
      dxy     :     0.015630
  3 C s       :     2.895642  s :     2.895642
      pz      :     1.074646  p :     3.146823
      px      :     1.054098
      py      :     1.018080
      dz2     :     0.022716  d :     0.087123
      dxz     :     0.023104
      dyz     :     0.012735
      dx2y2   :     0.013743
      dxy     :     0.014826
  4 C s       :     2.896189  s :     2.896189
      pz      :     1.077580  p :     3.149338
      px      :     1.054922
      py      :     1.016835
      dz2     :     0.021637  d :     0.088792
      dxz     :     0.026033
      dyz     :     0.017573
      dx2y2   :     0.010555
      dxy     :     0.012993
  5 C s       :     2.898418  s :     2.898418
      pz      :     1.081814  p :     3.149752
      px      :     1.049687
      py      :     1.018250
      dz2     :     0.027764  d :     0.088014
      dxz     :     0.023205
      dyz     :     0.018908
      dx2y2   :     0.006647
      dxy     :     0.011489
  6 C s       :     2.895986  s :     2.895986
      pz      :     1.074313  p :     3.149044
      px      :     1.053643
      py      :     1.021088
      dz2     :     0.023242  d :     0.088830
      dxz     :     0.023221
      dyz     :     0.012932
      dx2y2   :     0.014396
      dxy     :     0.015039
  7 C s       :     2.895648  s :     2.895648
      pz      :     1.070019  p :     3.138506
      px      :     1.049369
      py      :     1.019117
      dz2     :     0.020944  d :     0.086839
      dxz     :     0.025732
      dyz     :     0.016789
      dx2y2   :     0.010630
      dxy     :     0.012743
  8 H s       :     0.860002  s :     0.860002
  9 H s       :     0.862940  s :     0.862940
 10 H s       :     0.863435  s :     0.863435
 11 H s       :     0.862524  s :     0.862524
 12 H s       :     0.853015  s :     0.853015
 13 C s       :     2.847632  s :     2.847632
      pz      :     0.998122  p :     3.085809
      px      :     1.053047
      py      :     1.034640
      dz2     :     0.014094  d :     0.106315
      dxz     :     0.018209
      dyz     :     0.016451
      dx2y2   :     0.029764
      dxy     :     0.027797
 14 C s       :     2.840123  s :     2.840123
      pz      :     1.015314  p :     3.035073
      px      :     1.003511
      py      :     1.016248
      dz2     :     0.016796  d :     0.136483
      dxz     :     0.018704
      dyz     :     0.019209
      dx2y2   :     0.039840
      dxy     :     0.041935
 15 C s       :     2.898277  s :     2.898277
      pz      :     1.024338  p :     3.140882
      px      :     1.068480
      py      :     1.048064
      dz2     :     0.007935  d :     0.086954
      dxz     :     0.012920
      dyz     :     0.016271
      dx2y2   :     0.027636
      dxy     :     0.022191
 16 C s       :     2.896141  s :     2.896141
      pz      :     1.012581  p :     3.147469
      px      :     1.069592
      py      :     1.065296
      dz2     :     0.008358  d :     0.089098
      dxz     :     0.016453
      dyz     :     0.013755
      dx2y2   :     0.026850
      dxy     :     0.023682
 17 C s       :     2.897045  s :     2.897045
      pz      :     1.010965  p :     3.146372
      px      :     1.066266
      py      :     1.069141
      dz2     :     0.012909  d :     0.088624
      dxz     :     0.013223
      dyz     :     0.013577
      dx2y2   :     0.020723
      dxy     :     0.028192
 18 C s       :     2.893816  s :     2.893816
      pz      :     1.013810  p :     3.138210
      px      :     1.063883
      py      :     1.060517
      dz2     :     0.008242  d :     0.088528
      dxz     :     0.013503
      dyz     :     0.016346
      dx2y2   :     0.026060
      dxy     :     0.024376
 19 N s       :     3.235399  s :     3.235399
      pz      :     1.016620  p :     3.667792
      px      :     1.126284
      py      :     1.524887
      dz2     :     0.012827  d :     0.131908
      dxz     :     0.023154
      dyz     :     0.007268
      dx2y2   :     0.033206
      dxy     :     0.055453
 20 H s       :     0.849414  s :     0.849414
 21 H s       :     0.860870  s :     0.860870
 22 H s       :     0.860543  s :     0.860543
 23 H s       :     0.852541  s :     0.852541
 24 N s       :     3.244685  s :     3.244685
      pz      :     1.008478  p :     3.662400
      px      :     1.124237
      py      :     1.529685
      dz2     :     0.013029  d :     0.132880
      dxz     :     0.023998
      dyz     :     0.007075
      dx2y2   :     0.033168
      dxy     :     0.055610
 25 C s       :     2.844490  s :     2.844490
      pz      :     0.978333  p :     3.047589
      px      :     1.028407
      py      :     1.040850
      dz2     :     0.009001  d :     0.135381
      dxz     :     0.013558
      dyz     :     0.013729
      dx2y2   :     0.048512
      dxy     :     0.050582
 26 C s       :     2.901599  s :     2.901599
      pz      :     0.961482  p :     3.128242
      px      :     1.078453
      py      :     1.088307
      dz2     :     0.006253  d :     0.085695
      dxz     :     0.013416
      dyz     :     0.004195
      dx2y2   :     0.034196
      dxy     :     0.027635
 27 C s       :     2.896493  s :     2.896493
      pz      :     0.988271  p :     3.154055
      px      :     1.080140
      py      :     1.085644
      dz2     :     0.006253  d :     0.088251
      dxz     :     0.004260
      dyz     :     0.012855
      dx2y2   :     0.034063
      dxy     :     0.030821
 28 C s       :     2.900627  s :     2.900627
      pz      :     0.969890  p :     3.138238
      px      :     1.083404
      py      :     1.084943
      dz2     :     0.006229  d :     0.087866
      dxz     :     0.008440
      dyz     :     0.008926
      dx2y2   :     0.028466
      dxy     :     0.035805
 29 C s       :     2.896374  s :     2.896374
      pz      :     0.984932  p :     3.150684
      px      :     1.085069
      py      :     1.080683
      dz2     :     0.006197  d :     0.088851
      dxz     :     0.013162
      dyz     :     0.004066
      dx2y2   :     0.035460
      dxy     :     0.029966
 30 C s       :     2.901175  s :     2.901175
      pz      :     0.958217  p :     3.135033
      px      :     1.099219
      py      :     1.077597
      dz2     :     0.006408  d :     0.086010
      dxz     :     0.004585
      dyz     :     0.012475
      dx2y2   :     0.034524
      dxy     :     0.028017
 31 H s       :     0.851808  s :     0.851808
 32 H s       :     0.861855  s :     0.861855
 33 H s       :     0.862189  s :     0.862189
 34 H s       :     0.862001  s :     0.862001
 35 H s       :     0.844960  s :     0.844960
 36 H s       :     0.857008  s :     0.857008
 37 C s       :     2.843971  s :     2.843971
      pz      :     0.973493  p :     3.100576
      px      :     1.040377
      py      :     1.086707
      dz2     :     0.009457  d :     0.110165
      dxz     :     0.012421
      dyz     :     0.016351
      dx2y2   :     0.034799
      dxy     :     0.037137
 38 C s       :     2.895206  s :     2.895206
      pz      :     0.993335  p :     3.138059
      px      :     1.068257
      py      :     1.076467
      dz2     :     0.007861  d :     0.087213
      dxz     :     0.014461
      dyz     :     0.006052
      dx2y2   :     0.032583
      dxy     :     0.026256
 39 C s       :     2.895494  s :     2.895494
      pz      :     0.989830  p :     3.146932
      px      :     1.073376
      py      :     1.083726
      dz2     :     0.007326  d :     0.088841
      dxz     :     0.008701
      dyz     :     0.012365
      dx2y2   :     0.027133
      dxy     :     0.033316
 40 C s       :     2.898092  s :     2.898092
      pz      :     0.991632  p :     3.148893
      px      :     1.070732
      py      :     1.086529
      dz2     :     0.005970  d :     0.088018
      dxz     :     0.007467
      dyz     :     0.013869
      dx2y2   :     0.030027
      dxy     :     0.030686
 41 C s       :     2.895610  s :     2.895610
      pz      :     0.991322  p :     3.147084
      px      :     1.078821
      py      :     1.076941
      dz2     :     0.007858  d :     0.088982
      dxz     :     0.014726
      dyz     :     0.006113
      dx2y2   :     0.033541
      dxy     :     0.026744
 42 C s       :     2.894534  s :     2.894534
      pz      :     0.989621  p :     3.136726
      px      :     1.076998
      py      :     1.070107
      dz2     :     0.007563  d :     0.087328
      dxz     :     0.008506
      dyz     :     0.011887
      dx2y2   :     0.027086
      dxy     :     0.032286
 43 H s       :     0.863102  s :     0.863102
 44 H s       :     0.862531  s :     0.862531
 45 H s       :     0.864955  s :     0.864955
 46 H s       :     0.863488  s :     0.863488
 47 H s       :     0.853758  s :     0.853758


                      *****************************
                      * MAYER POPULATION ANALYSIS *
                      *****************************

  NA   - Mulliken gross atomic population
  ZA   - Total nuclear charge
  QA   - Mulliken gross atomic charge
  VA   - Mayer's total valence
  BVA  - Mayer's bonded valence
  FA   - Mayer's free valence

  ATOM       NA         ZA         QA         VA         BVA        FA
  0 C      6.2886     6.0000    -0.2886     3.7793     3.7793    -0.0000
  1 C      5.8709     6.0000     0.1291     3.6765     3.6765    -0.0000
  2 C      5.9189     6.0000     0.0811     3.7707     3.7707    -0.0000
  3 C      6.2883     6.0000    -0.2883     3.8031     3.8031    -0.0000
  4 C      6.2075     6.0000    -0.2075     3.8076     3.8076     0.0000
  5 C      6.2339     6.0000    -0.2339     3.8198     3.8198     0.0000
  6 C      6.2069     6.0000    -0.2069     3.8105     3.8105     0.0000
  7 C      6.2734     6.0000    -0.2734     3.7747     3.7747    -0.0000
  8 H      0.7765     1.0000     0.2235     0.9162     0.9162     0.0000
  9 H      0.7801     1.0000     0.2199     0.9127     0.9127     0.0000
 10 H      0.7795     1.0000     0.2205     0.9126     0.9126    -0.0000
 11 H      0.7790     1.0000     0.2210     0.9123     0.9123     0.0000
 12 H      0.7625     1.0000     0.2375     0.9095     0.9095    -0.0000
 13 C      6.0698     6.0000    -0.0698     3.7335     3.7335    -0.0000
 14 C      5.7806     6.0000     0.2194     3.8122     3.8122    -0.0000
 15 C      6.2386     6.0000    -0.2386     3.7428     3.7428    -0.0000
 16 C      6.2333     6.0000    -0.2333     3.8037     3.8037     0.0000
 17 C      6.2167     6.0000    -0.2167     3.8142     3.8142     0.0000
 18 C      6.2535     6.0000    -0.2535     3.7864     3.7864     0.0000
 19 N      7.2444     7.0000    -0.2444     2.9903     2.9903    -0.0000
 20 H      0.7566     1.0000     0.2434     0.9151     0.9151    -0.0000
 21 H      0.7743     1.0000     0.2257     0.9116     0.9116    -0.0000
 22 H      0.7747     1.0000     0.2253     0.9109     0.9109     0.0000
 23 H      0.7618     1.0000     0.2382     0.9108     0.9108     0.0000
 24 N      7.2533     7.0000    -0.2533     2.9821     2.9821    -0.0000
 25 C      5.7630     6.0000     0.2370     3.8384     3.8384     0.0000
 26 C      6.2471     6.0000    -0.2471     3.7788     3.7788    -0.0000
 27 C      6.2200     6.0000    -0.2200     3.8063     3.8063    -0.0000
 28 C      6.2222     6.0000    -0.2222     3.8157     3.8157     0.0000
 29 C      6.2215     6.0000    -0.2215     3.7939     3.7939    -0.0000
 30 C      6.2402     6.0000    -0.2402     3.7120     3.7120     0.0000
 31 H      0.7609     1.0000     0.2391     0.9132     0.9132     0.0000
 32 H      0.7770     1.0000     0.2230     0.9119     0.9119     0.0000
 33 H      0.7753     1.0000     0.2247     0.9109     0.9109     0.0000
 34 H      0.7748     1.0000     0.2252     0.9119     0.9119    -0.0000
 35 H      0.7402     1.0000     0.2598     0.9136     0.9136     0.0000
 36 H      0.7771     1.0000     0.2229     0.9138     0.9138    -0.0000
 37 C      5.8857     6.0000     0.1143     3.7577     3.7577    -0.0000
 38 C      6.2715     6.0000    -0.2715     3.8143     3.8143    -0.0000
 39 C      6.1995     6.0000    -0.1995     3.8157     3.8157    -0.0000
 40 C      6.2348     6.0000    -0.2348     3.8214     3.8214    -0.0000
 41 C      6.1995     6.0000    -0.1995     3.8141     3.8141     0.0000
 42 C      6.2772     6.0000    -0.2772     3.7963     3.7963     0.0000
 43 H      0.7858     1.0000     0.2142     0.9194     0.9194    -0.0000
 44 H      0.7809     1.0000     0.2191     0.9130     0.9130     0.0000
 45 H      0.7831     1.0000     0.2169     0.9139     0.9139    -0.0000
 46 H      0.7817     1.0000     0.2183     0.9135     0.9135     0.0000
 47 H      0.7577     1.0000     0.2423     0.9046     0.9046     0.0000

  Mayer bond orders larger than 0.100000
B(  0-C ,  1-C ) :   1.7032 B(  0-C , 36-H ) :   0.9138 B(  0-C , 37-C ) :   1.0482 
B(  1-C ,  2-C ) :   1.0282 B(  1-C , 13-C ) :   1.0050 B(  2-C ,  3-C ) :   1.3670 
B(  2-C ,  7-C ) :   1.3647 B(  3-C ,  4-C ) :   1.4282 B(  3-C ,  8-H ) :   0.9164 
B(  4-C ,  5-C ) :   1.4164 B(  4-C ,  9-H ) :   0.9200 B(  5-C ,  6-C ) :   1.4150 
B(  5-C , 10-H ) :   0.9189 B(  6-C ,  7-C ) :   1.4302 B(  6-C , 11-H ) :   0.9199 
B(  7-C , 12-H ) :   0.9113 B( 13-C , 14-C ) :   1.3289 B( 13-C , 18-C ) :   1.3862 
B( 14-C , 15-C ) :   1.3203 B( 14-C , 19-N ) :   1.1168 B( 15-C , 16-C ) :   1.4254 
B( 15-C , 20-H ) :   0.8989 B( 16-C , 17-C ) :   1.3966 B( 16-C , 21-H ) :   0.9187 
B( 17-C , 18-C ) :   1.4374 B( 17-C , 22-H ) :   0.9176 B( 18-C , 23-H ) :   0.9129 
B( 19-N , 24-N ) :   1.7356 B( 24-N , 25-C ) :   1.1012 B( 25-C , 26-C ) :   1.3699 
B( 25-C , 30-C ) :   1.3070 B( 26-C , 27-C ) :   1.4148 B( 26-C , 31-H ) :   0.9049 
B( 27-C , 28-C ) :   1.4301 B( 27-C , 32-H ) :   0.9199 B( 28-C , 29-C ) :   1.3978 
B( 28-C , 33-H ) :   0.9183 B( 29-C , 30-C ) :   1.4322 B( 29-C , 34-H ) :   0.9200 
B( 30-C , 35-H ) :   0.8891 B( 37-C , 38-C ) :   1.3540 B( 37-C , 42-C ) :   1.3654 
B( 38-C , 39-C ) :   1.4323 B( 38-C , 43-H ) :   0.9232 B( 39-C , 40-C ) :   1.4183 
B( 39-C , 44-H ) :   0.9198 B( 40-C , 41-C ) :   1.4069 B( 40-C , 45-H ) :   0.9203 
B( 41-C , 42-C ) :   1.4404 B( 41-C , 46-H ) :   0.9208 B( 42-C , 47-H ) :   0.9085 


-------
TIMINGS
-------

Total SCF time: 0 days 0 hours 10 min 37 sec 

Total time                  ....     637.232 sec
Sum of individual times     ....     628.357 sec  ( 98.6%)

Fock matrix formation       ....     590.304 sec  ( 92.6%)
  Split-RI-J                ....      36.398 sec  (  6.2% of F)
  Chain of spheres X        ....     469.869 sec  ( 79.6% of F)
  XC integration            ....      68.158 sec  ( 11.5% of F)
    Basis function eval.    ....      23.056 sec  ( 33.8% of XC)
    Density eval.           ....      15.841 sec  ( 23.2% of XC)
    XC-Functional eval.     ....       4.223 sec  (  6.2% of XC)
    XC-Potential eval.      ....       7.855 sec  ( 11.5% of XC)
Diagonalization             ....       3.303 sec  (  0.5%)
Density matrix formation    ....       0.236 sec  (  0.0%)
Population analysis         ....       0.420 sec  (  0.1%)
Initial guess               ....       0.344 sec  (  0.1%)
Orbital Transformation      ....       0.000 sec  (  0.0%)
Orbital Orthonormalization  ....       0.000 sec  (  0.0%)
DIIS solution               ....       6.380 sec  (  1.0%)
SOSCF solution              ....       2.083 sec  (  0.3%)
Grid generation             ....      25.288 sec  (  4.0%)

Maximum memory used throughout the entire SCF-calculation: 160.6 MB


-------------------------------------------------------------------------------
                          DFT DISPERSION CORRECTION                            
                                                                               
                              DFTD3 V3.1  Rev 1                                
                          USING Becke-Johnson damping                          
-------------------------------------------------------------------------------
The PBEh-3c composite method is recognized
Using three-body term ABC
Active option DFTDOPT                   ...         4   

molecular C6(AA) [au] = 30408.790020 


            DFT-D V3
 parameters
 s6 scaling factor         :     1.0000 
 a1 scaling factor         :     0.4860 
 s8 scaling factor         :     0.0000 
 a2 scaling factor         :     4.5000 
 Damping factor alpha9(ATM):    16.0000 
 ad hoc parameters k1-k3   :    16.0000     1.3333    -4.0000 

 Edisp/kcal,au: -25.815794768050  -0.041140083268 
 E6   /kcal   : -26.116545609 
 E8   /kcal   :  -0.000000000 
 E6(ABC)      :   0.300750840 
 % E8         :   0.000000000 
 % E6(ABC)    :  -1.164987726 

-------------------------   ----------------
Dispersion correction           -0.041140083
-------------------------   ----------------

------------------   -----------------
gCP correction             0.065901746
------------------   -----------------

-------------------------   --------------------
FINAL SINGLE POINT ENERGY     -1109.799732284409
-------------------------   --------------------


                            ***************************************
                            *     ORCA property calculations      *
                            ***************************************

                                    ---------------------
                                    Active property flags
                                    ---------------------
   (+) Dipole Moment


------------------------------------------------------------------------------
                       ORCA ELECTRIC PROPERTIES CALCULATION
------------------------------------------------------------------------------

Dipole Moment Calculation                       ... on
Quadrupole Moment Calculation                   ... off
Polarizability Calculation                      ... off
GBWName                                         ... pbeh-3c.gbw
Electron density                                ... pbeh-3c.scfp
The origin for moment calculation is the CENTER OF MASS  = (-0.001960, -0.089545 -0.093211)

-------------
DIPOLE MOMENT
-------------
                                X             Y             Z
Electronic contribution:      0.22683      -2.12483      -2.08662
Nuclear contribution   :     -0.38103       2.15274       2.04144
                        -----------------------------------------
Total Dipole Moment    :     -0.15420       0.02792      -0.04517
                        -----------------------------------------
Magnitude (a.u.)       :      0.16309
Magnitude (Debye)      :      0.41454



--------------------
Rotational spectrum 
--------------------
 
Rotational constants in cm-1:     0.008885     0.004208     0.003914 
Rotational constants in MHz :   266.367680   126.155370   117.341786 

 Dipole components along the rotational axes: 
x,y,z [a.u.] :    -0.154200    -0.027917    -0.045175 
x,y,z [Debye]:    -0.391946    -0.070959    -0.114825 

 

Timings for individual modules:

Sum of individual times         ...      641.648 sec (=  10.694 min)
GTO integral calculation        ...        3.744 sec (=   0.062 min)   0.6 %
SCF iterations                  ...      637.904 sec (=  10.632 min)  99.4 %
                             ****ORCA TERMINATED NORMALLY****
TOTAL RUN TIME: 0 days 0 hours 10 minutes 46 seconds 894 msec
