
                                 *****************
                                 * O   R   C   A *
                                 *****************

                                            #,                                       
                                            ###                                      
                                            ####                                     
                                            #####                                    
                                            ######                                   
                                           ########,                                 
                                     ,,################,,,,,                         
                               ,,#################################,,                 
                          ,,##########################################,,             
                       ,#########################################, ''#####,          
                    ,#############################################,,   '####,        
                  ,##################################################,,,,####,       
                ,###########''''           ''''###############################       
              ,#####''   ,,,,##########,,,,          '''####'''          '####       
            ,##' ,,,,###########################,,,                        '##       
           ' ,,###''''                  '''############,,,                           
         ,,##''                                '''############,,,,        ,,,,,,###''
      ,#''                                            '''#######################'''  
     '                                                          ''''####''''         
             ,#######,   #######,   ,#######,      ##                                
            ,#'     '#,  ##    ##  ,#'     '#,    #''#        ######   ,####,        
            ##       ##  ##   ,#'  ##            #'  '#       #        #'  '#        
            ##       ##  #######   ##           ,######,      #####,   #    #        
            '#,     ,#'  ##    ##  '#,     ,#' ,#      #,         ##   #,  ,#        
             '#######'   ##     ##  '#######'  #'      '#     #####' # '####'        



                  #######################################################
                  #                        -***-                        #
                  #          Department of theory and spectroscopy      #
                  #    Directorship and core code : Frank Neese         #
                  #        Max Planck Institute fuer Kohlenforschung    #
                  #                Kaiser Wilhelm Platz 1               #
                  #                 D-45470 Muelheim/Ruhr               #
                  #                      Germany                        #
                  #                                                     #
                  #                  All rights reserved                #
                  #                        -***-                        #
                  #######################################################


                         Program Version 5.0.3 -  RELEASE  -


 With contributions from (in alphabetic order):
   Daniel Aravena         : Magnetic Suceptibility
   Michael Atanasov       : Ab Initio Ligand Field Theory (pilot matlab implementation)
   Alexander A. Auer      : GIAO ZORA, VPT2 properties, NMR spectrum
   Ute Becker             : Parallelization
   Giovanni Bistoni       : ED, misc. LED, open-shell LED, HFLD
   Martin Brehm           : Molecular dynamics
   Dmytro Bykov           : SCF Hessian
   Vijay G. Chilkuri      : MRCI spin determinant printing, contributions to CSF-ICE
   Dipayan Datta          : RHF DLPNO-CCSD density
   Achintya Kumar Dutta   : EOM-CC, STEOM-CC
   Dmitry Ganyushin       : Spin-Orbit,Spin-Spin,Magnetic field MRCI
   Miquel Garcia          : C-PCM and meta-GGA Hessian, CC/C-PCM, Gaussian charge scheme
   Yang Guo               : DLPNO-NEVPT2, F12-NEVPT2, CIM, IAO-localization
   Andreas Hansen         : Spin unrestricted coupled pair/coupled cluster methods
   Benjamin Helmich-Paris : MC-RPA, TRAH-SCF, COSX integrals
   Lee Huntington         : MR-EOM, pCC
   Robert Izsak           : Overlap fitted RIJCOSX, COSX-SCS-MP3, EOM
   Marcus Kettner         : VPT2
   Christian Kollmar      : KDIIS, OOCD, Brueckner-CCSD(T), CCSD density, CASPT2, CASPT2-K
   Simone Kossmann        : Meta GGA functionals, TD-DFT gradient, OOMP2, MP2 Hessian
   Martin Krupicka        : Initial AUTO-CI
   Lucas Lang             : DCDCAS
   Marvin Lechner         : AUTO-CI (C++ implementation), FIC-MRCC
   Dagmar Lenk            : GEPOL surface, SMD
   Dimitrios Liakos       : Extrapolation schemes; Compound Job, initial MDCI parallelization
   Dimitrios Manganas     : Further ROCIS development; embedding schemes
   Dimitrios Pantazis     : SARC Basis sets
   Anastasios Papadopoulos: AUTO-CI, single reference methods and gradients
   Taras Petrenko         : DFT Hessian,TD-DFT gradient, ASA, ECA, R-Raman, ABS, FL, XAS/XES, NRVS
   Peter Pinski           : DLPNO-MP2, DLPNO-MP2 Gradient
   Christoph Reimann      : Effective Core Potentials
   Marius Retegan         : Local ZFS, SOC
   Christoph Riplinger    : Optimizer, TS searches, QM/MM, DLPNO-CCSD(T), (RO)-DLPNO pert. Triples
   Tobias Risthaus        : Range-separated hybrids, TD-DFT gradient, RPA, STAB
   Michael Roemelt        : Original ROCIS implementation
   Masaaki Saitow         : Open-shell DLPNO-CCSD energy and density
   Barbara Sandhoefer     : DKH picture change effects
   Avijit Sen             : IP-ROCIS
   Kantharuban Sivalingam : CASSCF convergence, NEVPT2, FIC-MRCI
   Bernardo de Souza      : ESD, SOC TD-DFT
   Georgi Stoychev        : AutoAux, RI-MP2 NMR, DLPNO-MP2 response
   Willem Van den Heuvel  : Paramagnetic NMR
   Boris Wezisla          : Elementary symmetry handling
   Frank Wennmohs         : Technical directorship


 We gratefully acknowledge several colleagues who have allowed us to
 interface, adapt or use parts of their codes:
   Stefan Grimme, W. Hujo, H. Kruse, P. Pracht,  : VdW corrections, initial TS optimization,
                  C. Bannwarth, S. Ehlert          DFT functionals, gCP, sTDA/sTD-DF
   Ed Valeev, F. Pavosevic, A. Kumar             : LibInt (2-el integral package), F12 methods
   Garnet Chan, S. Sharma, J. Yang, R. Olivares  : DMRG
   Ulf Ekstrom                                   : XCFun DFT Library
   Mihaly Kallay                                 : mrcc  (arbitrary order and MRCC methods)
   Jiri Pittner, Ondrej Demel                    : Mk-CCSD
   Frank Weinhold                                : gennbo (NPA and NBO analysis)
   Christopher J. Cramer and Donald G. Truhlar   : smd solvation model
   Lars Goerigk                                  : TD-DFT with DH, B97 family of functionals
   V. Asgeirsson, H. Jonsson                     : NEB implementation
   FAccTs GmbH                                   : IRC, NEB, NEB-TS, DLPNO-Multilevel, CI-OPT
                                                   MM, QMMM, 2- and 3-layer-ONIOM, Crystal-QMMM,
                                                   LR-CPCM, SF, NACMEs, symmetry and pop. for TD-DFT,
                                                   nearIR, NL-DFT gradient (VV10), updates on ESD,
                                                   ML-optimized integration grids
   S Lehtola, MJT Oliveira, MAL Marques          : LibXC Library
   Liviu Ungur et al                             : ANISO software


 Your calculation uses the libint2 library for the computation of 2-el integrals
 For citations please refer to: http://libint.valeyev.net

 Your ORCA version has been built with support for libXC version: 5.1.0
 For citations please refer to: https://tddft.org/programs/libxc/

 This ORCA versions uses:
   CBLAS   interface :  Fast vector & matrix operations
   LAPACKE interface :  Fast linear algebra routines
   SCALAPACK package :  Parallel linear algebra routines
   Shared memory     :  Shared parallel matrices
   BLAS/LAPACK       :  OpenBLAS 0.3.15  USE64BITINT DYNAMIC_ARCH NO_AFFINITY Haswell SINGLE_THREADED
        Core in use  :  Haswell
   Copyright (c) 2011-2014, The OpenBLAS Project




***************************************
The coordinates will be read from file: RKT17.xyz
***************************************


Your calculation utilizes the geometrical counterpoise correction gCP
Please cite in your paper:
H.Kruse, S. Grimme J.Chem.Phys., 136, (2012), 154101 
   

Your calculation utilizes the atom-pairwise dispersion correction
with the Becke-Johnson damping scheme (D3BJ)
Cite in your paper:
S.Grimme, S.Ehrlich, L.Goerigk, J Comput Chem, (2011), 32, 1456–1465 
S.Grimme, J.Antony, S.Ehrlich and H.Krieg, J.Chem.Phys., 132, (2010), 154104 
   

Your calculation employs the composite approach PBEh-3c.
Please cite in your paper:
S. Grimme, J. G. Brandenburg, C. Bannwarth, A. Hansen J.Chem.Phys., 143, (2015), 054107 
   

================================================================================

----- Orbital basis set information -----
Your calculation utilizes the basis: def2-mSVP

----- AuxJ basis set information -----
Your calculation utilizes the auxiliary basis: def2/J
   F. Weigend, Phys. Chem. Chem. Phys. 8, 1057 (2006).

================================================================================
                                        WARNINGS
                       Please study these warnings very carefully!
================================================================================


WARNING: your system is open-shell and RHF/RKS was chosen
  ===> : WILL SWITCH to UHF/UKS


INFO   : the flag for use of the SHARK integral package has been found!

================================================================================
                                       INPUT FILE
================================================================================
NAME = pbeh-3c.inp
|  1> ! PBEh-3c def2/J TightSCF DefGrid3
|  2> 
|  3> %maxcore 60000
|  4> 
|  5> %scf
|  6>     guess hueckel
|  7> end
|  8> 
|  9> %pal
| 10> nprocs 4
| 11> end
| 12> 
| 13> *xyzfile 0 3 RKT17.xyz
| 14> 
| 15>                          ****END OF INPUT****
================================================================================

                       ****************************
                       * Single Point Calculation *
                       ****************************

---------------------------------
CARTESIAN COORDINATES (ANGSTROEM)
---------------------------------
  Cl     0.163103   -1.289889    0.000000
  H     -0.326205    0.096894    0.000000
  O      0.163103    1.192995    0.000000

----------------------------
CARTESIAN COORDINATES (A.U.)
----------------------------
  NO LB      ZA    FRAG     MASS         X           Y           Z
   0 Cl   17.0000    0    35.453    0.308220   -2.437537    0.000000
   1 H     1.0000    0     1.008   -0.616439    0.183103    0.000000
   2 O     8.0000    0    15.999    0.308220    2.254433    0.000000

--------------------------------
INTERNAL COORDINATES (ANGSTROEM)
--------------------------------
 Cl     0   0   0     0.000000000000     0.00000000     0.00000000
 H      1   0   0     1.470574616107     0.00000000     0.00000000
 O      2   1   0     1.200357920693   136.50889862     0.00000000

---------------------------
INTERNAL COORDINATES (A.U.)
---------------------------
 Cl     0   0   0     0.000000000000     0.00000000     0.00000000
 H      1   0   0     2.778983283938     0.00000000     0.00000000
 O      2   1   0     2.268347732792   136.50889862     0.00000000

---------------------
BASIS SET INFORMATION
---------------------
There are 3 groups of distinct atoms

 Group   1 Type Cl  : 10s7p1d contracted to 4s3p1d pattern {5311/511/1}
 Group   2 Type H   : 4s contracted to 2s pattern {31}
 Group   3 Type O   : 8s4p1d contracted to 4s2p1d pattern {5111/31/1}

Atom   0Cl   basis set group =>   1
Atom   1H    basis set group =>   2
Atom   2O    basis set group =>   3
---------------------------------
AUXILIARY/J BASIS SET INFORMATION
---------------------------------
There are 3 groups of distinct atoms

 Group   1 Type Cl  : 14s5p5d2f1g contracted to 8s4p3d1f1g pattern {71111111/2111/311/2/1}
 Group   2 Type H   : 5s2p1d contracted to 3s1p1d pattern {311/2/1}
 Group   3 Type O   : 12s5p4d2f1g contracted to 6s4p3d1f1g pattern {711111/2111/211/2/1}

Atom   0Cl   basis set group =>   1
Atom   1H    basis set group =>   2
Atom   2O    basis set group =>   3


           ************************************************************
           *        Program running with 4 parallel MPI-processes     *
           *              working on a common directory               *
           ************************************************************
------------------------------------------------------------------------------
                           ORCA GTO INTEGRAL CALCULATION
                           -- RI-GTO INTEGRALS CHOSEN --
------------------------------------------------------------------------------
------------------------------------------------------------------------------
                   ___                                                        
                  /   \      - P O W E R E D   B Y -                         
                 /     \                                                     
                 |  |  |   _    _      __       _____    __    __             
                 |  |  |  | |  | |    /  \     |  _  \  |  |  /  |          
                  \  \/   | |  | |   /    \    | | | |  |  | /  /          
                 / \  \   | |__| |  /  /\  \   | |_| |  |  |/  /          
                |  |  |   |  __  | /  /__\  \  |    /   |      \           
                |  |  |   | |  | | |   __   |  |    \   |  |\   \          
                \     /   | |  | | |  |  |  |  | |\  \  |  | \   \       
                 \___/    |_|  |_| |__|  |__|  |_| \__\ |__|  \__/        
                                                                              
                      - O R C A' S   B I G   F R I E N D -                    
                                      &                                       
                       - I N T E G R A L  F E E D E R -                       
                                                                              
 v1 FN, 2020, v2 2021                                                         
------------------------------------------------------------------------------


Reading SHARK input file pbeh-3c.SHARKINP.tmp ... ok
----------------------
SHARK INTEGRAL PACKAGE
----------------------

Number of atoms                             ...      3
Number of basis functions                   ...     35
Number of shells                            ...     17
Maximum angular momentum                    ...      2
Integral batch strategy                     ... SHARK/LIBINT Hybrid
RI-J (if used) integral strategy            ... SPLIT-RIJ (Revised 2003 algorithm where possible)
Printlevel                                  ...      1
Contraction scheme used                     ... SEGMENTED contraction
Coulomb Range Separation                    ... NOT USED
Exchange Range Separation                   ... NOT USED
Finite Nucleus Model                        ... NOT USED
Auxiliary Coulomb fitting basis             ... AVAILABLE
   # of basis functions in Aux-J            ...    111
   # of shells in Aux-J                     ...     37
   Maximum angular momentum in Aux-J        ...      4
Auxiliary J/K fitting basis                 ... NOT available
Auxiliary Correlation fitting basis         ... NOT available
Auxiliary 'external' fitting basis          ... NOT available
Integral threshold                          ...     2.500000e-11
Primitive cut-off                           ...     2.500000e-12
Primitive pair pre-selection threshold      ...     2.500000e-12

Calculating pre-screening integrals         ... done (  0.0 sec) Dimension = 17
Organizing shell pair data                  ... done (  0.0 sec)
Shell pair information
Total number of shell pairs                 ...       153
Shell pairs after pre-screening             ...       147
Total number of primitive shell pairs       ...       669
Primitive shell pairs kept                  ...       548
          la=0 lb=0:     51 shell pairs
          la=1 lb=0:     48 shell pairs
          la=1 lb=1:     15 shell pairs
          la=2 lb=0:     20 shell pairs
          la=2 lb=1:     10 shell pairs
          la=2 lb=2:      3 shell pairs

Calculating one electron integrals          ... done (  0.0 sec)
Calculating RI/J V-Matrix + Cholesky decomp.... done (  0.0 sec)
Calculating Nuclear repulsion               ... done (  0.0 sec) ENN=     38.629833722317 Eh

SHARK setup successfully completed in   0.2 seconds

Maximum memory used throughout the entire GTOINT-calculation: 8.8 MB


           ************************************************************
           *        Program running with 4 parallel MPI-processes     *
           *              working on a common directory               *
           ************************************************************
-------------------------------------------------------------------------------
                                 ORCA SCF
-------------------------------------------------------------------------------

------------
SCF SETTINGS
------------
Hamiltonian:
 Density Functional     Method          .... DFT(GTOs)
 Exchange Functional    Exchange        .... PBE
   PBE kappa parameter   XKappa         ....  1.024500
   PBE mue parameter    XMuePBE         ....  0.123457
 Correlation Functional Correlation     .... PBE
   PBE beta parameter  CBetaPBE         ....  0.030000
 LDA part of GGA corr.  LDAOpt          .... PW91-LDA
 Gradients option       PostSCFGGA      .... off
 Hybrid DFT is turned on
   Fraction HF Exchange ScalHFX         ....  0.420000
   Scaling of DF-GGA-X  ScalDFX         ....  0.580000
   Scaling of DF-GGA-C  ScalDFC         ....  1.000000
   Scaling of DF-LDA-C  ScalLDAC        ....  1.000000
   Perturbative correction              ....  0.000000
   Density functional embedding theory  .... OFF
 RI-approximation to the Coulomb term is turned on
   Number of AuxJ basis functions       .... 111
   RIJ-ON(X) (HFX calculated with O(N)) .... on
   Number of AuxJ basis functions       .... 111
   RIJ-COSX (HFX calculated with COS-X)).... on


General Settings:
 Integral files         IntName         .... pbeh-3c
 Hartree-Fock type      HFTyp           .... UHF
 Total Charge           Charge          ....    0
 Multiplicity           Mult            ....    3
 Number of Electrons    NEL             ....   26
 Basis Dimension        Dim             ....   35
 Nuclear Repulsion      ENuc            ....     38.6298337223 Eh

Convergence Acceleration:
 DIIS                   CNVDIIS         .... on
   Start iteration      DIISMaxIt       ....    12
   Startup error        DIISStart       ....  0.200000
   # of expansion vecs  DIISMaxEq       ....     5
   Bias factor          DIISBfac        ....   1.050
   Max. coefficient     DIISMaxC        ....  10.000
 Trust-Rad. Augm. Hess. CNVTRAH         .... auto
   Auto Start mean grad. ratio tolernc. ....  1.125000
   Auto Start start iteration           ....    20
   Auto Start num. interpolation iter.  ....    10
   Max. Number of Micro iterations      ....    16
   Max. Number of Macro iterations      .... Maxiter - #DIIS iter
   Number of Davidson start vectors     ....     2
   Converg. threshold I  (grad. norm)   ....   1.000e-05
   Converg. threshold II (energy diff.) ....   1.000e-08
   Grad. Scal. Fac. for Micro threshold ....   0.100
   Minimum threshold for Micro iter.    ....   0.010
   NR start threshold (gradient norm)   ....   0.001
   Initial trust radius                 ....   0.400
   Minimum AH scaling param. (alpha)    ....   1.000
   Maximum AH scaling param. (alpha)    .... 1000.000
   Orbital update algorithm             .... Taylor
   White noise on init. David. guess    .... on
   Maximum white noise                  ....   0.010
   Quad. conv. algorithm                .... NR
   COSX micro iterations for RIJONX calc.... off
 SOSCF                  CNVSOSCF        .... off
 Level Shifting         CNVShift        .... on
   Level shift para.    LevelShift      ....    0.2500
   Turn off err/grad.   ShiftErr        ....    0.0010
 Zerner damping         CNVZerner       .... off
 Static damping         CNVDamp         .... on
   Fraction old density DampFac         ....    0.7000
   Max. Damping (<1)    DampMax         ....    0.9800
   Min. Damping (>=0)   DampMin         ....    0.0000
   Turn off err/grad.   DampErr         ....    0.1000
 Fernandez-Rico         CNVRico         .... off

SCF Procedure:
 Maximum # iterations   MaxIter         ....   125
 SCF integral mode      SCFMode         .... Direct
   Integral package                     .... SHARK and LIBINT hybrid scheme
 Reset frequency        DirectResetFreq ....    20
 Integral Threshold     Thresh          ....  2.500e-11 Eh
 Primitive CutOff       TCut            ....  2.500e-12 Eh

Convergence Tolerance:
 Convergence Check Mode ConvCheckMode   .... Total+1el-Energy
 Convergence forced     ConvForced      .... 0
 Energy Change          TolE            ....  1.000e-08 Eh
 1-El. energy change                    ....  1.000e-05 Eh
 DIIS Error             TolErr          ....  5.000e-07


Diagonalization of the overlap matrix:
Smallest eigenvalue                        ... 3.971e-02
Time for diagonalization                   ...    0.001 sec
Threshold for overlap eigenvalues          ... 1.000e-08
Number of eigenvalues below threshold      ... 0
Time for construction of square roots      ...    0.002 sec
Total time needed                          ...    0.004 sec

--------------------------------
INITIAL GUESS: MINIMAL BASIS EHT
--------------------------------
The minimal basis has 15 functions
EHT matrix was diagonalized
Basis set overlap was calculated now projecting the orbitals
Using GuessMode=FMatrix for the initial guess
C*T matrix was formed
Effective Fockian was calculated
Effective Fockian was diagonalized
Initial density was built
                      ------------------
                      INITIAL GUESS DONE
                      ------------------
-------------------
DFT GRID GENERATION
-------------------

General Integration Accuracy     IntAcc      ... 4.959
Radial Grid Type                 RadialGrid  ... OptM3 with GC (2021)
Angular Grid (max. ang.)         AngularGrid ... 6 (Lebedev-590)
Angular grid pruning method      GridPruning ... 4 (adaptive)
Weight generation scheme         WeightScheme... Becke
Basis function cutoff            BFCut       ... 1.0000e-11
Integration weight cutoff        WCut        ... 1.0000e-14
Angular grids for H and He will be reduced by one unit
Partially contracted basis set               ... off
Rotationally invariant grid construction     ... off

Total number of grid points                  ...    40016
Total number of batches                      ...      627
Average number of points per batch           ...       63
Average number of grid points per atom       ...    13339
Time for grid setup =    0.675 sec

--------------------
COSX GRID GENERATION
--------------------

GRIDX 1
-------
General Integration Accuracy     IntAcc      ... 4.020
Radial Grid Type                 RadialGrid  ... OptM3 with GC (2021)
Angular Grid (max. ang.)         AngularGrid ... 2 (Lebedev-110)
Angular grid pruning method      GridPruning ... 4 (adaptive)
Weight generation scheme         WeightScheme... Becke
Basis function cutoff            BFCut       ... 1.0000e-11
Integration weight cutoff        WCut        ... 1.0000e-14
Angular grids for H and He will be reduced by one unit
Partially contracted basis set               ... on
Rotationally invariant grid construction     ... off

Total number of grid points                  ...     4678
Total number of batches                      ...       75
Average number of points per batch           ...       62
Average number of grid points per atom       ...     1559
UseSFitting                                  ... on

GRIDX 2
-------
General Integration Accuracy     IntAcc      ... 4.338
Radial Grid Type                 RadialGrid  ... OptM3 with GC (2021)
Angular Grid (max. ang.)         AngularGrid ... 3 (Lebedev-194)
Angular grid pruning method      GridPruning ... 4 (adaptive)
Weight generation scheme         WeightScheme... Becke
Basis function cutoff            BFCut       ... 1.0000e-11
Integration weight cutoff        WCut        ... 1.0000e-14
Angular grids for H and He will be reduced by one unit
Partially contracted basis set               ... on
Rotationally invariant grid construction     ... off

Total number of grid points                  ...    10999
Total number of batches                      ...      173
Average number of points per batch           ...       63
Average number of grid points per atom       ...     3666
UseSFitting                                  ... on

GRIDX 3
-------
General Integration Accuracy     IntAcc      ... 4.871
Radial Grid Type                 RadialGrid  ... OptM3 with GC (2021)
Angular Grid (max. ang.)         AngularGrid ... 4 (Lebedev-302)
Angular grid pruning method      GridPruning ... 4 (adaptive)
Weight generation scheme         WeightScheme... Becke
Basis function cutoff            BFCut       ... 1.0000e-11
Integration weight cutoff        WCut        ... 1.0000e-14
Angular grids for H and He will be reduced by one unit
Partially contracted basis set               ... on
Rotationally invariant grid construction     ... off

Total number of grid points                  ...    20194
Total number of batches                      ...      317
Average number of points per batch           ...       63
Average number of grid points per atom       ...     6731
UseSFitting                                  ... on

Time for X-Grid setup             =    0.324 sec

--------------
SCF ITERATIONS
--------------
ITER       Energy         Delta-E        Max-DP      RMS-DP      [F,P]     Damp
               ***  Starting incremental Fock matrix formation  ***
  0   -533.8701833373   0.000000000000 1.32144501  0.04576353  0.4484648 0.7000
  1   -534.2576003772  -0.387417039960 0.36271381  0.01366578  0.2038112 0.7000
                               ***Turning on DIIS***
  2   -534.4579386731  -0.200338295927 0.26422362  0.00987605  0.1411007 0.7000
  3   -534.6552254684  -0.197286795253 0.64033443  0.02380346  0.0951930 0.0000
  4   -535.1805112191  -0.525285750668 0.03808794  0.00258479  0.0601377 0.0000
  5   -535.1932016468  -0.012690427763 0.01783204  0.00141423  0.0223887 0.0000
  6   -535.1981257643  -0.004924117449 0.01757819  0.00120104  0.0146451 0.0000
  7   -535.2004808334  -0.002355069134 0.01401218  0.00073633  0.0122677 0.0000
  8   -535.2016718344  -0.001191000984 0.01082453  0.00056137  0.0087352 0.0000
  9   -535.2023818800  -0.000710045585 0.00830529  0.00048989  0.0058531 0.0000
 10   -535.2028600645  -0.000478184491 0.00609907  0.00042841  0.0037107 0.0000
 11   -535.2031736777  -0.000313613220 0.00623548  0.00039419  0.0025060 0.0000
 12   -535.2033932996  -0.000219621883 0.00559603  0.00033012  0.0020178 0.0000
 13   -535.2035367763  -0.000143476708 0.00666487  0.00037107  0.0016260 0.0000
 14   -535.2036556626  -0.000118886360 0.00251707  0.00015991  0.0012331 0.0000
 15   -535.2036997955  -0.000044132896 0.00584444  0.00030662  0.0010102 0.0000
 16   -535.2037540308  -0.000054235250 0.00561887  0.00034211  0.0008667 0.0000
               *** Restarting incremental Fock matrix formation ***
                                   *** Resetting DIIS ***
 17   -535.2037916763  -0.000037645564 0.00063960  0.00004467  0.0003083 0.0000
 18   -535.2037946207  -0.000002944397 0.00056702  0.00004415  0.0002464 0.0000
 19   -535.2037967740  -0.000002153244 0.00052430  0.00003910  0.0002427 0.0000
 20   -535.2037982754  -0.000001501423 0.00090562  0.00005978  0.0001642 0.0000
 21   -535.2037996650  -0.000001389584 0.00049903  0.00002812  0.0001146 0.0000
 22   -535.2038000313  -0.000000366291 0.00034542  0.00001707  0.0000657 0.0000
 23   -535.2038001607  -0.000000129389 0.00021322  0.00001040  0.0000378 0.0000
 24   -535.2038002075  -0.000000046842 0.00012638  0.00000604  0.0000155 0.0000
                 **** Energy Check signals convergence ****

               *****************************************************
               *                     SUCCESS                       *
               *           SCF CONVERGED AFTER  25 CYCLES          *
               *****************************************************

Old exchange energy                            =    -15.130442317 Eh
New exchange energy                            =    -15.130446597 Eh
Exchange energy change after final integration =     -0.000004280 Eh
Total energy after final integration           =   -535.203804497 Eh
Final COS-X integration done in                =     0.171 sec

----------------
TOTAL SCF ENERGY
----------------

Total Energy       :         -535.20380450 Eh          -14563.63592 eV

Components:
Nuclear Repulsion  :           38.62983372 Eh            1051.17122 eV
Electronic Energy  :         -573.83363822 Eh          -15614.80714 eV
One Electron Energy:         -815.80614930 Eh          -22199.21391 eV
Two Electron Energy:          241.97251108 Eh            6584.40677 eV
Max COSX asymmetry :            0.00000026 Eh               0.00001 eV

Virial components:
Potential Energy   :        -1069.51033656 Eh          -29102.85582 eV
Kinetic Energy     :          534.30653206 Eh           14539.21990 eV
Virial Ratio       :            2.00167932


DFT components:
N(Alpha)           :       13.999999743701 electrons
N(Beta)            :       11.999999732893 electrons
N(Total)           :       25.999999476594 electrons
E(X)               :      -20.192913167492 Eh       
E(C)               :       -1.261502412212 Eh       
E(XC)              :      -21.454415579704 Eh       
DFET-embed. en.    :        0.000000000000 Eh       

---------------
SCF CONVERGENCE
---------------

  Last Energy change         ...   -9.5271e-09  Tolerance :   1.0000e-08
  Last MAX-Density change    ...    0.0000e+00  Tolerance :   1.0000e-07
  Last RMS-Density change    ...    0.0000e+00  Tolerance :   5.0000e-09
  Last DIIS Error            ...    2.1689e-06  Tolerance :   5.0000e-07

             **** THE GBW FILE WAS UPDATED (pbeh-3c.gbw) ****
             **** DENSITY pbeh-3c.scfp WAS UPDATED ****
             **** ENERGY FILE WAS UPDATED (pbeh-3c.en.tmp) ****
----------------------
UHF SPIN CONTAMINATION
----------------------

Warning: in a DFT calculation there is little theoretical justification to 
         calculate <S**2> as in Hartree-Fock theory. We will do it anyways
         but you should keep in mind that the values have only limited relevance

Expectation value of <S**2>     :     2.014018
Ideal value S*(S+1) for S=1.0   :     2.000000
Deviation                       :     0.014018

             **** THE GBW FILE WAS UPDATED (pbeh-3c.gbw) ****
             **** DENSITY pbeh-3c.scfp WAS UPDATED ****
----------------
ORBITAL ENERGIES
----------------
                 SPIN UP ORBITALS
  NO   OCC          E(Eh)            E(eV) 
   0   1.0000    -102.313571     -2784.0938 
   1   1.0000     -19.664171      -535.0893 
   2   1.0000      -9.780603      -266.1437 
   3   1.0000      -7.472970      -203.3499 
   4   1.0000      -7.459521      -202.9839 
   5   1.0000      -7.459056      -202.9712 
   6   1.0000      -1.188216       -32.3330 
   7   1.0000      -0.924389       -25.1539 
   8   1.0000      -0.629983       -17.1427 
   9   1.0000      -0.563848       -15.3431 
  10   1.0000      -0.502928       -13.6854 
  11   1.0000      -0.421574       -11.4716 
  12   1.0000      -0.387715       -10.5502 
  13   1.0000      -0.385735       -10.4964 
  14   0.0000       0.140956         3.8356 
  15   0.0000       0.507456        13.8086 
  16   0.0000       0.619856        16.8671 
  17   0.0000       0.758273        20.6337 
  18   0.0000       0.769296        20.9336 
  19   0.0000       0.824781        22.4434 
  20   0.0000       0.825180        22.4543 
  21   0.0000       0.844006        22.9666 
  22   0.0000       0.860542        23.4165 
  23   0.0000       0.898255        24.4428 
  24   0.0000       0.955012        25.9872 
  25   0.0000       0.967046        26.3147 
  26   0.0000       1.008881        27.4531 
  27   0.0000       1.190878        32.4054 
  28   0.0000       1.579175        42.9715 
  29   0.0000       1.692359        46.0514 
  30   0.0000       1.736267        47.2462 
  31   0.0000       1.736508        47.2528 
  32   0.0000       1.817224        49.4492 
  33   0.0000       2.168311        59.0027 
  34   0.0000      24.958431       679.1534 

                 SPIN DOWN ORBITALS
  NO   OCC          E(Eh)            E(eV) 
   0   1.0000    -102.309563     -2783.9847 
   1   1.0000     -19.615471      -533.7641 
   2   1.0000      -9.776771      -266.0395 
   3   1.0000      -7.460174      -203.0017 
   4   1.0000      -7.456313      -202.8966 
   5   1.0000      -7.456095      -202.8906 
   6   1.0000      -1.038142       -28.2493 
   7   1.0000      -0.884214       -24.0607 
   8   1.0000      -0.544767       -14.8239 
   9   1.0000      -0.406144       -11.0517 
  10   1.0000      -0.377847       -10.2817 
  11   1.0000      -0.375975       -10.2308 
  12   0.0000      -0.177309        -4.8248 
  13   0.0000      -0.140799        -3.8313 
  14   0.0000       0.169073         4.6007 
  15   0.0000       0.518977        14.1221 
  16   0.0000       0.649884        17.6842 
  17   0.0000       0.802985        21.8503 
  18   0.0000       0.804048        21.8793 
  19   0.0000       0.832656        22.6577 
  20   0.0000       0.832663        22.6579 
  21   0.0000       0.896987        24.4083 
  22   0.0000       0.903223        24.5779 
  23   0.0000       0.916576        24.9413 
  24   0.0000       0.987987        26.8845 
  25   0.0000       1.027242        27.9527 
  26   0.0000       1.066290        29.0152 
  27   0.0000       1.226178        33.3660 
  28   0.0000       1.650450        44.9110 
  29   0.0000       1.794890        48.8414 
  30   0.0000       1.824776        49.6547 
  31   0.0000       1.828353        49.7520 
  32   0.0000       1.881112        51.1877 
  33   0.0000       2.223252        60.4978 
  34   0.0000      25.023875       680.9343 

                    ********************************
                    * MULLIKEN POPULATION ANALYSIS *
                    ********************************

--------------------------------------------
MULLIKEN ATOMIC CHARGES AND SPIN POPULATIONS
--------------------------------------------
   0 Cl:   -0.260525    0.435331
   1 H :    0.395081   -0.074263
   2 O :   -0.134557    1.638931
Sum of atomic charges         :   -0.0000000
Sum of atomic spin populations:    2.0000000

-----------------------------------------------------
MULLIKEN REDUCED ORBITAL CHARGES AND SPIN POPULATIONS
-----------------------------------------------------
CHARGE
  0 Cls       :     5.979441  s :     5.979441
      pz      :     3.986226  p :    11.264050
      px      :     3.922384
      py      :     3.355439
      dz2     :     0.003733  d :     0.017034
      dxz     :     0.000075
      dyz     :     0.000728
      dx2y2   :     0.007699
      dxy     :     0.004799
  1 H s       :     0.604919  s :     0.604919
  2 O s       :     3.973867  s :     3.973867
      pz      :     1.012411  p :     4.152912
      px      :     1.873629
      py      :     1.266871
      dz2     :     0.001703  d :     0.007778
      dxz     :     0.000058
      dyz     :     0.000502
      dx2y2   :     0.002765
      dxy     :     0.002750

SPIN
  0 Cls       :    -0.003255  s :    -0.003255
      pz      :     0.012262  p :     0.440544
      px      :     0.005220
      py      :     0.423063
      dz2     :    -0.000655  d :    -0.001958
      dxz     :    -0.000014
      dyz     :     0.000114
      dx2y2   :    -0.001772
      dxy     :     0.000369
  1 H s       :    -0.074263  s :    -0.074263
  2 O s       :     0.008334  s :     0.008334
      pz      :     0.987391  p :     1.631459
      px      :     0.052131
      py      :     0.591938
      dz2     :    -0.000380  d :    -0.000862
      dxz     :     0.000055
      dyz     :     0.000192
      dx2y2   :    -0.000671
      dxy     :    -0.000058


                     *******************************
                     * LOEWDIN POPULATION ANALYSIS *
                     *******************************

-------------------------------------------
LOEWDIN ATOMIC CHARGES AND SPIN POPULATIONS
-------------------------------------------
   0 Cl:   -0.170679    0.425774
   1 H :    0.254214   -0.051668
   2 O :   -0.083535    1.625894

----------------------------------------------------
LOEWDIN REDUCED ORBITAL CHARGES AND SPIN POPULATIONS
----------------------------------------------------
CHARGE
  0 Cls       :     5.914497  s :     5.914497
      pz      :     3.985294  p :    11.238691
      px      :     3.927495
      py      :     3.325902
      dz2     :     0.003766  d :     0.017491
      dxz     :     0.000075
      dyz     :     0.000727
      dx2y2   :     0.007736
      dxy     :     0.005188
  1 H s       :     0.745786  s :     0.745786
  2 O s       :     3.892583  s :     3.892583
      pz      :     1.013223  p :     4.178388
      px      :     1.884475
      py      :     1.280691
      dz2     :     0.002866  d :     0.012564
      dxz     :     0.000058
      dyz     :     0.000624
      dx2y2   :     0.004890
      dxy     :     0.004126

SPIN
  0 Cls       :    -0.003120  s :    -0.003120
      pz      :     0.012631  p :     0.431208
      px      :     0.006236
      py      :     0.412342
      dz2     :    -0.000772  d :    -0.002314
      dxz     :    -0.000014
      dyz     :     0.000126
      dx2y2   :    -0.001903
      dxy     :     0.000248
  1 H s       :    -0.051668  s :    -0.051668
  2 O s       :     0.007402  s :     0.007402
      pz      :     0.987010  p :     1.619467
      px      :     0.051160
      py      :     0.581297
      dz2     :    -0.000284  d :    -0.000975
      dxz     :     0.000055
      dyz     :     0.000192
      dx2y2   :    -0.000696
      dxy     :    -0.000241


                      *****************************
                      * MAYER POPULATION ANALYSIS *
                      *****************************

  NA   - Mulliken gross atomic population
  ZA   - Total nuclear charge
  QA   - Mulliken gross atomic charge
  VA   - Mayer's total valence
  BVA  - Mayer's bonded valence
  FA   - Mayer's free valence

  ATOM       NA         ZA         QA         VA         BVA        FA
  0 Cl    17.2605    17.0000    -0.2605     1.0515     0.8543     0.1972
  1 H      0.6049     1.0000     0.3951     0.8316     0.8259     0.0057
  2 O      8.1346     8.0000    -0.1346     2.1663     0.7666     1.3997

  Mayer bond orders larger than 0.100000
B(  0-Cl,  1-H ) :   0.4568 B(  0-Cl,  2-O ) :   0.3975 B(  1-H ,  2-O ) :   0.3691 


-------
TIMINGS
-------

Total SCF time: 0 days 0 hours 0 min 10 sec 

Total time                  ....      10.392 sec
Sum of individual times     ....       9.924 sec  ( 95.5%)

Fock matrix formation       ....       8.645 sec  ( 83.2%)
  Split-RI-J                ....       0.370 sec  (  4.3% of F)
  Chain of spheres X        ....       2.635 sec  ( 30.5% of F)
  XC integration            ....       4.390 sec  ( 50.8% of F)
    Basis function eval.    ....       0.472 sec  ( 10.7% of XC)
    Density eval.           ....       0.720 sec  ( 16.4% of XC)
    XC-Functional eval.     ....       1.079 sec  ( 24.6% of XC)
    XC-Potential eval.      ....       0.234 sec  (  5.3% of XC)
Diagonalization             ....       0.083 sec  (  0.8%)
Density matrix formation    ....       0.003 sec  (  0.0%)
Population analysis         ....       0.011 sec  (  0.1%)
Initial guess               ....       0.003 sec  (  0.0%)
Orbital Transformation      ....       0.000 sec  (  0.0%)
Orbital Orthonormalization  ....       0.000 sec  (  0.0%)
DIIS solution               ....       0.182 sec  (  1.7%)
Grid generation             ....       0.999 sec  (  9.6%)

Maximum memory used throughout the entire SCF-calculation: 44.1 MB


-------------------------------------------------------------------------------
                          DFT DISPERSION CORRECTION                            
                                                                               
                              DFTD3 V3.1  Rev 1                                
                          USING Becke-Johnson damping                          
-------------------------------------------------------------------------------
The PBEh-3c composite method is recognized
Using three-body term ABC
Active option DFTDOPT                   ...         4   

molecular C6(AA) [au] = 218.948098 


            DFT-D V3
 parameters
 s6 scaling factor         :     1.0000 
 a1 scaling factor         :     0.4860 
 s8 scaling factor         :     0.0000 
 a2 scaling factor         :     4.5000 
 Damping factor alpha9(ATM):    16.0000 
 ad hoc parameters k1-k3   :    16.0000     1.3333    -4.0000 

 Edisp/kcal,au: -0.308629099404  -0.000491831724 
 E6   /kcal   :  -0.308625965 
 E8   /kcal   :  -0.000000000 
 E6(ABC)      :  -0.000003135 
 % E8         :   0.000000000 
 % E6(ABC)    :   0.001015683 

-------------------------   ----------------
Dispersion correction           -0.000491832
-------------------------   ----------------

------------------   -----------------
gCP correction             0.005680819
------------------   -----------------

-------------------------   --------------------
FINAL SINGLE POINT ENERGY      -535.198615509984
-------------------------   --------------------


                            ***************************************
                            *     ORCA property calculations      *
                            ***************************************

                                    ---------------------
                                    Active property flags
                                    ---------------------
   (+) Dipole Moment


------------------------------------------------------------------------------
                       ORCA ELECTRIC PROPERTIES CALCULATION
------------------------------------------------------------------------------

Dipole Moment Calculation                       ... on
Quadrupole Moment Calculation                   ... off
Polarizability Calculation                      ... off
GBWName                                         ... pbeh-3c.gbw
Electron density                                ... pbeh-3c.scfp
The origin for moment calculation is the CENTER OF MASS  = ( 0.290453, -0.956248  0.000000)

-------------
DIPOLE MOMENT
-------------
                                X             Y             Z
Electronic contribution:      0.17962      -1.28338       0.00000
Nuclear contribution   :     -0.46272       1.64288       0.00000
                        -----------------------------------------
Total Dipole Moment    :     -0.28310       0.35950       0.00000
                        -----------------------------------------
Magnitude (a.u.)       :      0.45758
Magnitude (Debye)      :      1.16308



--------------------
Rotational spectrum 
--------------------
 
Rotational constants in cm-1:    71.612095     0.246690     0.245843 
Rotational constants in MHz : 2146876.602084  7395.578736  7370.189844 

 Dipole components along the rotational axes: 
x,y,z [a.u.] :    -0.360730     0.281524     0.000000 
x,y,z [Debye]:    -0.916902     0.715578     0.000000 

 

Timings for individual modules:

Sum of individual times         ...       10.959 sec (=   0.183 min)
GTO integral calculation        ...        0.388 sec (=   0.006 min)   3.5 %
SCF iterations                  ...       10.571 sec (=   0.176 min)  96.5 %
                             ****ORCA TERMINATED NORMALLY****
TOTAL RUN TIME: 0 days 0 hours 0 minutes 11 seconds 414 msec
