
                                 *****************
                                 * O   R   C   A *
                                 *****************

                                            #,                                       
                                            ###                                      
                                            ####                                     
                                            #####                                    
                                            ######                                   
                                           ########,                                 
                                     ,,################,,,,,                         
                               ,,#################################,,                 
                          ,,##########################################,,             
                       ,#########################################, ''#####,          
                    ,#############################################,,   '####,        
                  ,##################################################,,,,####,       
                ,###########''''           ''''###############################       
              ,#####''   ,,,,##########,,,,          '''####'''          '####       
            ,##' ,,,,###########################,,,                        '##       
           ' ,,###''''                  '''############,,,                           
         ,,##''                                '''############,,,,        ,,,,,,###''
      ,#''                                            '''#######################'''  
     '                                                          ''''####''''         
             ,#######,   #######,   ,#######,      ##                                
            ,#'     '#,  ##    ##  ,#'     '#,    #''#        ######   ,####,        
            ##       ##  ##   ,#'  ##            #'  '#       #        #'  '#        
            ##       ##  #######   ##           ,######,      #####,   #    #        
            '#,     ,#'  ##    ##  '#,     ,#' ,#      #,         ##   #,  ,#        
             '#######'   ##     ##  '#######'  #'      '#     #####' # '####'        



                  #######################################################
                  #                        -***-                        #
                  #          Department of theory and spectroscopy      #
                  #    Directorship and core code : Frank Neese         #
                  #        Max Planck Institute fuer Kohlenforschung    #
                  #                Kaiser Wilhelm Platz 1               #
                  #                 D-45470 Muelheim/Ruhr               #
                  #                      Germany                        #
                  #                                                     #
                  #                  All rights reserved                #
                  #                        -***-                        #
                  #######################################################


                         Program Version 5.0.3 -  RELEASE  -


 With contributions from (in alphabetic order):
   Daniel Aravena         : Magnetic Suceptibility
   Michael Atanasov       : Ab Initio Ligand Field Theory (pilot matlab implementation)
   Alexander A. Auer      : GIAO ZORA, VPT2 properties, NMR spectrum
   Ute Becker             : Parallelization
   Giovanni Bistoni       : ED, misc. LED, open-shell LED, HFLD
   Martin Brehm           : Molecular dynamics
   Dmytro Bykov           : SCF Hessian
   Vijay G. Chilkuri      : MRCI spin determinant printing, contributions to CSF-ICE
   Dipayan Datta          : RHF DLPNO-CCSD density
   Achintya Kumar Dutta   : EOM-CC, STEOM-CC
   Dmitry Ganyushin       : Spin-Orbit,Spin-Spin,Magnetic field MRCI
   Miquel Garcia          : C-PCM and meta-GGA Hessian, CC/C-PCM, Gaussian charge scheme
   Yang Guo               : DLPNO-NEVPT2, F12-NEVPT2, CIM, IAO-localization
   Andreas Hansen         : Spin unrestricted coupled pair/coupled cluster methods
   Benjamin Helmich-Paris : MC-RPA, TRAH-SCF, COSX integrals
   Lee Huntington         : MR-EOM, pCC
   Robert Izsak           : Overlap fitted RIJCOSX, COSX-SCS-MP3, EOM
   Marcus Kettner         : VPT2
   Christian Kollmar      : KDIIS, OOCD, Brueckner-CCSD(T), CCSD density, CASPT2, CASPT2-K
   Simone Kossmann        : Meta GGA functionals, TD-DFT gradient, OOMP2, MP2 Hessian
   Martin Krupicka        : Initial AUTO-CI
   Lucas Lang             : DCDCAS
   Marvin Lechner         : AUTO-CI (C++ implementation), FIC-MRCC
   Dagmar Lenk            : GEPOL surface, SMD
   Dimitrios Liakos       : Extrapolation schemes; Compound Job, initial MDCI parallelization
   Dimitrios Manganas     : Further ROCIS development; embedding schemes
   Dimitrios Pantazis     : SARC Basis sets
   Anastasios Papadopoulos: AUTO-CI, single reference methods and gradients
   Taras Petrenko         : DFT Hessian,TD-DFT gradient, ASA, ECA, R-Raman, ABS, FL, XAS/XES, NRVS
   Peter Pinski           : DLPNO-MP2, DLPNO-MP2 Gradient
   Christoph Reimann      : Effective Core Potentials
   Marius Retegan         : Local ZFS, SOC
   Christoph Riplinger    : Optimizer, TS searches, QM/MM, DLPNO-CCSD(T), (RO)-DLPNO pert. Triples
   Tobias Risthaus        : Range-separated hybrids, TD-DFT gradient, RPA, STAB
   Michael Roemelt        : Original ROCIS implementation
   Masaaki Saitow         : Open-shell DLPNO-CCSD energy and density
   Barbara Sandhoefer     : DKH picture change effects
   Avijit Sen             : IP-ROCIS
   Kantharuban Sivalingam : CASSCF convergence, NEVPT2, FIC-MRCI
   Bernardo de Souza      : ESD, SOC TD-DFT
   Georgi Stoychev        : AutoAux, RI-MP2 NMR, DLPNO-MP2 response
   Willem Van den Heuvel  : Paramagnetic NMR
   Boris Wezisla          : Elementary symmetry handling
   Frank Wennmohs         : Technical directorship


 We gratefully acknowledge several colleagues who have allowed us to
 interface, adapt or use parts of their codes:
   Stefan Grimme, W. Hujo, H. Kruse, P. Pracht,  : VdW corrections, initial TS optimization,
                  C. Bannwarth, S. Ehlert          DFT functionals, gCP, sTDA/sTD-DF
   Ed Valeev, F. Pavosevic, A. Kumar             : LibInt (2-el integral package), F12 methods
   Garnet Chan, S. Sharma, J. Yang, R. Olivares  : DMRG
   Ulf Ekstrom                                   : XCFun DFT Library
   Mihaly Kallay                                 : mrcc  (arbitrary order and MRCC methods)
   Jiri Pittner, Ondrej Demel                    : Mk-CCSD
   Frank Weinhold                                : gennbo (NPA and NBO analysis)
   Christopher J. Cramer and Donald G. Truhlar   : smd solvation model
   Lars Goerigk                                  : TD-DFT with DH, B97 family of functionals
   V. Asgeirsson, H. Jonsson                     : NEB implementation
   FAccTs GmbH                                   : IRC, NEB, NEB-TS, DLPNO-Multilevel, CI-OPT
                                                   MM, QMMM, 2- and 3-layer-ONIOM, Crystal-QMMM,
                                                   LR-CPCM, SF, NACMEs, symmetry and pop. for TD-DFT,
                                                   nearIR, NL-DFT gradient (VV10), updates on ESD,
                                                   ML-optimized integration grids
   S Lehtola, MJT Oliveira, MAL Marques          : LibXC Library
   Liviu Ungur et al                             : ANISO software


 Your calculation uses the libint2 library for the computation of 2-el integrals
 For citations please refer to: http://libint.valeyev.net

 Your ORCA version has been built with support for libXC version: 5.1.0
 For citations please refer to: https://tddft.org/programs/libxc/

 This ORCA versions uses:
   CBLAS   interface :  Fast vector & matrix operations
   LAPACKE interface :  Fast linear algebra routines
   SCALAPACK package :  Parallel linear algebra routines
   Shared memory     :  Shared parallel matrices
   BLAS/LAPACK       :  OpenBLAS 0.3.15  USE64BITINT DYNAMIC_ARCH NO_AFFINITY Haswell SINGLE_THREADED
        Core in use  :  Haswell
   Copyright (c) 2011-2014, The OpenBLAS Project




***************************************
The coordinates will be read from file: 22B.xyz
***************************************


Your calculation utilizes the geometrical counterpoise correction gCP
Please cite in your paper:
H.Kruse, S. Grimme J.Chem.Phys., 136, (2012), 154101 
   

Your calculation utilizes the atom-pairwise dispersion correction
with the Becke-Johnson damping scheme (D3BJ)
Cite in your paper:
S.Grimme, S.Ehrlich, L.Goerigk, J Comput Chem, (2011), 32, 1456–1465 
S.Grimme, J.Antony, S.Ehrlich and H.Krieg, J.Chem.Phys., 132, (2010), 154104 
   

Your calculation employs the composite approach PBEh-3c.
Please cite in your paper:
S. Grimme, J. G. Brandenburg, C. Bannwarth, A. Hansen J.Chem.Phys., 143, (2015), 054107 
   

================================================================================

----- Orbital basis set information -----
Your calculation utilizes the basis: def2-mSVP

----- AuxJ basis set information -----
Your calculation utilizes the auxiliary basis: def2/J
   F. Weigend, Phys. Chem. Chem. Phys. 8, 1057 (2006).

================================================================================
                                        WARNINGS
                       Please study these warnings very carefully!
================================================================================


INFO   : the flag for use of the SHARK integral package has been found!

================================================================================
                                       INPUT FILE
================================================================================
NAME = pbeh-3c.inp
|  1> ! PBEh-3c def2/J TightSCF DefGrid3
|  2> 
|  3> %maxcore 60000
|  4> 
|  5> %pal
|  6> nprocs 4
|  7> end
|  8> 
|  9> *xyzfile 0 1 22B.xyz
| 10> 
| 11>                          ****END OF INPUT****
================================================================================

                       ****************************
                       * Single Point Calculation *
                       ****************************

---------------------------------
CARTESIAN COORDINATES (ANGSTROEM)
---------------------------------
  N      0.520349   -1.193392    0.000000
  H      0.913578   -2.124740    0.000000
  C      1.441930   -0.129732    0.000000
  O      2.639145   -0.353978    0.000000
  C      0.802829    1.172140    0.000000
  H      1.422402    2.052172    0.000000
  C     -0.544333    1.256109    0.000000
  H     -1.067203    2.200944    0.000000
  N     -1.348112    0.148966    0.000000
  H     -2.372221    0.222051    0.000000
  C     -0.848148   -1.122986    0.000000
  O     -1.560217   -2.127555    0.000000

----------------------------
CARTESIAN COORDINATES (A.U.)
----------------------------
  NO LB      ZA    FRAG     MASS         X           Y           Z
   0 N     7.0000    0    14.007    0.983317   -2.255185    0.000000
   1 H     1.0000    0     1.008    1.726412   -4.015176    0.000000
   2 C     6.0000    0    12.011    2.724853   -0.245158    0.000000
   3 O     8.0000    0    15.999    4.987261   -0.668921    0.000000
   4 C     6.0000    0    12.011    1.517128    2.215023    0.000000
   5 H     1.0000    0     1.008    2.687950    3.878044    0.000000
   6 C     6.0000    0    12.011   -1.028640    2.373702    0.000000
   7 H     1.0000    0     1.008   -2.016720    4.159181    0.000000
   8 N     7.0000    0    14.007   -2.547562    0.281506    0.000000
   9 H     1.0000    0     1.008   -4.482847    0.419616    0.000000
  10 C     6.0000    0    12.011   -1.602767   -2.122135    0.000000
  11 O     8.0000    0    15.999   -2.948383   -4.020496    0.000000

--------------------------------
INTERNAL COORDINATES (ANGSTROEM)
--------------------------------
 N      0   0   0     0.000000000000     0.00000000     0.00000000
 H      1   0   0     1.010958454611     0.00000000     0.00000000
 C      1   2   0     1.407368075822   116.20331602     0.00000000
 O      3   1   2     1.218034785147   120.29752987     0.00000000
 C      3   1   2     1.450283005940   112.94669786   180.00000000
 H      5   3   1     1.076256142288   118.70632562   180.00000000
 C      5   3   1     1.349776768556   119.71348696     0.00000000
 H      7   5   3     1.079863426448   122.52669077   180.00000000
 N      7   5   3     1.368146334413   122.41276648     0.00000000
 H      9   7   5     1.026713524361   121.89745105   180.00000000
 C      9   7   5     1.366684252493   122.56238329     0.00000000
 O     11   9   7     1.231341333607   123.21162429   180.00000000

---------------------------
INTERNAL COORDINATES (A.U.)
---------------------------
 N      0   0   0     0.000000000000     0.00000000     0.00000000
 H      1   0   0     1.910434611987     0.00000000     0.00000000
 C      1   2   0     2.659540232926   116.20331602     0.00000000
 O      3   1   2     2.301752165517   120.29752987     0.00000000
 C      3   1   2     2.740637697907   112.94669786   180.00000000
 H      5   3   1     2.033829358875   118.70632562   180.00000000
 C      5   3   1     2.550708434501   119.71348696     0.00000000
 H      7   5   3     2.040646138025   122.52669077   180.00000000
 N      7   5   3     2.585421883169   122.41276648     0.00000000
 H      9   7   5     1.940207379036   121.89745105   180.00000000
 C      9   7   5     2.582658948754   122.56238329     0.00000000
 O     11   9   7     2.326897897895   123.21162429   180.00000000

---------------------
BASIS SET INFORMATION
---------------------
There are 4 groups of distinct atoms

 Group   1 Type N   : 8s4p1d contracted to 4s2p1d pattern {5111/31/1}
 Group   2 Type H   : 4s contracted to 2s pattern {31}
 Group   3 Type C   : 8s4p1d contracted to 4s2p1d pattern {5111/31/1}
 Group   4 Type O   : 8s4p1d contracted to 4s2p1d pattern {5111/31/1}

Atom   0N    basis set group =>   1
Atom   1H    basis set group =>   2
Atom   2C    basis set group =>   3
Atom   3O    basis set group =>   4
Atom   4C    basis set group =>   3
Atom   5H    basis set group =>   2
Atom   6C    basis set group =>   3
Atom   7H    basis set group =>   2
Atom   8N    basis set group =>   1
Atom   9H    basis set group =>   2
Atom  10C    basis set group =>   3
Atom  11O    basis set group =>   4
---------------------------------
AUXILIARY/J BASIS SET INFORMATION
---------------------------------
There are 4 groups of distinct atoms

 Group   1 Type N   : 12s5p4d2f1g contracted to 6s4p3d1f1g pattern {711111/2111/211/2/1}
 Group   2 Type H   : 5s2p1d contracted to 3s1p1d pattern {311/2/1}
 Group   3 Type C   : 12s5p4d2f1g contracted to 6s4p3d1f1g pattern {711111/2111/211/2/1}
 Group   4 Type O   : 12s5p4d2f1g contracted to 6s4p3d1f1g pattern {711111/2111/211/2/1}

Atom   0N    basis set group =>   1
Atom   1H    basis set group =>   2
Atom   2C    basis set group =>   3
Atom   3O    basis set group =>   4
Atom   4C    basis set group =>   3
Atom   5H    basis set group =>   2
Atom   6C    basis set group =>   3
Atom   7H    basis set group =>   2
Atom   8N    basis set group =>   1
Atom   9H    basis set group =>   2
Atom  10C    basis set group =>   3
Atom  11O    basis set group =>   4


           ************************************************************
           *        Program running with 4 parallel MPI-processes     *
           *              working on a common directory               *
           ************************************************************
------------------------------------------------------------------------------
                           ORCA GTO INTEGRAL CALCULATION
                           -- RI-GTO INTEGRALS CHOSEN --
------------------------------------------------------------------------------
------------------------------------------------------------------------------
                   ___                                                        
                  /   \      - P O W E R E D   B Y -                         
                 /     \                                                     
                 |  |  |   _    _      __       _____    __    __             
                 |  |  |  | |  | |    /  \     |  _  \  |  |  /  |          
                  \  \/   | |  | |   /    \    | | | |  |  | /  /          
                 / \  \   | |__| |  /  /\  \   | |_| |  |  |/  /          
                |  |  |   |  __  | /  /__\  \  |    /   |      \           
                |  |  |   | |  | | |   __   |  |    \   |  |\   \          
                \     /   | |  | | |  |  |  |  | |\  \  |  | \   \       
                 \___/    |_|  |_| |__|  |__|  |_| \__\ |__|  \__/        
                                                                              
                      - O R C A' S   B I G   F R I E N D -                    
                                      &                                       
                       - I N T E G R A L  F E E D E R -                       
                                                                              
 v1 FN, 2020, v2 2021                                                         
------------------------------------------------------------------------------


Reading SHARK input file pbeh-3c.SHARKINP.tmp ... ok
----------------------
SHARK INTEGRAL PACKAGE
----------------------

Number of atoms                             ...     12
Number of basis functions                   ...    128
Number of shells                            ...     64
Maximum angular momentum                    ...      2
Integral batch strategy                     ... SHARK/LIBINT Hybrid
RI-J (if used) integral strategy            ... SPLIT-RIJ (Revised 2003 algorithm where possible)
Printlevel                                  ...      1
Contraction scheme used                     ... SEGMENTED contraction
Coulomb Range Separation                    ... NOT USED
Exchange Range Separation                   ... NOT USED
Finite Nucleus Model                        ... NOT USED
Auxiliary Coulomb fitting basis             ... AVAILABLE
   # of basis functions in Aux-J            ...    436
   # of shells in Aux-J                     ...    140
   Maximum angular momentum in Aux-J        ...      4
Auxiliary J/K fitting basis                 ... NOT available
Auxiliary Correlation fitting basis         ... NOT available
Auxiliary 'external' fitting basis          ... NOT available
Integral threshold                          ...     2.500000e-11
Primitive cut-off                           ...     2.500000e-12
Primitive pair pre-selection threshold      ...     2.500000e-12

Calculating pre-screening integrals         ... done (  0.1 sec) Dimension = 64
Organizing shell pair data                  ... done (  0.3 sec)
Shell pair information
Total number of shell pairs                 ...      2080
Shell pairs after pre-screening             ...      1892
Total number of primitive shell pairs       ...      7376
Primitive shell pairs kept                  ...      4908
          la=0 lb=0:    688 shell pairs
          la=1 lb=0:    615 shell pairs
          la=1 lb=1:    135 shell pairs
          la=2 lb=0:    292 shell pairs
          la=2 lb=1:    126 shell pairs
          la=2 lb=2:     36 shell pairs

Calculating one electron integrals          ... done (  0.0 sec)
Calculating RI/J V-Matrix + Cholesky decomp.... done (  0.7 sec)
Calculating Nuclear repulsion               ... done (  0.0 sec) ENN=    357.302457165762 Eh

SHARK setup successfully completed in   2.5 seconds

Maximum memory used throughout the entire GTOINT-calculation: 10.6 MB


           ************************************************************
           *        Program running with 4 parallel MPI-processes     *
           *              working on a common directory               *
           ************************************************************
-------------------------------------------------------------------------------
                                 ORCA SCF
-------------------------------------------------------------------------------

------------
SCF SETTINGS
------------
Hamiltonian:
 Density Functional     Method          .... DFT(GTOs)
 Exchange Functional    Exchange        .... PBE
   PBE kappa parameter   XKappa         ....  1.024500
   PBE mue parameter    XMuePBE         ....  0.123457
 Correlation Functional Correlation     .... PBE
   PBE beta parameter  CBetaPBE         ....  0.030000
 LDA part of GGA corr.  LDAOpt          .... PW91-LDA
 Gradients option       PostSCFGGA      .... off
 Hybrid DFT is turned on
   Fraction HF Exchange ScalHFX         ....  0.420000
   Scaling of DF-GGA-X  ScalDFX         ....  0.580000
   Scaling of DF-GGA-C  ScalDFC         ....  1.000000
   Scaling of DF-LDA-C  ScalLDAC        ....  1.000000
   Perturbative correction              ....  0.000000
   Density functional embedding theory  .... OFF
 RI-approximation to the Coulomb term is turned on
   Number of AuxJ basis functions       .... 436
   RIJ-ON(X) (HFX calculated with O(N)) .... on
   Number of AuxJ basis functions       .... 436
   RIJ-COSX (HFX calculated with COS-X)).... on


General Settings:
 Integral files         IntName         .... pbeh-3c
 Hartree-Fock type      HFTyp           .... RHF
 Total Charge           Charge          ....    0
 Multiplicity           Mult            ....    1
 Number of Electrons    NEL             ....   58
 Basis Dimension        Dim             ....  128
 Nuclear Repulsion      ENuc            ....    357.3024571658 Eh

Convergence Acceleration:
 DIIS                   CNVDIIS         .... on
   Start iteration      DIISMaxIt       ....    12
   Startup error        DIISStart       ....  0.200000
   # of expansion vecs  DIISMaxEq       ....     5
   Bias factor          DIISBfac        ....   1.050
   Max. coefficient     DIISMaxC        ....  10.000
 Trust-Rad. Augm. Hess. CNVTRAH         .... auto
   Auto Start mean grad. ratio tolernc. ....  1.125000
   Auto Start start iteration           ....    20
   Auto Start num. interpolation iter.  ....    10
   Max. Number of Micro iterations      ....    16
   Max. Number of Macro iterations      .... Maxiter - #DIIS iter
   Number of Davidson start vectors     ....     2
   Converg. threshold I  (grad. norm)   ....   1.000e-05
   Converg. threshold II (energy diff.) ....   1.000e-08
   Grad. Scal. Fac. for Micro threshold ....   0.100
   Minimum threshold for Micro iter.    ....   0.010
   NR start threshold (gradient norm)   ....   0.001
   Initial trust radius                 ....   0.400
   Minimum AH scaling param. (alpha)    ....   1.000
   Maximum AH scaling param. (alpha)    .... 1000.000
   Orbital update algorithm             .... Taylor
   White noise on init. David. guess    .... on
   Maximum white noise                  ....   0.010
   Quad. conv. algorithm                .... NR
   COSX micro iterations for RIJONX calc.... off
 SOSCF                  CNVSOSCF        .... on
   Start iteration      SOSCFMaxIt      ....   150
   Startup grad/error   SOSCFStart      ....  0.003300
 Level Shifting         CNVShift        .... on
   Level shift para.    LevelShift      ....    0.2500
   Turn off err/grad.   ShiftErr        ....    0.0010
 Zerner damping         CNVZerner       .... off
 Static damping         CNVDamp         .... on
   Fraction old density DampFac         ....    0.7000
   Max. Damping (<1)    DampMax         ....    0.9800
   Min. Damping (>=0)   DampMin         ....    0.0000
   Turn off err/grad.   DampErr         ....    0.1000
 Fernandez-Rico         CNVRico         .... off

SCF Procedure:
 Maximum # iterations   MaxIter         ....   125
 SCF integral mode      SCFMode         .... Direct
   Integral package                     .... SHARK and LIBINT hybrid scheme
 Reset frequency        DirectResetFreq ....    20
 Integral Threshold     Thresh          ....  2.500e-11 Eh
 Primitive CutOff       TCut            ....  2.500e-12 Eh

Convergence Tolerance:
 Convergence Check Mode ConvCheckMode   .... Total+1el-Energy
 Convergence forced     ConvForced      .... 0
 Energy Change          TolE            ....  1.000e-08 Eh
 1-El. energy change                    ....  1.000e-05 Eh
 Orbital Gradient       TolG            ....  1.000e-05
 Orbital Rotation angle TolX            ....  1.000e-05
 DIIS Error             TolErr          ....  5.000e-07


Diagonalization of the overlap matrix:
Smallest eigenvalue                        ... 2.038e-03
Time for diagonalization                   ...    0.003 sec
Threshold for overlap eigenvalues          ... 1.000e-08
Number of eigenvalues below threshold      ... 0
Time for construction of square roots      ...    0.206 sec
Total time needed                          ...    0.209 sec

--------------------------------
INITIAL GUESS: MINIMAL BASIS EHT
--------------------------------
The minimal basis has 44 functions
EHT matrix was diagonalized
Basis set overlap was calculated now projecting the orbitals
Using GuessMode=FMatrix for the initial guess
C*T matrix was formed
Effective Fockian was calculated
Effective Fockian was diagonalized
Initial density was built
                      ------------------
                      INITIAL GUESS DONE
                      ------------------
-------------------
DFT GRID GENERATION
-------------------

General Integration Accuracy     IntAcc      ... 4.959
Radial Grid Type                 RadialGrid  ... OptM3 with GC (2021)
Angular Grid (max. ang.)         AngularGrid ... 6 (Lebedev-590)
Angular grid pruning method      GridPruning ... 4 (adaptive)
Weight generation scheme         WeightScheme... Becke
Basis function cutoff            BFCut       ... 1.0000e-11
Integration weight cutoff        WCut        ... 1.0000e-14
Angular grids for H and He will be reduced by one unit
Partially contracted basis set               ... off
Rotationally invariant grid construction     ... off

Total number of grid points                  ...   149763
Total number of batches                      ...     2346
Average number of points per batch           ...       63
Average number of grid points per atom       ...    12480
Time for grid setup =    2.890 sec

--------------------
COSX GRID GENERATION
--------------------

GRIDX 1
-------
General Integration Accuracy     IntAcc      ... 4.020
Radial Grid Type                 RadialGrid  ... OptM3 with GC (2021)
Angular Grid (max. ang.)         AngularGrid ... 2 (Lebedev-110)
Angular grid pruning method      GridPruning ... 4 (adaptive)
Weight generation scheme         WeightScheme... Becke
Basis function cutoff            BFCut       ... 1.0000e-11
Integration weight cutoff        WCut        ... 1.0000e-14
Angular grids for H and He will be reduced by one unit
Partially contracted basis set               ... on
Rotationally invariant grid construction     ... off

Total number of grid points                  ...    17625
Total number of batches                      ...      281
Average number of points per batch           ...       62
Average number of grid points per atom       ...     1469
UseSFitting                                  ... on

GRIDX 2
-------
General Integration Accuracy     IntAcc      ... 4.338
Radial Grid Type                 RadialGrid  ... OptM3 with GC (2021)
Angular Grid (max. ang.)         AngularGrid ... 3 (Lebedev-194)
Angular grid pruning method      GridPruning ... 4 (adaptive)
Weight generation scheme         WeightScheme... Becke
Basis function cutoff            BFCut       ... 1.0000e-11
Integration weight cutoff        WCut        ... 1.0000e-14
Angular grids for H and He will be reduced by one unit
Partially contracted basis set               ... on
Rotationally invariant grid construction     ... off

Total number of grid points                  ...    38910
Total number of batches                      ...      614
Average number of points per batch           ...       63
Average number of grid points per atom       ...     3242
UseSFitting                                  ... on

GRIDX 3
-------
General Integration Accuracy     IntAcc      ... 4.871
Radial Grid Type                 RadialGrid  ... OptM3 with GC (2021)
Angular Grid (max. ang.)         AngularGrid ... 4 (Lebedev-302)
Angular grid pruning method      GridPruning ... 4 (adaptive)
Weight generation scheme         WeightScheme... Becke
Basis function cutoff            BFCut       ... 1.0000e-11
Integration weight cutoff        WCut        ... 1.0000e-14
Angular grids for H and He will be reduced by one unit
Partially contracted basis set               ... on
Rotationally invariant grid construction     ... off

Total number of grid points                  ...    72030
Total number of batches                      ...     1132
Average number of points per batch           ...       63
Average number of grid points per atom       ...     6002
UseSFitting                                  ... on

Time for X-Grid setup             =    4.473 sec

--------------
SCF ITERATIONS
--------------
ITER       Energy         Delta-E        Max-DP      RMS-DP      [F,P]     Damp
               ***  Starting incremental Fock matrix formation  ***
  0   -412.3174143800   0.000000000000 0.26296163  0.00974501  0.6009743 0.7000
  1   -412.9632047808  -0.645790400764 0.15734210  0.00487704  0.2944848 0.7000
  2   -413.2432517084  -0.280046927622 0.07617606  0.00272813  0.2052422 0.7000
                               ***Turning on DIIS***
  3   -413.4493436023  -0.206091893909 0.07144111  0.00200338  0.1441528 0.7000
  4   -413.5996944376  -0.150350835270 0.04964638  0.00144032  0.1014769 0.7000
  5   -413.7053374526  -0.105643014974 0.10992336  0.00344246  0.0709425 0.0000
  6   -413.9557654555  -0.250428002958 0.00810101  0.00020410  0.0058505 0.0000
                      *** Initiating the SOSCF procedure ***
                           *** Shutting down DIIS ***
                      *** Re-Reading the Fockian *** 
                      *** Removing any level shift *** 
ITER      Energy       Delta-E        Grad      Rot      Max-DP    RMS-DP
  7   -413.95595176  -0.0001863094  0.001138  0.001138  0.002375  0.000098
               *** Restarting incremental Fock matrix formation ***
  8   -413.95601267  -0.0000609044  0.000997  0.003172  0.002036  0.000084
  9   -413.95602870  -0.0000160306  0.000357  0.001370  0.002549  0.000080
 10   -413.95602815   0.0000005497  0.000424  0.000418  0.001120  0.000036
 11   -413.95603146  -0.0000033083  0.000036  0.000135  0.000168  0.000005
 12   -413.95603147  -0.0000000099  0.000034  0.000061  0.000089  0.000003
 13   -413.95603151  -0.0000000460  0.000004  0.000012  0.000014  0.000000
 14   -413.95603151   0.0000000012  0.000004  0.000006  0.000008  0.000000
                  ***Gradient check signals convergence***
              ***Rediagonalizing the Fockian in SOSCF/NRSCF***

               *****************************************************
               *                     SUCCESS                       *
               *           SCF CONVERGED AFTER  15 CYCLES          *
               *****************************************************

Old exchange energy                            =    -21.782125007 Eh
New exchange energy                            =    -21.782121055 Eh
Exchange energy change after final integration =      0.000003952 Eh
Total energy after final integration           =   -413.956027561 Eh
Final COS-X integration done in                =     5.067 sec

----------------
TOTAL SCF ENERGY
----------------

Total Energy       :         -413.95602756 Eh          -11264.31618 eV

Components:
Nuclear Repulsion  :          357.30245717 Eh            9722.69415 eV
Electronic Energy  :         -771.25848473 Eh          -20987.01033 eV
One Electron Energy:        -1271.76480159 Eh          -34606.47961 eV
Two Electron Energy:          500.50631687 Eh           13619.46928 eV
Max COSX asymmetry :            0.00000321 Eh               0.00009 eV

Virial components:
Potential Energy   :         -824.89764002 Eh          -22446.60595 eV
Kinetic Energy     :          410.94161246 Eh           11182.28977 eV
Virial Ratio       :            2.00733539


DFT components:
N(Alpha)           :       29.000000755112 electrons
N(Beta)            :       29.000000755112 electrons
N(Total)           :       58.000001510224 electrons
E(X)               :      -29.015480827895 Eh       
E(C)               :       -2.599257939893 Eh       
E(XC)              :      -31.614738767788 Eh       
DFET-embed. en.    :        0.000000000000 Eh       

---------------
SCF CONVERGENCE
---------------

  Last Energy change         ...   -8.7994e-11  Tolerance :   1.0000e-08
  Last MAX-Density change    ...    1.3323e-15  Tolerance :   1.0000e-07
  Last RMS-Density change    ...    5.0482e-17  Tolerance :   5.0000e-09
  Last Orbital Gradient      ...    5.0341e-07  Tolerance :   1.0000e-05
  Last Orbital Rotation      ...    1.3067e-06  Tolerance :   1.0000e-05

             **** THE GBW FILE WAS UPDATED (pbeh-3c.gbw) ****
             **** DENSITY pbeh-3c.scfp WAS UPDATED ****
             **** ENERGY FILE WAS UPDATED (pbeh-3c.en.tmp) ****
             **** THE GBW FILE WAS UPDATED (pbeh-3c.gbw) ****
             **** DENSITY pbeh-3c.scfp WAS UPDATED ****
----------------
ORBITAL ENERGIES
----------------

  NO   OCC          E(Eh)            E(eV) 
   0   2.0000     -19.478578      -530.0391 
   1   2.0000     -19.477140      -529.9999 
   2   2.0000     -14.722799      -400.6277 
   3   2.0000     -14.697351      -399.9352 
   4   2.0000     -10.607004      -288.6313 
   5   2.0000     -10.575224      -287.7665 
   6   2.0000     -10.540859      -286.8314 
   7   2.0000     -10.469951      -284.9018 
   8   2.0000      -1.193545       -32.4780 
   9   2.0000      -1.157802       -31.5054 
  10   2.0000      -1.092197       -29.7202 
  11   2.0000      -1.035528       -28.1781 
  12   2.0000      -0.901785       -24.5388 
  13   2.0000      -0.783760       -21.3272 
  14   2.0000      -0.750123       -20.4119 
  15   2.0000      -0.679065       -18.4783 
  16   2.0000      -0.639140       -17.3919 
  17   2.0000      -0.595313       -16.1993 
  18   2.0000      -0.554301       -15.0833 
  19   2.0000      -0.546169       -14.8620 
  20   2.0000      -0.519411       -14.1339 
  21   2.0000      -0.489571       -13.3219 
  22   2.0000      -0.486903       -13.2493 
  23   2.0000      -0.469621       -12.7790 
  24   2.0000      -0.428960       -11.6726 
  25   2.0000      -0.357224        -9.7205 
  26   2.0000      -0.339328        -9.2336 
  27   2.0000      -0.328440        -8.9373 
  28   2.0000      -0.302000        -8.2178 
  29   0.0000      -0.024974        -0.6796 
  30   0.0000       0.039195         1.0666 
  31   0.0000       0.089019         2.4223 
  32   0.0000       0.153008         4.1635 
  33   0.0000       0.160300         4.3620 
  34   0.0000       0.161551         4.3960 
  35   0.0000       0.204180         5.5560 
  36   0.0000       0.226393         6.1605 
  37   0.0000       0.251862         6.8535 
  38   0.0000       0.271744         7.3945 
  39   0.0000       0.299076         8.1383 
  40   0.0000       0.357146         9.7184 
  41   0.0000       0.377918        10.2837 
  42   0.0000       0.401808        10.9337 
  43   0.0000       0.458062        12.4645 
  44   0.0000       0.458247        12.4695 
  45   0.0000       0.522519        14.2185 
  46   0.0000       0.532427        14.4881 
  47   0.0000       0.548770        14.9328 
  48   0.0000       0.556862        15.1530 
  49   0.0000       0.569461        15.4958 
  50   0.0000       0.581133        15.8134 
  51   0.0000       0.638416        17.3722 
  52   0.0000       0.650273        17.6948 
  53   0.0000       0.673280        18.3209 
  54   0.0000       0.706713        19.2306 
  55   0.0000       0.763343        20.7716 
  56   0.0000       0.820551        22.3283 
  57   0.0000       0.821765        22.3614 
  58   0.0000       0.891938        24.2709 
  59   0.0000       0.902399        24.5555 
  60   0.0000       0.923007        25.1163 
  61   0.0000       0.933484        25.4014 
  62   0.0000       0.960796        26.1446 
  63   0.0000       0.969552        26.3829 
  64   0.0000       1.013810        27.5872 
  65   0.0000       1.026192        27.9241 
  66   0.0000       1.072844        29.1936 
  67   0.0000       1.113753        30.3068 
  68   0.0000       1.120983        30.5035 
  69   0.0000       1.145596        31.1733 
  70   0.0000       1.178343        32.0643 
  71   0.0000       1.186792        32.2943 
  72   0.0000       1.225518        33.3480 
  73   0.0000       1.228632        33.4328 
  74   0.0000       1.310881        35.6709 
  75   0.0000       1.378437        37.5092 
  76   0.0000       1.383457        37.6458 
  77   0.0000       1.431745        38.9598 
  78   0.0000       1.468508        39.9601 
  79   0.0000       1.491282        40.5798 
  80   0.0000       1.498978        40.7893 
  81   0.0000       1.523884        41.4670 
  82   0.0000       1.600509        43.5521 
  83   0.0000       1.649769        44.8925 
  84   0.0000       1.700964        46.2856 
  85   0.0000       1.798018        48.9266 
  86   0.0000       1.850749        50.3615 
  87   0.0000       1.857462        50.5441 
  88   0.0000       1.862772        50.6886 
  89   0.0000       1.889629        51.4194 
  90   0.0000       1.941104        52.8201 
  91   0.0000       1.995952        54.3126 
  92   0.0000       2.006925        54.6112 
  93   0.0000       2.015409        54.8421 
  94   0.0000       2.032109        55.2965 
  95   0.0000       2.063669        56.1553 
  96   0.0000       2.098495        57.1029 
  97   0.0000       2.206255        60.0353 
  98   0.0000       2.216197        60.3058 
  99   0.0000       2.219026        60.3828 
 100   0.0000       2.249596        61.2146 
 101   0.0000       2.311331        62.8945 
 102   0.0000       2.334399        63.5222 
 103   0.0000       2.357667        64.1554 
 104   0.0000       2.370504        64.5047 
 105   0.0000       2.406758        65.4912 
 106   0.0000       2.567312        69.8601 
 107   0.0000       2.635283        71.7097 
 108   0.0000       2.659547        72.3700 
 109   0.0000       2.673898        72.7605 
 110   0.0000       2.719491        74.0011 
 111   0.0000       2.731427        74.3259 
 112   0.0000       2.787120        75.8414 
 113   0.0000       2.830528        77.0226 
 114   0.0000       2.851677        77.5981 
 115   0.0000       2.967685        80.7548 
 116   0.0000       3.016331        82.0785 
 117   0.0000       3.069010        83.5120 
 118   0.0000       3.284100        89.3649 
 119   0.0000       3.492019        95.0227 
 120   0.0000      13.426923       365.3652 
 121   0.0000      13.920373       378.7926 
 122   0.0000      13.954568       379.7231 
 123   0.0000      14.209295       386.6546 
 124   0.0000      19.242957       523.6275 
 125   0.0000      19.359932       526.8105 
 126   0.0000      25.728461       700.1070 
 127   0.0000      25.760171       700.9699 

                    ********************************
                    * MULLIKEN POPULATION ANALYSIS *
                    ********************************

-----------------------
MULLIKEN ATOMIC CHARGES
-----------------------
   0 N :   -0.718558
   1 H :    0.401240
   2 C :    0.566478
   3 O :   -0.389002
   4 C :   -0.452946
   5 H :    0.268149
   6 C :    0.083579
   7 H :    0.272672
   8 N :   -0.672072
   9 H :    0.397811
  10 C :    0.677129
  11 O :   -0.434482
Sum of atomic charges:    0.0000000

--------------------------------
MULLIKEN REDUCED ORBITAL CHARGES
--------------------------------
  0 N s       :     3.592030  s :     3.592030
      pz      :     1.655328  p :     4.094865
      px      :     1.161177
      py      :     1.278359
      dz2     :     0.004416  d :     0.031663
      dxz     :     0.004517
      dyz     :     0.001667
      dx2y2   :     0.011264
      dxy     :     0.009798
  1 H s       :     0.598760  s :     0.598760
  2 C s       :     2.926929  s :     2.926929
      pz      :     0.784228  p :     2.384985
      px      :     0.784233
      py      :     0.816524
      dz2     :     0.006132  d :     0.121608
      dxz     :     0.025813
      dyz     :     0.008892
      dx2y2   :     0.027498
      dxy     :     0.053274
  3 O s       :     3.758143  s :     3.758143
      pz      :     1.429369  p :     4.600448
      px      :     1.386940
      py      :     1.784139
      dz2     :     0.002762  d :     0.030411
      dxz     :     0.011240
      dyz     :     0.000414
      dx2y2   :     0.008768
      dxy     :     0.007227
  4 C s       :     3.301248  s :     3.301248
      pz      :     1.120630  p :     3.117163
      px      :     0.923713
      py      :     1.072819
      dz2     :     0.004129  d :     0.034535
      dxz     :     0.005429
      dyz     :     0.001846
      dx2y2   :     0.010679
      dxy     :     0.012451
  5 H s       :     0.731851  s :     0.731851
  6 C s       :     3.132123  s :     3.132123
      pz      :     0.921744  p :     2.724686
      px      :     0.936246
      py      :     0.866696
      dz2     :     0.004743  d :     0.059612
      dxz     :     0.012934
      dyz     :     0.006247
      dx2y2   :     0.012712
      dxy     :     0.022976
  7 H s       :     0.727328  s :     0.727328
  8 N s       :     3.571482  s :     3.571482
      pz      :     1.650489  p :     4.065251
      px      :     1.271479
      py      :     1.143283
      dz2     :     0.004264  d :     0.035339
      dxz     :     0.002137
      dyz     :     0.005930
      dx2y2   :     0.014505
      dxy     :     0.008504
  9 H s       :     0.602189  s :     0.602189
 10 C s       :     2.805260  s :     2.805260
      pz      :     0.796224  p :     2.374415
      px      :     0.793937
      py      :     0.784254
      dz2     :     0.006621  d :     0.143196
      dxz     :     0.020616
      dyz     :     0.024317
      dx2y2   :     0.057963
      dxy     :     0.033679
 11 O s       :     3.764322  s :     3.764322
      pz      :     1.498848  p :     4.640072
      px      :     1.643699
      py      :     1.497525
      dz2     :     0.002925  d :     0.030088
      dxz     :     0.003673
      dyz     :     0.007467
      dx2y2   :     0.006959
      dxy     :     0.009064


                     *******************************
                     * LOEWDIN POPULATION ANALYSIS *
                     *******************************

----------------------
LOEWDIN ATOMIC CHARGES
----------------------
   0 N :   -0.201115
   1 H :    0.288160
   2 C :    0.124410
   3 O :   -0.239207
   4 C :   -0.239450
   5 H :    0.164596
   6 C :   -0.012716
   7 H :    0.149949
   8 N :   -0.180813
   9 H :    0.288644
  10 C :    0.142795
  11 O :   -0.285253

-------------------------------
LOEWDIN REDUCED ORBITAL CHARGES
-------------------------------
  0 N s       :     3.117613  s :     3.117613
      pz      :     1.592977  p :     4.007491
      px      :     1.188397
      py      :     1.226117
      dz2     :     0.007668  d :     0.076012
      dxz     :     0.009543
      dyz     :     0.002974
      dx2y2   :     0.029246
      dxy     :     0.026581
  1 H s       :     0.711840  s :     0.711840
  2 C s       :     2.816614  s :     2.816614
      pz      :     0.795770  p :     2.782651
      px      :     0.995612
      py      :     0.991270
      dz2     :     0.014821  d :     0.276325
      dxz     :     0.051181
      dyz     :     0.017689
      dx2y2   :     0.063861
      dxy     :     0.128772
  3 O s       :     3.519831  s :     3.519831
      pz      :     1.422474  p :     4.663005
      px      :     1.468241
      py      :     1.772290
      dz2     :     0.006712  d :     0.056371
      dxz     :     0.014823
      dyz     :     0.000559
      dx2y2   :     0.019838
      dxy     :     0.014440
  4 C s       :     2.908648  s :     2.908648
      pz      :     1.099449  p :     3.249775
      px      :     1.073440
      py      :     1.076886
      dz2     :     0.007427  d :     0.081026
      dxz     :     0.009579
      dyz     :     0.003532
      dx2y2   :     0.029173
      dxy     :     0.031316
  5 H s       :     0.835404  s :     0.835404
  6 C s       :     2.881138  s :     2.881138
      pz      :     0.918912  p :     2.999435
      px      :     1.081794
      py      :     0.998729
      dz2     :     0.008976  d :     0.132142
      dxz     :     0.026537
      dyz     :     0.012675
      dx2y2   :     0.031855
      dxy     :     0.052100
  7 H s       :     0.850051  s :     0.850051
  8 N s       :     3.090439  s :     3.090439
      pz      :     1.593809  p :     4.005219
      px      :     1.213609
      py      :     1.197801
      dz2     :     0.006671  d :     0.085155
      dxz     :     0.003818
      dyz     :     0.012930
      dx2y2   :     0.036741
      dxy     :     0.024995
  9 H s       :     0.711356  s :     0.711356
 10 C s       :     2.779343  s :     2.779343
      pz      :     0.814020  p :     2.757171
      px      :     0.963669
      py      :     0.979482
      dz2     :     0.016665  d :     0.320691
      dxz     :     0.041674
      dyz     :     0.049210
      dx2y2   :     0.135287
      dxy     :     0.077856
 11 O s       :     3.530895  s :     3.530895
      pz      :     1.490934  p :     4.699674
      px      :     1.661531
      py      :     1.547209
      dz2     :     0.006806  d :     0.054683
      dxz     :     0.004983
      dyz     :     0.009950
      dx2y2   :     0.012807
      dxy     :     0.020137


                      *****************************
                      * MAYER POPULATION ANALYSIS *
                      *****************************

  NA   - Mulliken gross atomic population
  ZA   - Total nuclear charge
  QA   - Mulliken gross atomic charge
  VA   - Mayer's total valence
  BVA  - Mayer's bonded valence
  FA   - Mayer's free valence

  ATOM       NA         ZA         QA         VA         BVA        FA
  0 N      7.7186     7.0000    -0.7186     2.9974     2.9974    -0.0000
  1 H      0.5988     1.0000     0.4012     0.8298     0.8298     0.0000
  2 C      5.4335     6.0000     0.5665     4.0718     4.0718    -0.0000
  3 O      8.3890     8.0000    -0.3890     2.2345     2.2345     0.0000
  4 C      6.4529     6.0000    -0.4529     3.7507     3.7507    -0.0000
  5 H      0.7319     1.0000     0.2681     0.9068     0.9068    -0.0000
  6 C      5.9164     6.0000     0.0836     3.6375     3.6375     0.0000
  7 H      0.7273     1.0000     0.2727     0.8861     0.8861     0.0000
  8 N      7.6721     7.0000    -0.6721     3.0864     3.0864     0.0000
  9 H      0.6022     1.0000     0.3978     0.8271     0.8271     0.0000
 10 C      5.3229     6.0000     0.6771     4.1387     4.1387    -0.0000
 11 O      8.4345     8.0000    -0.4345     2.2002     2.2002    -0.0000

  Mayer bond orders larger than 0.100000
B(  0-N ,  1-H ) :   0.7972 B(  0-N ,  2-C ) :   0.9751 B(  0-N , 10-C ) :   1.0757 
B(  2-C ,  3-O ) :   2.0439 B(  2-C ,  4-C ) :   1.0547 B(  4-C ,  5-H ) :   0.9055 
B(  4-C ,  6-C ) :   1.6456 B(  6-C ,  7-H ) :   0.8995 B(  6-C ,  8-N ) :   1.0762 
B(  8-N ,  9-H ) :   0.8038 B(  8-N , 10-C ) :   1.0395 B( 10-C , 11-O ) :   2.0220 


-------
TIMINGS
-------

Total SCF time: 0 days 0 hours 1 min 36 sec 

Total time                  ....      96.376 sec
Sum of individual times     ....      89.872 sec  ( 93.3%)

Fock matrix formation       ....      76.028 sec  ( 78.9%)
  Split-RI-J                ....       8.432 sec  ( 11.1% of F)
  Chain of spheres X        ....      30.682 sec  ( 40.4% of F)
  XC integration            ....      19.368 sec  ( 25.5% of F)
    Basis function eval.    ....       2.934 sec  ( 15.1% of XC)
    Density eval.           ....       2.105 sec  ( 10.9% of XC)
    XC-Functional eval.     ....       1.322 sec  (  6.8% of XC)
    XC-Potential eval.      ....       1.246 sec  (  6.4% of XC)
Diagonalization             ....       0.810 sec  (  0.8%)
Density matrix formation    ....       0.034 sec  (  0.0%)
Population analysis         ....       0.270 sec  (  0.3%)
Initial guess               ....       0.184 sec  (  0.2%)
Orbital Transformation      ....       0.000 sec  (  0.0%)
Orbital Orthonormalization  ....       0.000 sec  (  0.0%)
DIIS solution               ....       3.076 sec  (  3.2%)
SOSCF solution              ....       2.106 sec  (  2.2%)
Grid generation             ....       7.363 sec  (  7.6%)

Maximum memory used throughout the entire SCF-calculation: 52.6 MB


-------------------------------------------------------------------------------
                          DFT DISPERSION CORRECTION                            
                                                                               
                              DFTD3 V3.1  Rev 1                                
                          USING Becke-Johnson damping                          
-------------------------------------------------------------------------------
The PBEh-3c composite method is recognized
Using three-body term ABC
Active option DFTDOPT                   ...         4   

molecular C6(AA) [au] = 1767.812272 


            DFT-D V3
 parameters
 s6 scaling factor         :     1.0000 
 a1 scaling factor         :     0.4860 
 s8 scaling factor         :     0.0000 
 a2 scaling factor         :     4.5000 
 Damping factor alpha9(ATM):    16.0000 
 ad hoc parameters k1-k3   :    16.0000     1.3333    -4.0000 

 Edisp/kcal,au: -3.914837662934  -0.006238690262 
 E6   /kcal   :  -3.922967061 
 E8   /kcal   :  -0.000000000 
 E6(ABC)      :   0.008129398 
 % E8         :   0.000000000 
 % E6(ABC)    :  -0.207656074 

-------------------------   ----------------
Dispersion correction           -0.006238690
-------------------------   ----------------

------------------   -----------------
gCP correction             0.025359322
------------------   -----------------

-------------------------   --------------------
FINAL SINGLE POINT ENERGY      -413.936906929585
-------------------------   --------------------


                            ***************************************
                            *     ORCA property calculations      *
                            ***************************************

                                    ---------------------
                                    Active property flags
                                    ---------------------
   (+) Dipole Moment


------------------------------------------------------------------------------
                       ORCA ELECTRIC PROPERTIES CALCULATION
------------------------------------------------------------------------------

Dipole Moment Calculation                       ... on
Quadrupole Moment Calculation                   ... off
Polarizability Calculation                      ... off
GBWName                                         ... pbeh-3c.gbw
Electron density                                ... pbeh-3c.scfp
The origin for moment calculation is the CENTER OF MASS  = ( 0.249378, -0.638003  0.000000)

-------------
DIPOLE MOMENT
-------------
                                X             Y             Z
Electronic contribution:      0.38494      -2.02254      -0.00000
Nuclear contribution   :     -1.52441       3.44335       0.00000
                        -----------------------------------------
Total Dipole Moment    :     -1.13947       1.42080      -0.00000
                        -----------------------------------------
Magnitude (a.u.)       :      1.82128
Magnitude (Debye)      :      4.62933



--------------------
Rotational spectrum 
--------------------
 
Rotational constants in cm-1:     0.130378     0.067584     0.044511 
Rotational constants in MHz :  3908.636370  2026.126073  1334.407255 

 Dipole components along the rotational axes: 
x,y,z [a.u.] :     0.518396     1.745948    -0.000000 
x,y,z [Debye]:     1.317657     4.437848    -0.000000 

 

Timings for individual modules:

Sum of individual times         ...      100.961 sec (=   1.683 min)
GTO integral calculation        ...        3.577 sec (=   0.060 min)   3.5 %
SCF iterations                  ...       97.384 sec (=   1.623 min)  96.5 %
                             ****ORCA TERMINATED NORMALLY****
TOTAL RUN TIME: 0 days 0 hours 1 minutes 43 seconds 466 msec
