
                                 *****************
                                 * O   R   C   A *
                                 *****************

                                            #,                                       
                                            ###                                      
                                            ####                                     
                                            #####                                    
                                            ######                                   
                                           ########,                                 
                                     ,,################,,,,,                         
                               ,,#################################,,                 
                          ,,##########################################,,             
                       ,#########################################, ''#####,          
                    ,#############################################,,   '####,        
                  ,##################################################,,,,####,       
                ,###########''''           ''''###############################       
              ,#####''   ,,,,##########,,,,          '''####'''          '####       
            ,##' ,,,,###########################,,,                        '##       
           ' ,,###''''                  '''############,,,                           
         ,,##''                                '''############,,,,        ,,,,,,###''
      ,#''                                            '''#######################'''  
     '                                                          ''''####''''         
             ,#######,   #######,   ,#######,      ##                                
            ,#'     '#,  ##    ##  ,#'     '#,    #''#        ######   ,####,        
            ##       ##  ##   ,#'  ##            #'  '#       #        #'  '#        
            ##       ##  #######   ##           ,######,      #####,   #    #        
            '#,     ,#'  ##    ##  '#,     ,#' ,#      #,         ##   #,  ,#        
             '#######'   ##     ##  '#######'  #'      '#     #####' # '####'        



                  #######################################################
                  #                        -***-                        #
                  #          Department of theory and spectroscopy      #
                  #    Directorship and core code : Frank Neese         #
                  #        Max Planck Institute fuer Kohlenforschung    #
                  #                Kaiser Wilhelm Platz 1               #
                  #                 D-45470 Muelheim/Ruhr               #
                  #                      Germany                        #
                  #                                                     #
                  #                  All rights reserved                #
                  #                        -***-                        #
                  #######################################################


                         Program Version 5.0.3 -  RELEASE  -


 With contributions from (in alphabetic order):
   Daniel Aravena         : Magnetic Suceptibility
   Michael Atanasov       : Ab Initio Ligand Field Theory (pilot matlab implementation)
   Alexander A. Auer      : GIAO ZORA, VPT2 properties, NMR spectrum
   Ute Becker             : Parallelization
   Giovanni Bistoni       : ED, misc. LED, open-shell LED, HFLD
   Martin Brehm           : Molecular dynamics
   Dmytro Bykov           : SCF Hessian
   Vijay G. Chilkuri      : MRCI spin determinant printing, contributions to CSF-ICE
   Dipayan Datta          : RHF DLPNO-CCSD density
   Achintya Kumar Dutta   : EOM-CC, STEOM-CC
   Dmitry Ganyushin       : Spin-Orbit,Spin-Spin,Magnetic field MRCI
   Miquel Garcia          : C-PCM and meta-GGA Hessian, CC/C-PCM, Gaussian charge scheme
   Yang Guo               : DLPNO-NEVPT2, F12-NEVPT2, CIM, IAO-localization
   Andreas Hansen         : Spin unrestricted coupled pair/coupled cluster methods
   Benjamin Helmich-Paris : MC-RPA, TRAH-SCF, COSX integrals
   Lee Huntington         : MR-EOM, pCC
   Robert Izsak           : Overlap fitted RIJCOSX, COSX-SCS-MP3, EOM
   Marcus Kettner         : VPT2
   Christian Kollmar      : KDIIS, OOCD, Brueckner-CCSD(T), CCSD density, CASPT2, CASPT2-K
   Simone Kossmann        : Meta GGA functionals, TD-DFT gradient, OOMP2, MP2 Hessian
   Martin Krupicka        : Initial AUTO-CI
   Lucas Lang             : DCDCAS
   Marvin Lechner         : AUTO-CI (C++ implementation), FIC-MRCC
   Dagmar Lenk            : GEPOL surface, SMD
   Dimitrios Liakos       : Extrapolation schemes; Compound Job, initial MDCI parallelization
   Dimitrios Manganas     : Further ROCIS development; embedding schemes
   Dimitrios Pantazis     : SARC Basis sets
   Anastasios Papadopoulos: AUTO-CI, single reference methods and gradients
   Taras Petrenko         : DFT Hessian,TD-DFT gradient, ASA, ECA, R-Raman, ABS, FL, XAS/XES, NRVS
   Peter Pinski           : DLPNO-MP2, DLPNO-MP2 Gradient
   Christoph Reimann      : Effective Core Potentials
   Marius Retegan         : Local ZFS, SOC
   Christoph Riplinger    : Optimizer, TS searches, QM/MM, DLPNO-CCSD(T), (RO)-DLPNO pert. Triples
   Tobias Risthaus        : Range-separated hybrids, TD-DFT gradient, RPA, STAB
   Michael Roemelt        : Original ROCIS implementation
   Masaaki Saitow         : Open-shell DLPNO-CCSD energy and density
   Barbara Sandhoefer     : DKH picture change effects
   Avijit Sen             : IP-ROCIS
   Kantharuban Sivalingam : CASSCF convergence, NEVPT2, FIC-MRCI
   Bernardo de Souza      : ESD, SOC TD-DFT
   Georgi Stoychev        : AutoAux, RI-MP2 NMR, DLPNO-MP2 response
   Willem Van den Heuvel  : Paramagnetic NMR
   Boris Wezisla          : Elementary symmetry handling
   Frank Wennmohs         : Technical directorship


 We gratefully acknowledge several colleagues who have allowed us to
 interface, adapt or use parts of their codes:
   Stefan Grimme, W. Hujo, H. Kruse, P. Pracht,  : VdW corrections, initial TS optimization,
                  C. Bannwarth, S. Ehlert          DFT functionals, gCP, sTDA/sTD-DF
   Ed Valeev, F. Pavosevic, A. Kumar             : LibInt (2-el integral package), F12 methods
   Garnet Chan, S. Sharma, J. Yang, R. Olivares  : DMRG
   Ulf Ekstrom                                   : XCFun DFT Library
   Mihaly Kallay                                 : mrcc  (arbitrary order and MRCC methods)
   Jiri Pittner, Ondrej Demel                    : Mk-CCSD
   Frank Weinhold                                : gennbo (NPA and NBO analysis)
   Christopher J. Cramer and Donald G. Truhlar   : smd solvation model
   Lars Goerigk                                  : TD-DFT with DH, B97 family of functionals
   V. Asgeirsson, H. Jonsson                     : NEB implementation
   FAccTs GmbH                                   : IRC, NEB, NEB-TS, DLPNO-Multilevel, CI-OPT
                                                   MM, QMMM, 2- and 3-layer-ONIOM, Crystal-QMMM,
                                                   LR-CPCM, SF, NACMEs, symmetry and pop. for TD-DFT,
                                                   nearIR, NL-DFT gradient (VV10), updates on ESD,
                                                   ML-optimized integration grids
   S Lehtola, MJT Oliveira, MAL Marques          : LibXC Library
   Liviu Ungur et al                             : ANISO software


 Your calculation uses the libint2 library for the computation of 2-el integrals
 For citations please refer to: http://libint.valeyev.net

 Your ORCA version has been built with support for libXC version: 5.1.0
 For citations please refer to: https://tddft.org/programs/libxc/

 This ORCA versions uses:
   CBLAS   interface :  Fast vector & matrix operations
   LAPACKE interface :  Fast linear algebra routines
   SCALAPACK package :  Parallel linear algebra routines
   Shared memory     :  Shared parallel matrices
   BLAS/LAPACK       :  OpenBLAS 0.3.15  USE64BITINT DYNAMIC_ARCH NO_AFFINITY Haswell SINGLE_THREADED
        Core in use  :  Haswell
   Copyright (c) 2011-2014, The OpenBLAS Project




***************************************
The coordinates will be read from file: 212.xyz
***************************************


Your calculation utilizes the geometrical counterpoise correction gCP
Please cite in your paper:
H.Kruse, S. Grimme J.Chem.Phys., 136, (2012), 154101 
   

Your calculation utilizes the atom-pairwise dispersion correction
with the Becke-Johnson damping scheme (D3BJ)
Cite in your paper:
S.Grimme, S.Ehrlich, L.Goerigk, J Comput Chem, (2011), 32, 1456–1465 
S.Grimme, J.Antony, S.Ehrlich and H.Krieg, J.Chem.Phys., 132, (2010), 154104 
   

Your calculation employs the composite approach PBEh-3c.
Please cite in your paper:
S. Grimme, J. G. Brandenburg, C. Bannwarth, A. Hansen J.Chem.Phys., 143, (2015), 054107 
   

================================================================================

----- Orbital basis set information -----
Your calculation utilizes the basis: def2-mSVP

----- AuxJ basis set information -----
Your calculation utilizes the auxiliary basis: def2/J
   F. Weigend, Phys. Chem. Chem. Phys. 8, 1057 (2006).

================================================================================
                                        WARNINGS
                       Please study these warnings very carefully!
================================================================================


INFO   : the flag for use of the SHARK integral package has been found!

================================================================================
                                       INPUT FILE
================================================================================
NAME = pbeh-3c.inp
|  1> ! PBEh-3c def2/J TightSCF DefGrid3
|  2> 
|  3> %maxcore 60000
|  4> 
|  5> %pal
|  6> nprocs 4
|  7> end
|  8> 
|  9> *xyzfile 0 1 212.xyz
| 10> 
| 11>                          ****END OF INPUT****
================================================================================

                       ****************************
                       * Single Point Calculation *
                       ****************************

---------------------------------
CARTESIAN COORDINATES (ANGSTROEM)
---------------------------------
  C     -0.641960   -1.190040   -0.607250
  N     -0.011160    0.023440    0.001330
  C     -0.628430    1.353510   -0.354760
  C     -2.033740    1.552390    0.210340
  H      0.052160   -0.075540    1.025180
  H      0.958680    0.055750   -0.343930
  H     -0.608780   -1.066070   -1.693390
  H     -0.031130   -2.056360   -0.336590
  H     -1.670280   -1.318360   -0.258010
  H     -2.389350    2.557950   -0.046570
  H     -2.752490    0.833690   -0.201850
  H     -2.043350    1.466110    1.306110
  H     -0.601620    1.406470   -1.448970
  H      0.076700    2.106620    0.016470
  Cl     2.552840    0.157990   -1.225870

----------------------------
CARTESIAN COORDINATES (A.U.)
----------------------------
  NO LB      ZA    FRAG     MASS         X           Y           Z
   0 C     6.0000    0    12.011   -1.213129   -2.248849   -1.147536
   1 N     7.0000    0    14.007   -0.021089    0.044295    0.002513
   2 C     6.0000    0    12.011   -1.187561    2.557763   -0.670399
   3 C     6.0000    0    12.011   -3.843211    2.933592    0.397485
   4 H     1.0000    0     1.008    0.098568   -0.142750    1.937309
   5 H     1.0000    0     1.008    1.811642    0.105352   -0.649934
   6 H     1.0000    0     1.008   -1.150427   -2.014580   -3.200043
   7 H     1.0000    0     1.008   -0.058827   -3.885957   -0.636063
   8 H     1.0000    0     1.008   -3.156372   -2.491339   -0.487568
   9 H     1.0000    0     1.008   -4.515217    4.833825   -0.088005
  10 H     1.0000    0     1.008   -5.201452    1.575446   -0.381441
  11 H     1.0000    0     1.008   -3.861372    2.770546    2.468190
  12 H     1.0000    0     1.008   -1.136897    2.657843   -2.738156
  13 H     1.0000    0     1.008    0.144942    3.980935    0.031124
  14 Cl   17.0000    0    35.453    4.824168    0.298558   -2.316558

--------------------------------
INTERNAL COORDINATES (ANGSTROEM)
--------------------------------
 C      0   0   0     0.000000000000     0.00000000     0.00000000
 N      1   0   0     1.496934108137     0.00000000     0.00000000
 C      2   1   0     1.508942768923   116.50180552     0.00000000
 C      3   2   1     1.527673780438   113.81391066    67.60758173
 H      2   1   3     1.030570269574   110.60563261   126.75727552
 H      2   1   3     1.029969822535   106.61515335   241.73993467
 H      1   2   3     1.093695275510   107.40188691    57.77957740
 H      1   2   3     1.094020322892   107.82212604   174.61140962
 H      1   2   3     1.093561345667   111.19481603   296.10941933
 H      4   3   2     1.097092458075   109.32195566   177.03798743
 H      4   3   2     1.096828019723   112.24042564   296.18377029
 H      4   3   2     1.099203468083   111.50467430    58.17297978
 H      3   2   1     1.095818800239   105.55907368   303.52548316
 H      3   2   1     1.096446397185   105.21638813   190.77071202
 Cl     6   2   1     1.824723757608   170.54562135    65.61550326

---------------------------
INTERNAL COORDINATES (A.U.)
---------------------------
 C      0   0   0     0.000000000000     0.00000000     0.00000000
 N      1   0   0     2.828795504905     0.00000000     0.00000000
 C      2   1   0     2.851488585026   116.50180552     0.00000000
 C      3   2   1     2.886885067000   113.81391066    67.60758173
 H      2   1   3     1.947495571256   110.60563261   126.75727552
 H      2   1   3     1.946360890794   106.61515335   241.73993467
 H      1   2   3     2.066784544677   107.40188691    57.77957740
 H      1   2   3     2.067398795209   107.82212604   174.61140962
 H      1   2   3     2.066531453952   111.19481603   296.10941933
 H      4   3   2     2.073204289353   109.32195566   177.03798743
 H      4   3   2     2.072704573288   112.24042564   296.18377029
 H      4   3   2     2.077193520134   111.50467430    58.17297978
 H      3   2   1     2.070797424855   105.55907368   303.52548316
 H      3   2   1     2.071983411204   105.21638813   190.77071202
 Cl     6   2   1     3.448228171939   170.54562135    65.61550326

---------------------
BASIS SET INFORMATION
---------------------
There are 4 groups of distinct atoms

 Group   1 Type C   : 8s4p1d contracted to 4s2p1d pattern {5111/31/1}
 Group   2 Type N   : 8s4p1d contracted to 4s2p1d pattern {5111/31/1}
 Group   3 Type H   : 4s contracted to 2s pattern {31}
 Group   4 Type Cl  : 10s7p1d contracted to 4s3p1d pattern {5311/511/1}

Atom   0C    basis set group =>   1
Atom   1N    basis set group =>   2
Atom   2C    basis set group =>   1
Atom   3C    basis set group =>   1
Atom   4H    basis set group =>   3
Atom   5H    basis set group =>   3
Atom   6H    basis set group =>   3
Atom   7H    basis set group =>   3
Atom   8H    basis set group =>   3
Atom   9H    basis set group =>   3
Atom  10H    basis set group =>   3
Atom  11H    basis set group =>   3
Atom  12H    basis set group =>   3
Atom  13H    basis set group =>   3
Atom  14Cl   basis set group =>   4
---------------------------------
AUXILIARY/J BASIS SET INFORMATION
---------------------------------
There are 4 groups of distinct atoms

 Group   1 Type C   : 12s5p4d2f1g contracted to 6s4p3d1f1g pattern {711111/2111/211/2/1}
 Group   2 Type N   : 12s5p4d2f1g contracted to 6s4p3d1f1g pattern {711111/2111/211/2/1}
 Group   3 Type H   : 5s2p1d contracted to 3s1p1d pattern {311/2/1}
 Group   4 Type Cl  : 14s5p5d2f1g contracted to 8s4p3d1f1g pattern {71111111/2111/311/2/1}

Atom   0C    basis set group =>   1
Atom   1N    basis set group =>   2
Atom   2C    basis set group =>   1
Atom   3C    basis set group =>   1
Atom   4H    basis set group =>   3
Atom   5H    basis set group =>   3
Atom   6H    basis set group =>   3
Atom   7H    basis set group =>   3
Atom   8H    basis set group =>   3
Atom   9H    basis set group =>   3
Atom  10H    basis set group =>   3
Atom  11H    basis set group =>   3
Atom  12H    basis set group =>   3
Atom  13H    basis set group =>   3
Atom  14Cl   basis set group =>   4


           ************************************************************
           *        Program running with 4 parallel MPI-processes     *
           *              working on a common directory               *
           ************************************************************
------------------------------------------------------------------------------
                           ORCA GTO INTEGRAL CALCULATION
                           -- RI-GTO INTEGRALS CHOSEN --
------------------------------------------------------------------------------
------------------------------------------------------------------------------
                   ___                                                        
                  /   \      - P O W E R E D   B Y -                         
                 /     \                                                     
                 |  |  |   _    _      __       _____    __    __             
                 |  |  |  | |  | |    /  \     |  _  \  |  |  /  |          
                  \  \/   | |  | |   /    \    | | | |  |  | /  /          
                 / \  \   | |__| |  /  /\  \   | |_| |  |  |/  /          
                |  |  |   |  __  | /  /__\  \  |    /   |      \           
                |  |  |   | |  | | |   __   |  |    \   |  |\   \          
                \     /   | |  | | |  |  |  |  | |\  \  |  | \   \       
                 \___/    |_|  |_| |__|  |__|  |_| \__\ |__|  \__/        
                                                                              
                      - O R C A' S   B I G   F R I E N D -                    
                                      &                                       
                       - I N T E G R A L  F E E D E R -                       
                                                                              
 v1 FN, 2020, v2 2021                                                         
------------------------------------------------------------------------------


Reading SHARK input file pbeh-3c.SHARKINP.tmp ... ok
----------------------
SHARK INTEGRAL PACKAGE
----------------------

Number of atoms                             ...     15
Number of basis functions                   ...     98
Number of shells                            ...     56
Maximum angular momentum                    ...      2
Integral batch strategy                     ... SHARK/LIBINT Hybrid
RI-J (if used) integral strategy            ... SPLIT-RIJ (Revised 2003 algorithm where possible)
Printlevel                                  ...      1
Contraction scheme used                     ... SEGMENTED contraction
Coulomb Range Separation                    ... NOT USED
Exchange Range Separation                   ... NOT USED
Finite Nucleus Model                        ... NOT USED
Auxiliary Coulomb fitting basis             ... AVAILABLE
   # of basis functions in Aux-J            ...    357
   # of shells in Aux-J                     ...    127
   Maximum angular momentum in Aux-J        ...      4
Auxiliary J/K fitting basis                 ... NOT available
Auxiliary Correlation fitting basis         ... NOT available
Auxiliary 'external' fitting basis          ... NOT available
Integral threshold                          ...     2.500000e-11
Primitive cut-off                           ...     2.500000e-12
Primitive pair pre-selection threshold      ...     2.500000e-12

Calculating pre-screening integrals         ... done (  0.1 sec) Dimension = 56
Organizing shell pair data                  ... done (  0.2 sec)
Shell pair information
Total number of shell pairs                 ...      1596
Shell pairs after pre-screening             ...      1499
Total number of primitive shell pairs       ...      6210
Primitive shell pairs kept                  ...      4239
          la=0 lb=0:    758 shell pairs
          la=1 lb=0:    417 shell pairs
          la=1 lb=1:     65 shell pairs
          la=2 lb=0:    191 shell pairs
          la=2 lb=1:     53 shell pairs
          la=2 lb=2:     15 shell pairs

Calculating one electron integrals          ... done (  0.0 sec)
Calculating RI/J V-Matrix + Cholesky decomp.... done (  0.2 sec)
Calculating Nuclear repulsion               ... done (  0.0 sec) ENN=    230.676628391502 Eh

SHARK setup successfully completed in   1.4 seconds

Maximum memory used throughout the entire GTOINT-calculation: 10.2 MB


           ************************************************************
           *        Program running with 4 parallel MPI-processes     *
           *              working on a common directory               *
           ************************************************************
-------------------------------------------------------------------------------
                                 ORCA SCF
-------------------------------------------------------------------------------

------------
SCF SETTINGS
------------
Hamiltonian:
 Density Functional     Method          .... DFT(GTOs)
 Exchange Functional    Exchange        .... PBE
   PBE kappa parameter   XKappa         ....  1.024500
   PBE mue parameter    XMuePBE         ....  0.123457
 Correlation Functional Correlation     .... PBE
   PBE beta parameter  CBetaPBE         ....  0.030000
 LDA part of GGA corr.  LDAOpt          .... PW91-LDA
 Gradients option       PostSCFGGA      .... off
 Hybrid DFT is turned on
   Fraction HF Exchange ScalHFX         ....  0.420000
   Scaling of DF-GGA-X  ScalDFX         ....  0.580000
   Scaling of DF-GGA-C  ScalDFC         ....  1.000000
   Scaling of DF-LDA-C  ScalLDAC        ....  1.000000
   Perturbative correction              ....  0.000000
   Density functional embedding theory  .... OFF
 RI-approximation to the Coulomb term is turned on
   Number of AuxJ basis functions       .... 357
   RIJ-ON(X) (HFX calculated with O(N)) .... on
   Number of AuxJ basis functions       .... 357
   RIJ-COSX (HFX calculated with COS-X)).... on


General Settings:
 Integral files         IntName         .... pbeh-3c
 Hartree-Fock type      HFTyp           .... RHF
 Total Charge           Charge          ....    0
 Multiplicity           Mult            ....    1
 Number of Electrons    NEL             ....   52
 Basis Dimension        Dim             ....   98
 Nuclear Repulsion      ENuc            ....    230.6766283915 Eh

Convergence Acceleration:
 DIIS                   CNVDIIS         .... on
   Start iteration      DIISMaxIt       ....    12
   Startup error        DIISStart       ....  0.200000
   # of expansion vecs  DIISMaxEq       ....     5
   Bias factor          DIISBfac        ....   1.050
   Max. coefficient     DIISMaxC        ....  10.000
 Trust-Rad. Augm. Hess. CNVTRAH         .... auto
   Auto Start mean grad. ratio tolernc. ....  1.125000
   Auto Start start iteration           ....    20
   Auto Start num. interpolation iter.  ....    10
   Max. Number of Micro iterations      ....    16
   Max. Number of Macro iterations      .... Maxiter - #DIIS iter
   Number of Davidson start vectors     ....     2
   Converg. threshold I  (grad. norm)   ....   1.000e-05
   Converg. threshold II (energy diff.) ....   1.000e-08
   Grad. Scal. Fac. for Micro threshold ....   0.100
   Minimum threshold for Micro iter.    ....   0.010
   NR start threshold (gradient norm)   ....   0.001
   Initial trust radius                 ....   0.400
   Minimum AH scaling param. (alpha)    ....   1.000
   Maximum AH scaling param. (alpha)    .... 1000.000
   Orbital update algorithm             .... Taylor
   White noise on init. David. guess    .... on
   Maximum white noise                  ....   0.010
   Quad. conv. algorithm                .... NR
   COSX micro iterations for RIJONX calc.... off
 SOSCF                  CNVSOSCF        .... on
   Start iteration      SOSCFMaxIt      ....   150
   Startup grad/error   SOSCFStart      ....  0.003300
 Level Shifting         CNVShift        .... on
   Level shift para.    LevelShift      ....    0.2500
   Turn off err/grad.   ShiftErr        ....    0.0010
 Zerner damping         CNVZerner       .... off
 Static damping         CNVDamp         .... on
   Fraction old density DampFac         ....    0.7000
   Max. Damping (<1)    DampMax         ....    0.9800
   Min. Damping (>=0)   DampMin         ....    0.0000
   Turn off err/grad.   DampErr         ....    0.1000
 Fernandez-Rico         CNVRico         .... off

SCF Procedure:
 Maximum # iterations   MaxIter         ....   125
 SCF integral mode      SCFMode         .... Direct
   Integral package                     .... SHARK and LIBINT hybrid scheme
 Reset frequency        DirectResetFreq ....    20
 Integral Threshold     Thresh          ....  2.500e-11 Eh
 Primitive CutOff       TCut            ....  2.500e-12 Eh

Convergence Tolerance:
 Convergence Check Mode ConvCheckMode   .... Total+1el-Energy
 Convergence forced     ConvForced      .... 0
 Energy Change          TolE            ....  1.000e-08 Eh
 1-El. energy change                    ....  1.000e-05 Eh
 Orbital Gradient       TolG            ....  1.000e-05
 Orbital Rotation angle TolX            ....  1.000e-05
 DIIS Error             TolErr          ....  5.000e-07


Diagonalization of the overlap matrix:
Smallest eigenvalue                        ... 8.299e-03
Time for diagonalization                   ...    0.004 sec
Threshold for overlap eigenvalues          ... 1.000e-08
Number of eigenvalues below threshold      ... 0
Time for construction of square roots      ...    0.177 sec
Total time needed                          ...    0.182 sec

--------------------------------
INITIAL GUESS: MINIMAL BASIS EHT
--------------------------------
The minimal basis has 39 functions
EHT matrix was diagonalized
Basis set overlap was calculated now projecting the orbitals
Using GuessMode=FMatrix for the initial guess
C*T matrix was formed
Effective Fockian was calculated
Effective Fockian was diagonalized
Initial density was built
                      ------------------
                      INITIAL GUESS DONE
                      ------------------
-------------------
DFT GRID GENERATION
-------------------

General Integration Accuracy     IntAcc      ... 4.959
Radial Grid Type                 RadialGrid  ... OptM3 with GC (2021)
Angular Grid (max. ang.)         AngularGrid ... 6 (Lebedev-590)
Angular grid pruning method      GridPruning ... 4 (adaptive)
Weight generation scheme         WeightScheme... Becke
Basis function cutoff            BFCut       ... 1.0000e-11
Integration weight cutoff        WCut        ... 1.0000e-14
Angular grids for H and He will be reduced by one unit
Partially contracted basis set               ... off
Rotationally invariant grid construction     ... off

Total number of grid points                  ...   160436
Total number of batches                      ...     2514
Average number of points per batch           ...       63
Average number of grid points per atom       ...    10696
Time for grid setup =    3.658 sec

--------------------
COSX GRID GENERATION
--------------------

GRIDX 1
-------
General Integration Accuracy     IntAcc      ... 4.020
Radial Grid Type                 RadialGrid  ... OptM3 with GC (2021)
Angular Grid (max. ang.)         AngularGrid ... 2 (Lebedev-110)
Angular grid pruning method      GridPruning ... 4 (adaptive)
Weight generation scheme         WeightScheme... Becke
Basis function cutoff            BFCut       ... 1.0000e-11
Integration weight cutoff        WCut        ... 1.0000e-14
Angular grids for H and He will be reduced by one unit
Partially contracted basis set               ... on
Rotationally invariant grid construction     ... off

Total number of grid points                  ...    16778
Total number of batches                      ...      271
Average number of points per batch           ...       61
Average number of grid points per atom       ...     1119
UseSFitting                                  ... on

GRIDX 2
-------
General Integration Accuracy     IntAcc      ... 4.338
Radial Grid Type                 RadialGrid  ... OptM3 with GC (2021)
Angular Grid (max. ang.)         AngularGrid ... 3 (Lebedev-194)
Angular grid pruning method      GridPruning ... 4 (adaptive)
Weight generation scheme         WeightScheme... Becke
Basis function cutoff            BFCut       ... 1.0000e-11
Integration weight cutoff        WCut        ... 1.0000e-14
Angular grids for H and He will be reduced by one unit
Partially contracted basis set               ... on
Rotationally invariant grid construction     ... off

Total number of grid points                  ...    37278
Total number of batches                      ...      590
Average number of points per batch           ...       63
Average number of grid points per atom       ...     2485
UseSFitting                                  ... on

GRIDX 3
-------
General Integration Accuracy     IntAcc      ... 4.871
Radial Grid Type                 RadialGrid  ... OptM3 with GC (2021)
Angular Grid (max. ang.)         AngularGrid ... 4 (Lebedev-302)
Angular grid pruning method      GridPruning ... 4 (adaptive)
Weight generation scheme         WeightScheme... Becke
Basis function cutoff            BFCut       ... 1.0000e-11
Integration weight cutoff        WCut        ... 1.0000e-14
Angular grids for H and He will be reduced by one unit
Partially contracted basis set               ... on
Rotationally invariant grid construction     ... off

Total number of grid points                  ...    73879
Total number of batches                      ...     1161
Average number of points per batch           ...       63
Average number of grid points per atom       ...     4925
UseSFitting                                  ... on

Time for X-Grid setup             =    3.583 sec

--------------
SCF ITERATIONS
--------------
ITER       Energy         Delta-E        Max-DP      RMS-DP      [F,P]     Damp
               ***  Starting incremental Fock matrix formation  ***
  0   -633.8725731037   0.000000000000 0.12787936  0.00543437  0.3929441 0.7000
  1   -634.0493377665  -0.176764662832 0.07414873  0.00380657  0.2786059 0.7000
                               ***Turning on DIIS***
  2   -634.1630226748  -0.113684908284 0.06670855  0.00252268  0.1966462 0.7000
  3   -634.2403441741  -0.077321499315 0.08094769  0.00175043  0.1386521 0.7000
  4   -634.2945309414  -0.054186767277 0.20962659  0.00427545  0.0971257 0.0000
  5   -634.4228856837  -0.128354742282 0.01043108  0.00033581  0.0052712 0.0000
                      *** Initiating the SOSCF procedure ***
                           *** Shutting down DIIS ***
                      *** Re-Reading the Fockian *** 
                      *** Removing any level shift *** 
ITER      Energy       Delta-E        Grad      Rot      Max-DP    RMS-DP
  6   -634.42302248  -0.0001368006  0.000907  0.000907  0.004003  0.000117
               *** Restarting incremental Fock matrix formation ***
  7   -634.42304381  -0.0000213260  0.000541  0.001750  0.003227  0.000097
  8   -634.42304814  -0.0000043291  0.000148  0.000745  0.001477  0.000038
  9   -634.42304840  -0.0000002581  0.000055  0.000160  0.000338  0.000009
 10   -634.42304849  -0.0000000966  0.000018  0.000041  0.000104  0.000003
 11   -634.42304850  -0.0000000041  0.000015  0.000023  0.000055  0.000002
                  ***Gradient check signals convergence***
              ***Rediagonalizing the Fockian in SOSCF/NRSCF***

               *****************************************************
               *                     SUCCESS                       *
               *           SCF CONVERGED AFTER  12 CYCLES          *
               *****************************************************

Old exchange energy                            =    -22.368751148 Eh
New exchange energy                            =    -22.368748470 Eh
Exchange energy change after final integration =      0.000002678 Eh
Total energy after final integration           =   -634.423045822 Eh
Final COS-X integration done in                =     1.996 sec

----------------
TOTAL SCF ENERGY
----------------

Total Energy       :         -634.42304582 Eh          -17263.52874 eV

Components:
Nuclear Repulsion  :          230.67662839 Eh            6277.03018 eV
Electronic Energy  :         -865.09967421 Eh          -23540.55891 eV
One Electron Energy:        -1328.60543498 Eh          -36153.19188 eV
Two Electron Energy:          463.50576077 Eh           12612.63296 eV
Max COSX asymmetry :            0.00000148 Eh               0.00004 eV

Virial components:
Potential Energy   :        -1266.79371003 Eh          -34471.20933 eV
Kinetic Energy     :          632.37066421 Eh           17207.68059 eV
Virial Ratio       :            2.00324554


DFT components:
N(Alpha)           :       25.999999134162 electrons
N(Beta)            :       25.999999134162 electrons
N(Total)           :       51.999998268325 electrons
E(X)               :      -29.758247707777 Eh       
E(C)               :       -2.365149016134 Eh       
E(XC)              :      -32.123396723912 Eh       
DFET-embed. en.    :        0.000000000000 Eh       

---------------
SCF CONVERGENCE
---------------

  Last Energy change         ...   -1.4533e-09  Tolerance :   1.0000e-08
  Last MAX-Density change    ...    2.6645e-15  Tolerance :   1.0000e-07
  Last RMS-Density change    ...    6.4178e-17  Tolerance :   5.0000e-09
  Last Orbital Gradient      ...    8.0103e-07  Tolerance :   1.0000e-05
  Last Orbital Rotation      ...    1.2228e-06  Tolerance :   1.0000e-05

             **** THE GBW FILE WAS UPDATED (pbeh-3c.gbw) ****
             **** DENSITY pbeh-3c.scfp WAS UPDATED ****
             **** ENERGY FILE WAS UPDATED (pbeh-3c.en.tmp) ****
             **** THE GBW FILE WAS UPDATED (pbeh-3c.gbw) ****
             **** DENSITY pbeh-3c.scfp WAS UPDATED ****
----------------
ORBITAL ENERGIES
----------------

  NO   OCC          E(Eh)            E(eV) 
   0   2.0000    -102.121478     -2778.8667 
   1   2.0000     -14.747433      -401.2981 
   2   2.0000     -10.524330      -286.3816 
   3   2.0000     -10.517069      -286.1840 
   4   2.0000     -10.479018      -285.1486 
   5   2.0000      -9.586721      -260.8679 
   6   2.0000      -7.270966      -197.8530 
   7   2.0000      -7.268678      -197.7908 
   8   2.0000      -7.268628      -197.7894 
   9   2.0000      -1.110302       -30.2129 
  10   2.0000      -0.892191       -24.2778 
  11   2.0000      -0.823015       -22.3954 
  12   2.0000      -0.743236       -20.2245 
  13   2.0000      -0.731329       -19.9005 
  14   2.0000      -0.645722       -17.5710 
  15   2.0000      -0.615297       -16.7431 
  16   2.0000      -0.569291       -15.4912 
  17   2.0000      -0.532480       -14.4895 
  18   2.0000      -0.503230       -13.6936 
  19   2.0000      -0.497148       -13.5281 
  20   2.0000      -0.470401       -12.8003 
  21   2.0000      -0.463300       -12.6070 
  22   2.0000      -0.445493       -12.1225 
  23   2.0000      -0.241449        -6.5701 
  24   2.0000      -0.225713        -6.1420 
  25   2.0000      -0.225471        -6.1354 
  26   0.0000       0.067924         1.8483 
  27   0.0000       0.112954         3.0736 
  28   0.0000       0.127241         3.4624 
  29   0.0000       0.142915         3.8889 
  30   0.0000       0.152409         4.1473 
  31   0.0000       0.160567         4.3692 
  32   0.0000       0.164427         4.4743 
  33   0.0000       0.173251         4.7144 
  34   0.0000       0.186451         5.0736 
  35   0.0000       0.204354         5.5608 
  36   0.0000       0.218956         5.9581 
  37   0.0000       0.231453         6.2982 
  38   0.0000       0.301581         8.2064 
  39   0.0000       0.443789        12.0761 
  40   0.0000       0.458733        12.4828 
  41   0.0000       0.465515        12.6673 
  42   0.0000       0.479960        13.0604 
  43   0.0000       0.496864        13.5203 
  44   0.0000       0.538393        14.6504 
  45   0.0000       0.566688        15.4204 
  46   0.0000       0.614479        16.7208 
  47   0.0000       0.682053        18.5596 
  48   0.0000       0.691123        18.8064 
  49   0.0000       0.793567        21.5941 
  50   0.0000       0.876424        23.8487 
  51   0.0000       0.894840        24.3498 
  52   0.0000       0.908655        24.7258 
  53   0.0000       0.948091        25.7989 
  54   0.0000       0.949870        25.8473 
  55   0.0000       0.969803        26.3897 
  56   0.0000       0.978976        26.6393 
  57   0.0000       0.989033        26.9129 
  58   0.0000       0.995381        27.0857 
  59   0.0000       0.997065        27.1315 
  60   0.0000       1.000398        27.2222 
  61   0.0000       1.004591        27.3363 
  62   0.0000       1.012355        27.5476 
  63   0.0000       1.017984        27.7008 
  64   0.0000       1.029115        28.0036 
  65   0.0000       1.048242        28.5241 
  66   0.0000       1.060910        28.8688 
  67   0.0000       1.085430        29.5361 
  68   0.0000       1.101134        29.9634 
  69   0.0000       1.214674        33.0530 
  70   0.0000       1.250879        34.0381 
  71   0.0000       1.376645        37.4604 
  72   0.0000       1.399306        38.0770 
  73   0.0000       1.447559        39.3901 
  74   0.0000       1.510825        41.1116 
  75   0.0000       1.675135        45.5828 
  76   0.0000       1.750975        47.6465 
  77   0.0000       1.866539        50.7911 
  78   0.0000       1.892008        51.4842 
  79   0.0000       1.925841        52.4048 
  80   0.0000       1.970351        53.6160 
  81   0.0000       2.000317        54.4314 
  82   0.0000       2.046166        55.6790 
  83   0.0000       2.102131        57.2019 
  84   0.0000       2.141204        58.2651 
  85   0.0000       2.266450        61.6732 
  86   0.0000       2.296669        62.4955 
  87   0.0000       2.350044        63.9479 
  88   0.0000       2.361890        64.2703 
  89   0.0000       2.423392        65.9439 
  90   0.0000       2.503837        68.1329 
  91   0.0000       2.605471        70.8985 
  92   0.0000       2.646887        72.0255 
  93   0.0000       2.704604        73.5960 
  94   0.0000      13.574661       369.3853 
  95   0.0000      13.692984       372.6050 
  96   0.0000      13.902825       378.3151 
  97   0.0000      19.187612       522.1215 

                    ********************************
                    * MULLIKEN POPULATION ANALYSIS *
                    ********************************

-----------------------
MULLIKEN ATOMIC CHARGES
-----------------------
   0 C :   -0.524146
   1 N :   -0.635051
   2 C :   -0.313359
   3 C :   -0.661842
   4 H :    0.390106
   5 H :    0.385615
   6 H :    0.279255
   7 H :    0.280700
   8 H :    0.237216
   9 H :    0.256422
  10 H :    0.230419
  11 H :    0.222762
  12 H :    0.276783
  13 H :    0.281570
  14 Cl:   -0.706448
Sum of atomic charges:   -0.0000000

--------------------------------
MULLIKEN REDUCED ORBITAL CHARGES
--------------------------------
  0 C s       :     3.370584  s :     3.370584
      pz      :     1.119046  p :     3.108438
      px      :     1.090797
      py      :     0.898595
      dz2     :     0.012344  d :     0.045124
      dxz     :     0.004604
      dyz     :     0.007007
      dx2y2   :     0.010022
      dxy     :     0.011147
  1 N s       :     3.606497  s :     3.606497
      pz      :     1.315310  p :     3.985350
      px      :     1.458301
      py      :     1.211740
      dz2     :     0.014988  d :     0.043203
      dxz     :     0.003224
      dyz     :     0.006090
      dx2y2   :     0.011608
      dxy     :     0.007294
  2 C s       :     3.315893  s :     3.315893
      pz      :     1.146182  p :     2.945567
      px      :     0.979830
      py      :     0.819555
      dz2     :     0.014901  d :     0.051900
      dxz     :     0.006228
      dyz     :     0.005286
      dx2y2   :     0.009941
      dxy     :     0.015543
  3 C s       :     3.391450  s :     3.391450
      pz      :     1.101329  p :     3.234951
      px      :     0.970521
      py      :     1.163101
      dz2     :     0.011823  d :     0.035441
      dxz     :     0.005168
      dyz     :     0.002866
      dx2y2   :     0.007175
      dxy     :     0.008408
  4 H s       :     0.609894  s :     0.609894
  5 H s       :     0.614385  s :     0.614385
  6 H s       :     0.720745  s :     0.720745
  7 H s       :     0.719300  s :     0.719300
  8 H s       :     0.762784  s :     0.762784
  9 H s       :     0.743578  s :     0.743578
 10 H s       :     0.769581  s :     0.769581
 11 H s       :     0.777238  s :     0.777238
 12 H s       :     0.723217  s :     0.723217
 13 H s       :     0.718430  s :     0.718430
 14 Cls       :     5.976470  s :     5.976470
      pz      :     3.926085  p :    11.725761
      px      :     3.818992
      py      :     3.980683
      dz2     :     0.000256  d :     0.004217
      dxz     :     0.001975
      dyz     :     0.000084
      dx2y2   :     0.001536
      dxy     :     0.000366


                     *******************************
                     * LOEWDIN POPULATION ANALYSIS *
                     *******************************

----------------------
LOEWDIN ATOMIC CHARGES
----------------------
   0 C :   -0.254620
   1 N :   -0.181151
   2 C :   -0.148645
   3 C :   -0.375413
   4 H :    0.272721
   5 H :    0.240166
   6 H :    0.158366
   7 H :    0.157457
   8 H :    0.132360
   9 H :    0.151177
  10 H :    0.133884
  11 H :    0.132202
  12 H :    0.152603
  13 H :    0.153634
  14 Cl:   -0.724742

-------------------------------
LOEWDIN REDUCED ORBITAL CHARGES
-------------------------------
  0 C s       :     2.964603  s :     2.964603
      pz      :     1.123465  p :     3.203683
      px      :     1.107792
      py      :     0.972426
      dz2     :     0.021938  d :     0.086333
      dxz     :     0.008174
      dyz     :     0.014221
      dx2y2   :     0.019621
      dxy     :     0.022379
  1 N s       :     3.162122  s :     3.162122
      pz      :     1.276962  p :     3.932726
      px      :     1.408307
      py      :     1.247457
      dz2     :     0.026132  d :     0.086302
      dxz     :     0.006607
      dyz     :     0.013810
      dx2y2   :     0.023748
      dxy     :     0.016004
  2 C s       :     2.923860  s :     2.923860
      pz      :     1.131000  p :     3.118929
      px      :     1.069346
      py      :     0.918583
      dz2     :     0.027394  d :     0.105856
      dxz     :     0.012621
      dyz     :     0.010574
      dx2y2   :     0.022655
      dxy     :     0.032612
  3 C s       :     2.960559  s :     2.960559
      pz      :     1.125382  p :     3.348368
      px      :     1.075990
      py      :     1.146995
      dz2     :     0.020765  d :     0.066486
      dxz     :     0.011244
      dyz     :     0.004332
      dx2y2   :     0.014575
      dxy     :     0.015569
  4 H s       :     0.727279  s :     0.727279
  5 H s       :     0.759834  s :     0.759834
  6 H s       :     0.841634  s :     0.841634
  7 H s       :     0.842543  s :     0.842543
  8 H s       :     0.867640  s :     0.867640
  9 H s       :     0.848823  s :     0.848823
 10 H s       :     0.866116  s :     0.866116
 11 H s       :     0.867798  s :     0.867798
 12 H s       :     0.847397  s :     0.847397
 13 H s       :     0.846366  s :     0.846366
 14 Cls       :     5.958170  s :     5.958170
      pz      :     3.941466  p :    11.762132
      px      :     3.836198
      py      :     3.984468
      dz2     :     0.000251  d :     0.004441
      dxz     :     0.002134
      dyz     :     0.000087
      dx2y2   :     0.001587
      dxy     :     0.000383


                      *****************************
                      * MAYER POPULATION ANALYSIS *
                      *****************************

  NA   - Mulliken gross atomic population
  ZA   - Total nuclear charge
  QA   - Mulliken gross atomic charge
  VA   - Mayer's total valence
  BVA  - Mayer's bonded valence
  FA   - Mayer's free valence

  ATOM       NA         ZA         QA         VA         BVA        FA
  0 C      6.5241     6.0000    -0.5241     3.6215     3.6215    -0.0000
  1 N      7.6351     7.0000    -0.6351     3.0342     3.0342     0.0000
  2 C      6.3134     6.0000    -0.3134     3.6260     3.6260    -0.0000
  3 C      6.6618     6.0000    -0.6618     3.7017     3.7017    -0.0000
  4 H      0.6099     1.0000     0.3901     0.8142     0.8142     0.0000
  5 H      0.6144     1.0000     0.3856     0.9237     0.9237     0.0000
  6 H      0.7207     1.0000     0.2793     0.8969     0.8969     0.0000
  7 H      0.7193     1.0000     0.2807     0.8951     0.8951     0.0000
  8 H      0.7628     1.0000     0.2372     0.9048     0.9048    -0.0000
  9 H      0.7436     1.0000     0.2564     0.9012     0.9012    -0.0000
 10 H      0.7696     1.0000     0.2304     0.9086     0.9086    -0.0000
 11 H      0.7772     1.0000     0.2228     0.9114     0.9114    -0.0000
 12 H      0.7232     1.0000     0.2768     0.8912     0.8912    -0.0000
 13 H      0.7184     1.0000     0.2816     0.8895     0.8895    -0.0000
 14 Cl    17.7064    17.0000    -0.7064     0.5248     0.5248     0.0000

  Mayer bond orders larger than 0.100000
B(  0-C ,  1-N ) :   0.9142 B(  0-C ,  6-H ) :   0.8993 B(  0-C ,  7-H ) :   0.9040 
B(  0-C ,  8-H ) :   0.9089 B(  1-N ,  2-C ) :   0.8877 B(  1-N ,  4-H ) :   0.8109 
B(  1-N ,  5-H ) :   0.4790 B(  2-C ,  3-C ) :   0.9742 B(  2-C , 12-H ) :   0.8931 
B(  2-C , 13-H ) :   0.8970 B(  3-C ,  9-H ) :   0.9134 B(  3-C , 10-H ) :   0.9191 
B(  3-C , 11-H ) :   0.9216 B(  5-H , 14-Cl) :   0.4724 

-------
TIMINGS
-------

Total SCF time: 0 days 0 hours 1 min 0 sec 

Total time                  ....      60.486 sec
Sum of individual times     ....      55.909 sec  ( 92.4%)

Fock matrix formation       ....      44.003 sec  ( 72.7%)
  Split-RI-J                ....       4.642 sec  ( 10.5% of F)
  Chain of spheres X        ....      15.645 sec  ( 35.6% of F)
  XC integration            ....      12.361 sec  ( 28.1% of F)
    Basis function eval.    ....       2.550 sec  ( 20.6% of XC)
    Density eval.           ....       1.245 sec  ( 10.1% of XC)
    XC-Functional eval.     ....       1.106 sec  (  8.9% of XC)
    XC-Potential eval.      ....       0.760 sec  (  6.2% of XC)
Diagonalization             ....       1.330 sec  (  2.2%)
Density matrix formation    ....       0.059 sec  (  0.1%)
Population analysis         ....       0.296 sec  (  0.5%)
Initial guess               ....       0.028 sec  (  0.0%)
Orbital Transformation      ....       0.000 sec  (  0.0%)
Orbital Orthonormalization  ....       0.000 sec  (  0.0%)
DIIS solution               ....       2.506 sec  (  4.1%)
SOSCF solution              ....       0.446 sec  (  0.7%)
Grid generation             ....       7.241 sec  ( 12.0%)

Maximum memory used throughout the entire SCF-calculation: 51.5 MB


-------------------------------------------------------------------------------
                          DFT DISPERSION CORRECTION                            
                                                                               
                              DFTD3 V3.1  Rev 1                                
                          USING Becke-Johnson damping                          
-------------------------------------------------------------------------------
The PBEh-3c composite method is recognized
Using three-body term ABC
Active option DFTDOPT                   ...         4   

molecular C6(AA) [au] = 1922.358204 


            DFT-D V3
 parameters
 s6 scaling factor         :     1.0000 
 a1 scaling factor         :     0.4860 
 s8 scaling factor         :     0.0000 
 a2 scaling factor         :     4.5000 
 Damping factor alpha9(ATM):    16.0000 
 ad hoc parameters k1-k3   :    16.0000     1.3333    -4.0000 

 Edisp/kcal,au: -4.183030518991  -0.006666082738 
 E6   /kcal   :  -4.201264914 
 E8   /kcal   :  -0.000000000 
 E6(ABC)      :   0.018234395 
 % E8         :   0.000000000 
 % E6(ABC)    :  -0.435913503 

-------------------------   ----------------
Dispersion correction           -0.006666083
-------------------------   ----------------

------------------   -----------------
gCP correction             0.026080465
------------------   -----------------

-------------------------   --------------------
FINAL SINGLE POINT ENERGY      -634.403631439039
-------------------------   --------------------


                            ***************************************
                            *     ORCA property calculations      *
                            ***************************************

                                    ---------------------
                                    Active property flags
                                    ---------------------
   (+) Dipole Moment


------------------------------------------------------------------------------
                       ORCA ELECTRIC PROPERTIES CALCULATION
------------------------------------------------------------------------------

Dipole Moment Calculation                       ... on
Quadrupole Moment Calculation                   ... off
Polarizability Calculation                      ... off
GBWName                                         ... pbeh-3c.gbw
Electron density                                ... pbeh-3c.scfp
The origin for moment calculation is the CENTER OF MASS  = ( 0.822185,  0.602674 -1.076971)

-------------
DIPOLE MOMENT
-------------
                                X             Y             Z
Electronic contribution:     11.71124      -0.95002      -2.86580
Nuclear contribution   :    -15.37923       0.89084       4.37128
                        -----------------------------------------
Total Dipole Moment    :     -3.66799      -0.05917       1.50548
                        -----------------------------------------
Magnitude (a.u.)       :      3.96536
Magnitude (Debye)      :     10.07915



--------------------
Rotational spectrum 
--------------------
 
Rotational constants in cm-1:     0.202711     0.049406     0.041872 
Rotational constants in MHz :  6077.113204  1481.152399  1255.292017 

 Dipole components along the rotational axes: 
x,y,z [a.u.] :    -3.855070    -0.814666    -0.445937 
x,y,z [Debye]:    -9.798809    -2.070715    -1.133483 

 

Timings for individual modules:

Sum of individual times         ...       63.141 sec (=   1.052 min)
GTO integral calculation        ...        1.972 sec (=   0.033 min)   3.1 %
SCF iterations                  ...       61.169 sec (=   1.019 min)  96.9 %
                             ****ORCA TERMINATED NORMALLY****
TOTAL RUN TIME: 0 days 0 hours 1 minutes 5 seconds 767 msec
