
                                 *****************
                                 * O   R   C   A *
                                 *****************

                                            #,                                       
                                            ###                                      
                                            ####                                     
                                            #####                                    
                                            ######                                   
                                           ########,                                 
                                     ,,################,,,,,                         
                               ,,#################################,,                 
                          ,,##########################################,,             
                       ,#########################################, ''#####,          
                    ,#############################################,,   '####,        
                  ,##################################################,,,,####,       
                ,###########''''           ''''###############################       
              ,#####''   ,,,,##########,,,,          '''####'''          '####       
            ,##' ,,,,###########################,,,                        '##       
           ' ,,###''''                  '''############,,,                           
         ,,##''                                '''############,,,,        ,,,,,,###''
      ,#''                                            '''#######################'''  
     '                                                          ''''####''''         
             ,#######,   #######,   ,#######,      ##                                
            ,#'     '#,  ##    ##  ,#'     '#,    #''#        ######   ,####,        
            ##       ##  ##   ,#'  ##            #'  '#       #        #'  '#        
            ##       ##  #######   ##           ,######,      #####,   #    #        
            '#,     ,#'  ##    ##  '#,     ,#' ,#      #,         ##   #,  ,#        
             '#######'   ##     ##  '#######'  #'      '#     #####' # '####'        



                  #######################################################
                  #                        -***-                        #
                  #          Department of theory and spectroscopy      #
                  #    Directorship and core code : Frank Neese         #
                  #        Max Planck Institute fuer Kohlenforschung    #
                  #                Kaiser Wilhelm Platz 1               #
                  #                 D-45470 Muelheim/Ruhr               #
                  #                      Germany                        #
                  #                                                     #
                  #                  All rights reserved                #
                  #                        -***-                        #
                  #######################################################


                         Program Version 5.0.3 -  RELEASE  -


 With contributions from (in alphabetic order):
   Daniel Aravena         : Magnetic Suceptibility
   Michael Atanasov       : Ab Initio Ligand Field Theory (pilot matlab implementation)
   Alexander A. Auer      : GIAO ZORA, VPT2 properties, NMR spectrum
   Ute Becker             : Parallelization
   Giovanni Bistoni       : ED, misc. LED, open-shell LED, HFLD
   Martin Brehm           : Molecular dynamics
   Dmytro Bykov           : SCF Hessian
   Vijay G. Chilkuri      : MRCI spin determinant printing, contributions to CSF-ICE
   Dipayan Datta          : RHF DLPNO-CCSD density
   Achintya Kumar Dutta   : EOM-CC, STEOM-CC
   Dmitry Ganyushin       : Spin-Orbit,Spin-Spin,Magnetic field MRCI
   Miquel Garcia          : C-PCM and meta-GGA Hessian, CC/C-PCM, Gaussian charge scheme
   Yang Guo               : DLPNO-NEVPT2, F12-NEVPT2, CIM, IAO-localization
   Andreas Hansen         : Spin unrestricted coupled pair/coupled cluster methods
   Benjamin Helmich-Paris : MC-RPA, TRAH-SCF, COSX integrals
   Lee Huntington         : MR-EOM, pCC
   Robert Izsak           : Overlap fitted RIJCOSX, COSX-SCS-MP3, EOM
   Marcus Kettner         : VPT2
   Christian Kollmar      : KDIIS, OOCD, Brueckner-CCSD(T), CCSD density, CASPT2, CASPT2-K
   Simone Kossmann        : Meta GGA functionals, TD-DFT gradient, OOMP2, MP2 Hessian
   Martin Krupicka        : Initial AUTO-CI
   Lucas Lang             : DCDCAS
   Marvin Lechner         : AUTO-CI (C++ implementation), FIC-MRCC
   Dagmar Lenk            : GEPOL surface, SMD
   Dimitrios Liakos       : Extrapolation schemes; Compound Job, initial MDCI parallelization
   Dimitrios Manganas     : Further ROCIS development; embedding schemes
   Dimitrios Pantazis     : SARC Basis sets
   Anastasios Papadopoulos: AUTO-CI, single reference methods and gradients
   Taras Petrenko         : DFT Hessian,TD-DFT gradient, ASA, ECA, R-Raman, ABS, FL, XAS/XES, NRVS
   Peter Pinski           : DLPNO-MP2, DLPNO-MP2 Gradient
   Christoph Reimann      : Effective Core Potentials
   Marius Retegan         : Local ZFS, SOC
   Christoph Riplinger    : Optimizer, TS searches, QM/MM, DLPNO-CCSD(T), (RO)-DLPNO pert. Triples
   Tobias Risthaus        : Range-separated hybrids, TD-DFT gradient, RPA, STAB
   Michael Roemelt        : Original ROCIS implementation
   Masaaki Saitow         : Open-shell DLPNO-CCSD energy and density
   Barbara Sandhoefer     : DKH picture change effects
   Avijit Sen             : IP-ROCIS
   Kantharuban Sivalingam : CASSCF convergence, NEVPT2, FIC-MRCI
   Bernardo de Souza      : ESD, SOC TD-DFT
   Georgi Stoychev        : AutoAux, RI-MP2 NMR, DLPNO-MP2 response
   Willem Van den Heuvel  : Paramagnetic NMR
   Boris Wezisla          : Elementary symmetry handling
   Frank Wennmohs         : Technical directorship


 We gratefully acknowledge several colleagues who have allowed us to
 interface, adapt or use parts of their codes:
   Stefan Grimme, W. Hujo, H. Kruse, P. Pracht,  : VdW corrections, initial TS optimization,
                  C. Bannwarth, S. Ehlert          DFT functionals, gCP, sTDA/sTD-DF
   Ed Valeev, F. Pavosevic, A. Kumar             : LibInt (2-el integral package), F12 methods
   Garnet Chan, S. Sharma, J. Yang, R. Olivares  : DMRG
   Ulf Ekstrom                                   : XCFun DFT Library
   Mihaly Kallay                                 : mrcc  (arbitrary order and MRCC methods)
   Jiri Pittner, Ondrej Demel                    : Mk-CCSD
   Frank Weinhold                                : gennbo (NPA and NBO analysis)
   Christopher J. Cramer and Donald G. Truhlar   : smd solvation model
   Lars Goerigk                                  : TD-DFT with DH, B97 family of functionals
   V. Asgeirsson, H. Jonsson                     : NEB implementation
   FAccTs GmbH                                   : IRC, NEB, NEB-TS, DLPNO-Multilevel, CI-OPT
                                                   MM, QMMM, 2- and 3-layer-ONIOM, Crystal-QMMM,
                                                   LR-CPCM, SF, NACMEs, symmetry and pop. for TD-DFT,
                                                   nearIR, NL-DFT gradient (VV10), updates on ESD,
                                                   ML-optimized integration grids
   S Lehtola, MJT Oliveira, MAL Marques          : LibXC Library
   Liviu Ungur et al                             : ANISO software


 Your calculation uses the libint2 library for the computation of 2-el integrals
 For citations please refer to: http://libint.valeyev.net

 Your ORCA version has been built with support for libXC version: 5.1.0
 For citations please refer to: https://tddft.org/programs/libxc/

 This ORCA versions uses:
   CBLAS   interface :  Fast vector & matrix operations
   LAPACKE interface :  Fast linear algebra routines
   SCALAPACK package :  Parallel linear algebra routines
   Shared memory     :  Shared parallel matrices
   BLAS/LAPACK       :  OpenBLAS 0.3.15  USE64BITINT DYNAMIC_ARCH NO_AFFINITY Haswell SINGLE_THREADED
        Core in use  :  Haswell
   Copyright (c) 2011-2014, The OpenBLAS Project




***************************************
The coordinates will be read from file: h8.xyz
***************************************


Your calculation utilizes the geometrical counterpoise correction gCP
Please cite in your paper:
H.Kruse, S. Grimme J.Chem.Phys., 136, (2012), 154101 
   

Your calculation utilizes the atom-pairwise dispersion correction
with the Becke-Johnson damping scheme (D3BJ)
Cite in your paper:
S.Grimme, S.Ehrlich, L.Goerigk, J Comput Chem, (2011), 32, 1456–1465 
S.Grimme, J.Antony, S.Ehrlich and H.Krieg, J.Chem.Phys., 132, (2010), 154104 
   

Your calculation employs the composite approach PBEh-3c.
Please cite in your paper:
S. Grimme, J. G. Brandenburg, C. Bannwarth, A. Hansen J.Chem.Phys., 143, (2015), 054107 
   

================================================================================

----- Orbital basis set information -----
Your calculation utilizes the basis: def2-mSVP

----- AuxJ basis set information -----
Your calculation utilizes the auxiliary basis: def2/J
   F. Weigend, Phys. Chem. Chem. Phys. 8, 1057 (2006).

================================================================================
                                        WARNINGS
                       Please study these warnings very carefully!
================================================================================


INFO   : the flag for use of the SHARK integral package has been found!

================================================================================
                                       INPUT FILE
================================================================================
NAME = pbeh-3c.inp
|  1> ! PBEh-3c def2/J TightSCF DefGrid3
|  2> 
|  3> %maxcore 60000
|  4> 
|  5> %pal
|  6> nprocs 4
|  7> end
|  8> 
|  9> *xyzfile 0 1 h8.xyz
| 10> 
| 11>                          ****END OF INPUT****
================================================================================

                       ****************************
                       * Single Point Calculation *
                       ****************************

---------------------------------
CARTESIAN COORDINATES (ANGSTROEM)
---------------------------------
  C     -2.902198    0.536641    0.197362
  C     -1.618347   -0.270670    0.353816
  C     -0.412648    0.569355   -0.064925
  C      0.939940   -0.088335    0.176925
  C      2.110721    0.834165   -0.137752
  C      3.458743    0.165567    0.097033
  C     -1.714604   -1.566767   -0.443915
  H     -3.047816    0.812802   -0.848632
  H     -3.772752   -0.037095    0.514920
  H     -2.867522    1.454411    0.783889
  H     -1.497470   -0.524707    1.411916
  H     -0.511245    0.818781   -1.127210
  H     -0.442359    1.518718    0.477984
  H      1.032609   -0.992639   -0.428369
  H      1.004135   -0.406973    1.222122
  H      2.037383    1.162668   -1.177075
  H      2.032901    1.734505    0.475860
  H      3.565491   -0.719823   -0.529528
  H      4.286397    0.836316   -0.128331
  H      3.557435   -0.150610    1.135366
  H     -1.798703   -1.345569   -1.510094
  H     -0.843897   -2.203780   -0.299876
  H     -2.596195   -2.136961   -0.151488

----------------------------
CARTESIAN COORDINATES (A.U.)
----------------------------
  NO LB      ZA    FRAG     MASS         X           Y           Z
   0 C     6.0000    0    12.011   -5.484360    1.014105    0.372960
   1 C     6.0000    0    12.011   -3.058232   -0.511492    0.668616
   2 C     6.0000    0    12.011   -0.779792    1.075925   -0.122690
   3 C     6.0000    0    12.011    1.776228   -0.166929    0.334340
   4 C     6.0000    0    12.011    3.988685    1.576343   -0.260313
   5 C     6.0000    0    12.011    6.536077    0.312875    0.183366
   6 C     6.0000    0    12.011   -3.240132   -2.960760   -0.838878
   7 H     1.0000    0     1.008   -5.759537    1.535973   -1.603682
   8 H     1.0000    0     1.008   -7.129467   -0.070099    0.973058
   9 H     1.0000    0     1.008   -5.418830    2.748438    1.481336
  10 H     1.0000    0     1.008   -2.829809   -0.991553    2.668135
  11 H     1.0000    0     1.008   -0.966113    1.547272   -2.130117
  12 H     1.0000    0     1.008   -0.835937    2.869961    0.903258
  13 H     1.0000    0     1.008    1.951348   -1.875816   -0.809501
  14 H     1.0000    0     1.008    1.897541   -0.769067    2.309477
  15 H     1.0000    0     1.008    3.850096    2.197124   -2.224349
  16 H     1.0000    0     1.008    3.841627    3.277740    0.899246
  17 H     1.0000    0     1.008    6.737801   -1.360269   -1.000663
  18 H     1.0000    0     1.008    8.100117    1.580409   -0.242511
  19 H     1.0000    0     1.008    6.722579   -0.284612    2.145531
  20 H     1.0000    0     1.008   -3.399056   -2.542757   -2.853664
  21 H     1.0000    0     1.008   -1.594734   -4.164541   -0.566684
  22 H     1.0000    0     1.008   -4.906098   -4.038270   -0.286271

--------------------------------
INTERNAL COORDINATES (ANGSTROEM)
--------------------------------
 C      0   0   0     0.000000000000     0.00000000     0.00000000
 C      1   0   0     1.524632171411     0.00000000     0.00000000
 C      2   1   0     1.527971107638   110.19628191     0.00000000
 C      3   2   1     1.523332406047   114.82018795   174.34099615
 C      4   3   2     1.523403178315   112.83944941   185.20350879
 C      5   4   3     1.522928425213   112.49297677   180.41723625
 C      2   1   3     1.524961557340   110.07257620   236.05798688
 H      1   2   3     1.091591956608   110.15881896    61.86839608
 H      1   2   3     1.089898763917   111.34374369   181.42071253
 H      1   2   3     1.089732674301   111.34147798   302.23405443
 H      2   1   3     1.094861431352   108.36086737   117.69924423
 H      3   2   1     1.095620112929   108.65438844   297.18502188
 H      3   2   1     1.094039311790   108.64109832    52.46542193
 H      4   3   2     1.092123946281   110.17223899    63.42569635
 H      4   3   2     1.094572174783   109.23001549   306.82927907
 H      5   4   3     1.092467308822   109.08738851   302.45720644
 H      5   4   3     1.092331635497   109.16755825    58.30401232
 H      6   5   4     1.089903154857   110.77558675    59.87118800
 H      6   5   4     1.088901156606   111.74327072   180.18794213
 H      6   5   4     1.089882094629   110.75600382   300.49656537
 H      7   2   1     1.092126078003   110.08453582    63.75215003
 H      7   2   1     1.088422441961   112.19158293   184.07451557
 H      7   2   1     1.089879475225   110.81517318   304.60033899

---------------------------
INTERNAL COORDINATES (A.U.)
---------------------------
 C      0   0   0     0.000000000000     0.00000000     0.00000000
 C      1   0   0     2.881137258933     0.00000000     0.00000000
 C      2   1   0     2.887446933980   110.19628191     0.00000000
 C      3   2   1     2.878681058356   114.82018795   174.34099615
 C      4   3   2     2.878814798561   112.83944941   185.20350879
 C      5   4   3     2.877917645216   112.49297677   180.41723625
 C      2   1   3     2.881759708131   110.07257620   236.05798688
 H      1   2   3     2.062809847981   110.15881896    61.86839608
 H      1   2   3     2.059610177502   111.34374369   181.42071253
 H      1   2   3     2.059296313614   111.34147798   302.23405443
 H      2   1   3     2.068988259849   108.36086737   117.69924423
 H      3   2   1     2.070421960251   108.65438844   297.18502188
 H      3   2   1     2.067434679027   108.64109832    52.46542193
 H      4   3   2     2.063815162769   110.17223899    63.42569635
 H      4   3   2     2.068441644150   109.23001549   306.82927907
 H      5   4   3     2.064464023936   109.08738851   302.45720644
 H      5   4   3     2.064207638507   109.16755825    58.30401232
 H      6   5   4     2.059618475177   110.77558675    59.87118800
 H      6   5   4     2.057724972895   111.74327072   180.18794213
 H      6   5   4     2.059578677113   110.75600382   300.49656537
 H      7   2   1     2.063819191140   110.08453582    63.75215003
 H      7   2   1     2.056820333320   112.19158293   184.07451557
 H      7   2   1     2.059573727156   110.81517318   304.60033899

---------------------
BASIS SET INFORMATION
---------------------
There are 2 groups of distinct atoms

 Group   1 Type C   : 8s4p1d contracted to 4s2p1d pattern {5111/31/1}
 Group   2 Type H   : 4s contracted to 2s pattern {31}

Atom   0C    basis set group =>   1
Atom   1C    basis set group =>   1
Atom   2C    basis set group =>   1
Atom   3C    basis set group =>   1
Atom   4C    basis set group =>   1
Atom   5C    basis set group =>   1
Atom   6C    basis set group =>   1
Atom   7H    basis set group =>   2
Atom   8H    basis set group =>   2
Atom   9H    basis set group =>   2
Atom  10H    basis set group =>   2
Atom  11H    basis set group =>   2
Atom  12H    basis set group =>   2
Atom  13H    basis set group =>   2
Atom  14H    basis set group =>   2
Atom  15H    basis set group =>   2
Atom  16H    basis set group =>   2
Atom  17H    basis set group =>   2
Atom  18H    basis set group =>   2
Atom  19H    basis set group =>   2
Atom  20H    basis set group =>   2
Atom  21H    basis set group =>   2
Atom  22H    basis set group =>   2
---------------------------------
AUXILIARY/J BASIS SET INFORMATION
---------------------------------
There are 2 groups of distinct atoms

 Group   1 Type C   : 12s5p4d2f1g contracted to 6s4p3d1f1g pattern {711111/2111/211/2/1}
 Group   2 Type H   : 5s2p1d contracted to 3s1p1d pattern {311/2/1}

Atom   0C    basis set group =>   1
Atom   1C    basis set group =>   1
Atom   2C    basis set group =>   1
Atom   3C    basis set group =>   1
Atom   4C    basis set group =>   1
Atom   5C    basis set group =>   1
Atom   6C    basis set group =>   1
Atom   7H    basis set group =>   2
Atom   8H    basis set group =>   2
Atom   9H    basis set group =>   2
Atom  10H    basis set group =>   2
Atom  11H    basis set group =>   2
Atom  12H    basis set group =>   2
Atom  13H    basis set group =>   2
Atom  14H    basis set group =>   2
Atom  15H    basis set group =>   2
Atom  16H    basis set group =>   2
Atom  17H    basis set group =>   2
Atom  18H    basis set group =>   2
Atom  19H    basis set group =>   2
Atom  20H    basis set group =>   2
Atom  21H    basis set group =>   2
Atom  22H    basis set group =>   2


           ************************************************************
           *        Program running with 4 parallel MPI-processes     *
           *              working on a common directory               *
           ************************************************************
------------------------------------------------------------------------------
                           ORCA GTO INTEGRAL CALCULATION
                           -- RI-GTO INTEGRALS CHOSEN --
------------------------------------------------------------------------------
------------------------------------------------------------------------------
                   ___                                                        
                  /   \      - P O W E R E D   B Y -                         
                 /     \                                                     
                 |  |  |   _    _      __       _____    __    __             
                 |  |  |  | |  | |    /  \     |  _  \  |  |  /  |          
                  \  \/   | |  | |   /    \    | | | |  |  | /  /          
                 / \  \   | |__| |  /  /\  \   | |_| |  |  |/  /          
                |  |  |   |  __  | /  /__\  \  |    /   |      \           
                |  |  |   | |  | | |   __   |  |    \   |  |\   \          
                \     /   | |  | | |  |  |  |  | |\  \  |  | \   \       
                 \___/    |_|  |_| |__|  |__|  |_| \__\ |__|  \__/        
                                                                              
                      - O R C A' S   B I G   F R I E N D -                    
                                      &                                       
                       - I N T E G R A L  F E E D E R -                       
                                                                              
 v1 FN, 2020, v2 2021                                                         
------------------------------------------------------------------------------


Reading SHARK input file pbeh-3c.SHARKINP.tmp ... ok
----------------------
SHARK INTEGRAL PACKAGE
----------------------

Number of atoms                             ...     23
Number of basis functions                   ...    137
Number of shells                            ...     81
Maximum angular momentum                    ...      2
Integral batch strategy                     ... SHARK/LIBINT Hybrid
RI-J (if used) integral strategy            ... SPLIT-RIJ (Revised 2003 algorithm where possible)
Printlevel                                  ...      1
Contraction scheme used                     ... SEGMENTED contraction
Coulomb Range Separation                    ... NOT USED
Exchange Range Separation                   ... NOT USED
Finite Nucleus Model                        ... NOT USED
Auxiliary Coulomb fitting basis             ... AVAILABLE
   # of basis functions in Aux-J            ...    519
   # of shells in Aux-J                     ...    185
   Maximum angular momentum in Aux-J        ...      4
Auxiliary J/K fitting basis                 ... NOT available
Auxiliary Correlation fitting basis         ... NOT available
Auxiliary 'external' fitting basis          ... NOT available
Integral threshold                          ...     2.500000e-11
Primitive cut-off                           ...     2.500000e-12
Primitive pair pre-selection threshold      ...     2.500000e-12

Calculating pre-screening integrals         ... done (  0.1 sec) Dimension = 81
Organizing shell pair data                  ... done (  0.4 sec)
Shell pair information
Total number of shell pairs                 ...      3321
Shell pairs after pre-screening             ...      2934
Total number of primitive shell pairs       ...     12229
Primitive shell pairs kept                  ...      7593
          la=0 lb=0:   1563 shell pairs
          la=1 lb=0:    792 shell pairs
          la=1 lb=1:    104 shell pairs
          la=2 lb=0:    357 shell pairs
          la=2 lb=1:     94 shell pairs
          la=2 lb=2:     24 shell pairs

Calculating one electron integrals          ... done (  0.0 sec)
Calculating RI/J V-Matrix + Cholesky decomp.... done (  0.3 sec)
Calculating Nuclear repulsion               ... done (  0.0 sec) ENN=    320.283300260106 Eh

SHARK setup successfully completed in   1.8 seconds

Maximum memory used throughout the entire GTOINT-calculation: 11.6 MB


           ************************************************************
           *        Program running with 4 parallel MPI-processes     *
           *              working on a common directory               *
           ************************************************************
-------------------------------------------------------------------------------
                                 ORCA SCF
-------------------------------------------------------------------------------

------------
SCF SETTINGS
------------
Hamiltonian:
 Density Functional     Method          .... DFT(GTOs)
 Exchange Functional    Exchange        .... PBE
   PBE kappa parameter   XKappa         ....  1.024500
   PBE mue parameter    XMuePBE         ....  0.123457
 Correlation Functional Correlation     .... PBE
   PBE beta parameter  CBetaPBE         ....  0.030000
 LDA part of GGA corr.  LDAOpt          .... PW91-LDA
 Gradients option       PostSCFGGA      .... off
 Hybrid DFT is turned on
   Fraction HF Exchange ScalHFX         ....  0.420000
   Scaling of DF-GGA-X  ScalDFX         ....  0.580000
   Scaling of DF-GGA-C  ScalDFC         ....  1.000000
   Scaling of DF-LDA-C  ScalLDAC        ....  1.000000
   Perturbative correction              ....  0.000000
   Density functional embedding theory  .... OFF
 RI-approximation to the Coulomb term is turned on
   Number of AuxJ basis functions       .... 519
   RIJ-ON(X) (HFX calculated with O(N)) .... on
   Number of AuxJ basis functions       .... 519
   RIJ-COSX (HFX calculated with COS-X)).... on


General Settings:
 Integral files         IntName         .... pbeh-3c
 Hartree-Fock type      HFTyp           .... RHF
 Total Charge           Charge          ....    0
 Multiplicity           Mult            ....    1
 Number of Electrons    NEL             ....   58
 Basis Dimension        Dim             ....  137
 Nuclear Repulsion      ENuc            ....    320.2833002601 Eh

Convergence Acceleration:
 DIIS                   CNVDIIS         .... on
   Start iteration      DIISMaxIt       ....    12
   Startup error        DIISStart       ....  0.200000
   # of expansion vecs  DIISMaxEq       ....     5
   Bias factor          DIISBfac        ....   1.050
   Max. coefficient     DIISMaxC        ....  10.000
 Trust-Rad. Augm. Hess. CNVTRAH         .... auto
   Auto Start mean grad. ratio tolernc. ....  1.125000
   Auto Start start iteration           ....    20
   Auto Start num. interpolation iter.  ....    10
   Max. Number of Micro iterations      ....    16
   Max. Number of Macro iterations      .... Maxiter - #DIIS iter
   Number of Davidson start vectors     ....     2
   Converg. threshold I  (grad. norm)   ....   1.000e-05
   Converg. threshold II (energy diff.) ....   1.000e-08
   Grad. Scal. Fac. for Micro threshold ....   0.100
   Minimum threshold for Micro iter.    ....   0.010
   NR start threshold (gradient norm)   ....   0.001
   Initial trust radius                 ....   0.400
   Minimum AH scaling param. (alpha)    ....   1.000
   Maximum AH scaling param. (alpha)    .... 1000.000
   Orbital update algorithm             .... Taylor
   White noise on init. David. guess    .... on
   Maximum white noise                  ....   0.010
   Quad. conv. algorithm                .... NR
   COSX micro iterations for RIJONX calc.... off
 SOSCF                  CNVSOSCF        .... on
   Start iteration      SOSCFMaxIt      ....   150
   Startup grad/error   SOSCFStart      ....  0.003300
 Level Shifting         CNVShift        .... on
   Level shift para.    LevelShift      ....    0.2500
   Turn off err/grad.   ShiftErr        ....    0.0010
 Zerner damping         CNVZerner       .... off
 Static damping         CNVDamp         .... on
   Fraction old density DampFac         ....    0.7000
   Max. Damping (<1)    DampMax         ....    0.9800
   Min. Damping (>=0)   DampMin         ....    0.0000
   Turn off err/grad.   DampErr         ....    0.1000
 Fernandez-Rico         CNVRico         .... off

SCF Procedure:
 Maximum # iterations   MaxIter         ....   125
 SCF integral mode      SCFMode         .... Direct
   Integral package                     .... SHARK and LIBINT hybrid scheme
 Reset frequency        DirectResetFreq ....    20
 Integral Threshold     Thresh          ....  2.500e-11 Eh
 Primitive CutOff       TCut            ....  2.500e-12 Eh

Convergence Tolerance:
 Convergence Check Mode ConvCheckMode   .... Total+1el-Energy
 Convergence forced     ConvForced      .... 0
 Energy Change          TolE            ....  1.000e-08 Eh
 1-El. energy change                    ....  1.000e-05 Eh
 Orbital Gradient       TolG            ....  1.000e-05
 Orbital Rotation angle TolX            ....  1.000e-05
 DIIS Error             TolErr          ....  5.000e-07


Diagonalization of the overlap matrix:
Smallest eigenvalue                        ... 4.168e-03
Time for diagonalization                   ...    0.004 sec
Threshold for overlap eigenvalues          ... 1.000e-08
Number of eigenvalues below threshold      ... 0
Time for construction of square roots      ...    0.236 sec
Total time needed                          ...    0.324 sec

--------------------------------
INITIAL GUESS: MINIMAL BASIS EHT
--------------------------------
The minimal basis has 51 functions
EHT matrix was diagonalized
Basis set overlap was calculated now projecting the orbitals
Using GuessMode=FMatrix for the initial guess
C*T matrix was formed
Effective Fockian was calculated
Effective Fockian was diagonalized
Initial density was built
                      ------------------
                      INITIAL GUESS DONE
                      ------------------
-------------------
DFT GRID GENERATION
-------------------

General Integration Accuracy     IntAcc      ... 4.959
Radial Grid Type                 RadialGrid  ... OptM3 with GC (2021)
Angular Grid (max. ang.)         AngularGrid ... 6 (Lebedev-590)
Angular grid pruning method      GridPruning ... 4 (adaptive)
Weight generation scheme         WeightScheme... Becke
Basis function cutoff            BFCut       ... 1.0000e-11
Integration weight cutoff        WCut        ... 1.0000e-14
Angular grids for H and He will be reduced by one unit
Partially contracted basis set               ... off
Rotationally invariant grid construction     ... off

Total number of grid points                  ...   237475
Total number of batches                      ...     3720
Average number of points per batch           ...       63
Average number of grid points per atom       ...    10325
Time for grid setup =    4.705 sec

--------------------
COSX GRID GENERATION
--------------------

GRIDX 1
-------
General Integration Accuracy     IntAcc      ... 4.020
Radial Grid Type                 RadialGrid  ... OptM3 with GC (2021)
Angular Grid (max. ang.)         AngularGrid ... 2 (Lebedev-110)
Angular grid pruning method      GridPruning ... 4 (adaptive)
Weight generation scheme         WeightScheme... Becke
Basis function cutoff            BFCut       ... 1.0000e-11
Integration weight cutoff        WCut        ... 1.0000e-14
Angular grids for H and He will be reduced by one unit
Partially contracted basis set               ... on
Rotationally invariant grid construction     ... off

Total number of grid points                  ...    24533
Total number of batches                      ...      396
Average number of points per batch           ...       61
Average number of grid points per atom       ...     1067
UseSFitting                                  ... on

GRIDX 2
-------
General Integration Accuracy     IntAcc      ... 4.338
Radial Grid Type                 RadialGrid  ... OptM3 with GC (2021)
Angular Grid (max. ang.)         AngularGrid ... 3 (Lebedev-194)
Angular grid pruning method      GridPruning ... 4 (adaptive)
Weight generation scheme         WeightScheme... Becke
Basis function cutoff            BFCut       ... 1.0000e-11
Integration weight cutoff        WCut        ... 1.0000e-14
Angular grids for H and He will be reduced by one unit
Partially contracted basis set               ... on
Rotationally invariant grid construction     ... off

Total number of grid points                  ...    53282
Total number of batches                      ...      845
Average number of points per batch           ...       63
Average number of grid points per atom       ...     2317
UseSFitting                                  ... on

GRIDX 3
-------
General Integration Accuracy     IntAcc      ... 4.871
Radial Grid Type                 RadialGrid  ... OptM3 with GC (2021)
Angular Grid (max. ang.)         AngularGrid ... 4 (Lebedev-302)
Angular grid pruning method      GridPruning ... 4 (adaptive)
Weight generation scheme         WeightScheme... Becke
Basis function cutoff            BFCut       ... 1.0000e-11
Integration weight cutoff        WCut        ... 1.0000e-14
Angular grids for H and He will be reduced by one unit
Partially contracted basis set               ... on
Rotationally invariant grid construction     ... off

Total number of grid points                  ...   106815
Total number of batches                      ...     1681
Average number of points per batch           ...       63
Average number of grid points per atom       ...     4644
UseSFitting                                  ... on

Time for X-Grid setup             =    4.528 sec

--------------
SCF ITERATIONS
--------------
ITER       Energy         Delta-E        Max-DP      RMS-DP      [F,P]     Damp
               ***  Starting incremental Fock matrix formation  ***
  0   -275.2944527802   0.000000000000 0.03981203  0.00202134  0.4030512 0.7000
  1   -275.4454624647  -0.151009684477 0.02822498  0.00154318  0.2855405 0.7000
  2   -275.5534308358  -0.107968371109 0.02122703  0.00115359  0.2013517 0.7000
                               ***Turning on DIIS***
  3   -275.6299305788  -0.076499743047 0.01621692  0.00085622  0.1418781 0.7000
  4   -275.6840029558  -0.054072377015 0.04505997  0.00222146  0.0998832 0.0000
                      *** Initiating the SOSCF procedure ***
                           *** Shutting down DIIS ***
                      *** Re-Reading the Fockian *** 
                      *** Removing any level shift *** 
ITER      Energy       Delta-E        Grad      Rot      Max-DP    RMS-DP
  5   -275.81218500  -0.1281820458  0.001338  0.001338  0.002932  0.000162
               *** Restarting incremental Fock matrix formation ***
  6   -275.81225671  -0.0000717110  0.000534  0.001079  0.001380  0.000093
  7   -275.81226542  -0.0000087061  0.000113  0.000254  0.000360  0.000024
  8   -275.81226576  -0.0000003425  0.000081  0.000076  0.000165  0.000009
  9   -275.81226604  -0.0000002780  0.000003  0.000003  0.000016  0.000001
 10   -275.81226604  -0.0000000013  0.000003  0.000002  0.000007  0.000000
                 **** Energy Check signals convergence ****
              ***Rediagonalizing the Fockian in SOSCF/NRSCF***

               *****************************************************
               *                     SUCCESS                       *
               *           SCF CONVERGED AFTER  11 CYCLES          *
               *****************************************************

Old exchange energy                            =    -17.647283250 Eh
New exchange energy                            =    -17.647282334 Eh
Exchange energy change after final integration =      0.000000916 Eh
Total energy after final integration           =   -275.812265124 Eh
Final COS-X integration done in                =     6.904 sec

----------------
TOTAL SCF ENERGY
----------------

Total Energy       :         -275.81226512 Eh           -7505.23329 eV

Components:
Nuclear Repulsion  :          320.28330026 Eh            8715.35168 eV
Electronic Energy  :         -596.09556538 Eh          -16220.58497 eV
One Electron Energy:        -1004.50766177 Eh          -27334.04311 eV
Two Electron Energy:          408.41209639 Eh           11113.45814 eV
Max COSX asymmetry :            0.00000055 Eh               0.00001 eV

Virial components:
Potential Energy   :         -549.30312764 Eh          -14947.29801 eV
Kinetic Energy     :          273.49086252 Eh            7442.06472 eV
Virial Ratio       :            2.00848804


DFT components:
N(Alpha)           :       28.999990756522 electrons
N(Beta)            :       28.999990756522 electrons
N(Total)           :       57.999981513044 electrons
E(X)               :      -23.366386614293 Eh       
E(C)               :       -2.446091034384 Eh       
E(XC)              :      -25.812477648677 Eh       
DFET-embed. en.    :        0.000000000000 Eh       

---------------
SCF CONVERGENCE
---------------

  Last Energy change         ...    5.7850e-10  Tolerance :   1.0000e-08
  Last MAX-Density change    ...    9.9920e-16  Tolerance :   1.0000e-07
  Last RMS-Density change    ...    3.3812e-17  Tolerance :   5.0000e-09
  Last Orbital Gradient      ...    1.6090e-07  Tolerance :   1.0000e-05
  Last Orbital Rotation      ...    1.6972e-07  Tolerance :   1.0000e-05

             **** THE GBW FILE WAS UPDATED (pbeh-3c.gbw) ****
             **** DENSITY pbeh-3c.scfp WAS UPDATED ****
             **** ENERGY FILE WAS UPDATED (pbeh-3c.en.tmp) ****
             **** THE GBW FILE WAS UPDATED (pbeh-3c.gbw) ****
             **** DENSITY pbeh-3c.scfp WAS UPDATED ****
----------------
ORBITAL ENERGIES
----------------

  NO   OCC          E(Eh)            E(eV) 
   0   2.0000     -10.435461      -283.9633 
   1   2.0000     -10.426826      -283.7284 
   2   2.0000     -10.424616      -283.6682 
   3   2.0000     -10.424000      -283.6515 
   4   2.0000     -10.418771      -283.5092 
   5   2.0000     -10.417422      -283.4725 
   6   2.0000     -10.417189      -283.4661 
   7   2.0000      -0.908317       -24.7166 
   8   2.0000      -0.868123       -23.6228 
   9   2.0000      -0.795027       -21.6338 
  10   2.0000      -0.760465       -20.6933 
  11   2.0000      -0.709201       -19.2983 
  12   2.0000      -0.648753       -17.6535 
  13   2.0000      -0.623538       -16.9673 
  14   2.0000      -0.537341       -14.6218 
  15   2.0000      -0.511253       -13.9119 
  16   2.0000      -0.495639       -13.4870 
  17   2.0000      -0.488519       -13.2933 
  18   2.0000      -0.462277       -12.5792 
  19   2.0000      -0.444135       -12.0855 
  20   2.0000      -0.434057       -11.8113 
  21   2.0000      -0.429583       -11.6896 
  22   2.0000      -0.403514       -10.9802 
  23   2.0000      -0.400765       -10.9054 
  24   2.0000      -0.385999       -10.5036 
  25   2.0000      -0.372033       -10.1235 
  26   2.0000      -0.363146        -9.8817 
  27   2.0000      -0.360644        -9.8136 
  28   2.0000      -0.349552        -9.5118 
  29   0.0000       0.131722         3.5843 
  30   0.0000       0.145345         3.9550 
  31   0.0000       0.174847         4.7578 
  32   0.0000       0.179893         4.8951 
  33   0.0000       0.184250         5.0137 
  34   0.0000       0.199091         5.4175 
  35   0.0000       0.202569         5.5122 
  36   0.0000       0.206695         5.6245 
  37   0.0000       0.218329         5.9410 
  38   0.0000       0.219215         5.9651 
  39   0.0000       0.225680         6.1411 
  40   0.0000       0.232704         6.3322 
  41   0.0000       0.238918         6.5013 
  42   0.0000       0.241814         6.5801 
  43   0.0000       0.256367         6.9761 
  44   0.0000       0.260945         7.1007 
  45   0.0000       0.269396         7.3306 
  46   0.0000       0.275236         7.4895 
  47   0.0000       0.295796         8.0490 
  48   0.0000       0.307938         8.3794 
  49   0.0000       0.315327         8.5805 
  50   0.0000       0.330700         8.9988 
  51   0.0000       0.474475        12.9111 
  52   0.0000       0.498737        13.5713 
  53   0.0000       0.516207        14.0467 
  54   0.0000       0.527584        14.3563 
  55   0.0000       0.537043        14.6137 
  56   0.0000       0.546621        14.8743 
  57   0.0000       0.557461        15.1693 
  58   0.0000       0.601893        16.3783 
  59   0.0000       0.611127        16.6296 
  60   0.0000       0.621234        16.9046 
  61   0.0000       0.659531        17.9468 
  62   0.0000       0.683735        18.6054 
  63   0.0000       0.704954        19.1828 
  64   0.0000       0.715501        19.4698 
  65   0.0000       0.732745        19.9390 
  66   0.0000       0.738047        20.0833 
  67   0.0000       0.760922        20.7057 
  68   0.0000       0.795480        21.6461 
  69   0.0000       0.829529        22.5726 
  70   0.0000       0.901866        24.5410 
  71   0.0000       0.966561        26.3015 
  72   0.0000       0.968672        26.3589 
  73   0.0000       0.985238        26.8097 
  74   0.0000       1.014503        27.6060 
  75   0.0000       1.026713        27.9383 
  76   0.0000       1.034326        28.1454 
  77   0.0000       1.040340        28.3091 
  78   0.0000       1.050005        28.5721 
  79   0.0000       1.059269        28.8242 
  80   0.0000       1.062267        28.9057 
  81   0.0000       1.068633        29.0790 
  82   0.0000       1.070051        29.1176 
  83   0.0000       1.084120        29.5004 
  84   0.0000       1.093407        29.7531 
  85   0.0000       1.099874        29.9291 
  86   0.0000       1.109667        30.1956 
  87   0.0000       1.146956        31.2103 
  88   0.0000       1.155816        31.4513 
  89   0.0000       1.286490        35.0072 
  90   0.0000       1.390244        37.8305 
  91   0.0000       1.446365        39.3576 
  92   0.0000       1.452302        39.5191 
  93   0.0000       1.478410        40.2296 
  94   0.0000       1.485618        40.4257 
  95   0.0000       1.541226        41.9389 
  96   0.0000       1.575144        42.8618 
  97   0.0000       1.682275        45.7770 
  98   0.0000       1.723409        46.8963 
  99   0.0000       1.771479        48.2044 
 100   0.0000       1.850791        50.3626 
 101   0.0000       1.860498        50.6267 
 102   0.0000       1.898885        51.6713 
 103   0.0000       1.946204        52.9589 
 104   0.0000       1.975486        53.7557 
 105   0.0000       2.005499        54.5724 
 106   0.0000       2.020267        54.9743 
 107   0.0000       2.031677        55.2847 
 108   0.0000       2.051844        55.8335 
 109   0.0000       2.084494        56.7220 
 110   0.0000       2.112064        57.4722 
 111   0.0000       2.130406        57.9713 
 112   0.0000       2.174896        59.1819 
 113   0.0000       2.216151        60.3045 
 114   0.0000       2.310889        62.8825 
 115   0.0000       2.320553        63.1455 
 116   0.0000       2.337305        63.6013 
 117   0.0000       2.343753        63.7768 
 118   0.0000       2.353956        64.0544 
 119   0.0000       2.433162        66.2097 
 120   0.0000       2.470278        67.2197 
 121   0.0000       2.494615        67.8819 
 122   0.0000       2.550539        69.4037 
 123   0.0000       2.589734        70.4703 
 124   0.0000       2.621203        71.3266 
 125   0.0000       2.639093        71.8134 
 126   0.0000       2.696339        73.3711 
 127   0.0000       2.740418        74.5706 
 128   0.0000       2.858772        77.7911 
 129   0.0000       2.892706        78.7145 
 130   0.0000      13.529165       368.1473 
 131   0.0000      13.686788       372.4364 
 132   0.0000      13.866969       377.3394 
 133   0.0000      13.885235       377.8364 
 134   0.0000      13.988505       380.6466 
 135   0.0000      14.068151       382.8138 
 136   0.0000      14.131542       384.5388 

                    ********************************
                    * MULLIKEN POPULATION ANALYSIS *
                    ********************************

-----------------------
MULLIKEN ATOMIC CHARGES
-----------------------
   0 C :   -0.625168
   1 C :   -0.234892
   2 C :   -0.382134
   3 C :   -0.404983
   4 C :   -0.408196
   5 C :   -0.639229
   6 C :   -0.633232
   7 H :    0.204136
   8 H :    0.214920
   9 H :    0.214398
  10 H :    0.203858
  11 H :    0.195752
  12 H :    0.204702
  13 H :    0.205289
  14 H :    0.199193
  15 H :    0.205217
  16 H :    0.204565
  17 H :    0.208528
  18 H :    0.218548
  19 H :    0.208726
  20 H :    0.203040
  21 H :    0.220356
  22 H :    0.216605
Sum of atomic charges:   -0.0000000

--------------------------------
MULLIKEN REDUCED ORBITAL CHARGES
--------------------------------
  0 C s       :     3.373288  s :     3.373288
      pz      :     1.117125  p :     3.214657
      px      :     1.013786
      py      :     1.083746
      dz2     :     0.009208  d :     0.037223
      dxz     :     0.003701
      dyz     :     0.008158
      dx2y2   :     0.007406
      dxy     :     0.008750
  1 C s       :     3.275436  s :     3.275436
      pz      :     1.068736  p :     2.909263
      px      :     0.918533
      py      :     0.921993
      dz2     :     0.014200  d :     0.050193
      dxz     :     0.005026
      dyz     :     0.008853
      dx2y2   :     0.009584
      dxy     :     0.012529
  2 C s       :     3.314171  s :     3.314171
      pz      :     1.088069  p :     3.024111
      px      :     0.904243
      py      :     1.031799
      dz2     :     0.011442  d :     0.043852
      dxz     :     0.004606
      dyz     :     0.008482
      dx2y2   :     0.010750
      dxy     :     0.008573
  3 C s       :     3.315837  s :     3.315837
      pz      :     1.098778  p :     3.045161
      px      :     0.914610
      py      :     1.031773
      dz2     :     0.010462  d :     0.043985
      dxz     :     0.004293
      dyz     :     0.010149
      dx2y2   :     0.009895
      dxy     :     0.009185
  4 C s       :     3.317955  s :     3.317955
      pz      :     1.106684  p :     3.045952
      px      :     0.909955
      py      :     1.029313
      dz2     :     0.010332  d :     0.044289
      dxz     :     0.004298
      dyz     :     0.010378
      dx2y2   :     0.009941
      dxy     :     0.009340
  5 C s       :     3.375022  s :     3.375022
      pz      :     1.119467  p :     3.226941
      px      :     1.009435
      py      :     1.098040
      dz2     :     0.009337  d :     0.037266
      dxz     :     0.003174
      dyz     :     0.008563
      dx2y2   :     0.006482
      dxy     :     0.009710
  6 C s       :     3.373716  s :     3.373716
      pz      :     1.073916  p :     3.222419
      px      :     1.133271
      py      :     1.015232
      dz2     :     0.012876  d :     0.037097
      dxz     :     0.001897
      dyz     :     0.005484
      dx2y2   :     0.004109
      dxy     :     0.012732
  7 H s       :     0.795864  s :     0.795864
  8 H s       :     0.785080  s :     0.785080
  9 H s       :     0.785602  s :     0.785602
 10 H s       :     0.796142  s :     0.796142
 11 H s       :     0.804248  s :     0.804248
 12 H s       :     0.795298  s :     0.795298
 13 H s       :     0.794711  s :     0.794711
 14 H s       :     0.800807  s :     0.800807
 15 H s       :     0.794783  s :     0.794783
 16 H s       :     0.795435  s :     0.795435
 17 H s       :     0.791472  s :     0.791472
 18 H s       :     0.781452  s :     0.781452
 19 H s       :     0.791274  s :     0.791274
 20 H s       :     0.796960  s :     0.796960
 21 H s       :     0.779644  s :     0.779644
 22 H s       :     0.783395  s :     0.783395


                     *******************************
                     * LOEWDIN POPULATION ANALYSIS *
                     *******************************

----------------------
LOEWDIN ATOMIC CHARGES
----------------------
   0 C :   -0.352250
   1 C :   -0.163110
   2 C :   -0.232204
   3 C :   -0.240754
   4 C :   -0.244556
   5 C :   -0.362083
   6 C :   -0.354895
   7 H :    0.123092
   8 H :    0.124515
   9 H :    0.124341
  10 H :    0.117367
  11 H :    0.118362
  12 H :    0.120351
  13 H :    0.119275
  14 H :    0.118435
  15 H :    0.119622
  16 H :    0.118886
  17 H :    0.123177
  18 H :    0.125817
  19 H :    0.123282
  20 H :    0.122766
  21 H :    0.125038
  22 H :    0.125525

-------------------------------
LOEWDIN REDUCED ORBITAL CHARGES
-------------------------------
  0 C s       :     2.952382  s :     2.952382
      pz      :     1.130058  p :     3.330206
      px      :     1.087285
      py      :     1.112862
      dz2     :     0.016324  d :     0.069662
      dxz     :     0.007275
      dyz     :     0.013952
      dx2y2   :     0.014559
      dxy     :     0.017553
  1 C s       :     2.871432  s :     2.871432
      pz      :     1.081994  p :     3.182044
      px      :     1.045760
      py      :     1.054290
      dz2     :     0.027560  d :     0.109634
      dxz     :     0.010610
      dyz     :     0.019539
      dx2y2   :     0.022106
      dxy     :     0.029817
  2 C s       :     2.909023  s :     2.909023
      pz      :     1.103464  p :     3.233629
      px      :     1.043567
      py      :     1.086599
      dz2     :     0.021455  d :     0.089551
      dxz     :     0.010112
      dyz     :     0.015070
      dx2y2   :     0.022704
      dxy     :     0.020211
  3 C s       :     2.907334  s :     2.907334
      pz      :     1.105149  p :     3.243682
      px      :     1.045638
      py      :     1.092894
      dz2     :     0.019737  d :     0.089738
      dxz     :     0.009269
      dyz     :     0.018125
      dx2y2   :     0.020923
      dxy     :     0.021683
  4 C s       :     2.908085  s :     2.908085
      pz      :     1.107968  p :     3.246167
      px      :     1.047506
      py      :     1.090694
      dz2     :     0.019427  d :     0.090304
      dxz     :     0.009250
      dyz     :     0.018496
      dx2y2   :     0.020947
      dxy     :     0.022184
  5 C s       :     2.950915  s :     2.950915
      pz      :     1.131289  p :     3.341668
      px      :     1.086560
      py      :     1.123820
      dz2     :     0.016521  d :     0.069499
      dxz     :     0.006545
      dyz     :     0.014509
      dx2y2   :     0.013134
      dxy     :     0.018791
  6 C s       :     2.951447  s :     2.951447
      pz      :     1.116768  p :     3.333953
      px      :     1.127586
      py      :     1.089599
      dz2     :     0.022858  d :     0.069495
      dxz     :     0.003194
      dyz     :     0.011894
      dx2y2   :     0.008633
      dxy     :     0.022916
  7 H s       :     0.876908  s :     0.876908
  8 H s       :     0.875485  s :     0.875485
  9 H s       :     0.875659  s :     0.875659
 10 H s       :     0.882633  s :     0.882633
 11 H s       :     0.881638  s :     0.881638
 12 H s       :     0.879649  s :     0.879649
 13 H s       :     0.880725  s :     0.880725
 14 H s       :     0.881565  s :     0.881565
 15 H s       :     0.880378  s :     0.880378
 16 H s       :     0.881114  s :     0.881114
 17 H s       :     0.876823  s :     0.876823
 18 H s       :     0.874183  s :     0.874183
 19 H s       :     0.876718  s :     0.876718
 20 H s       :     0.877234  s :     0.877234
 21 H s       :     0.874962  s :     0.874962
 22 H s       :     0.874475  s :     0.874475


                      *****************************
                      * MAYER POPULATION ANALYSIS *
                      *****************************

  NA   - Mulliken gross atomic population
  ZA   - Total nuclear charge
  QA   - Mulliken gross atomic charge
  VA   - Mayer's total valence
  BVA  - Mayer's bonded valence
  FA   - Mayer's free valence

  ATOM       NA         ZA         QA         VA         BVA        FA
  0 C      6.6252     6.0000    -0.6252     3.7218     3.7218    -0.0000
  1 C      6.2349     6.0000    -0.2349     3.7855     3.7855    -0.0000
  2 C      6.3821     6.0000    -0.3821     3.7087     3.7087    -0.0000
  3 C      6.4050     6.0000    -0.4050     3.7401     3.7401    -0.0000
  4 C      6.4082     6.0000    -0.4082     3.7609     3.7609     0.0000
  5 C      6.6392     6.0000    -0.6392     3.7464     3.7464     0.0000
  6 C      6.6332     6.0000    -0.6332     3.7118     3.7118     0.0000
  7 H      0.7959     1.0000     0.2041     0.9181     0.9181    -0.0000
  8 H      0.7851     1.0000     0.2149     0.9163     0.9163    -0.0000
  9 H      0.7856     1.0000     0.2144     0.9167     0.9167    -0.0000
 10 H      0.7961     1.0000     0.2039     0.9031     0.9031    -0.0000
 11 H      0.8042     1.0000     0.1958     0.9157     0.9157    -0.0000
 12 H      0.7953     1.0000     0.2047     0.9131     0.9131    -0.0000
 13 H      0.7947     1.0000     0.2053     0.9109     0.9109     0.0000
 14 H      0.8008     1.0000     0.1992     0.9123     0.9123    -0.0000
 15 H      0.7948     1.0000     0.2052     0.9082     0.9082     0.0000
 16 H      0.7954     1.0000     0.2046     0.9090     0.9090     0.0000
 17 H      0.7915     1.0000     0.2085     0.9147     0.9147     0.0000
 18 H      0.7815     1.0000     0.2185     0.9136     0.9136     0.0000
 19 H      0.7913     1.0000     0.2087     0.9145     0.9145     0.0000
 20 H      0.7970     1.0000     0.2030     0.9191     0.9191     0.0000
 21 H      0.7796     1.0000     0.2204     0.9149     0.9149     0.0000
 22 H      0.7834     1.0000     0.2166     0.9152     0.9152    -0.0000

  Mayer bond orders larger than 0.100000
B(  0-C ,  1-C ) :   0.9960 B(  0-C ,  7-H ) :   0.9271 B(  0-C ,  8-H ) :   0.9311 
B(  0-C ,  9-H ) :   0.9313 B(  1-C ,  2-C ) :   0.9807 B(  1-C ,  6-C ) :   0.9858 
B(  1-C , 10-H ) :   0.9099 B(  2-C ,  3-C ) :   0.9932 B(  2-C , 11-H ) :   0.9158 
B(  2-C , 12-H ) :   0.9221 B(  3-C ,  4-C ) :   0.9910 B(  3-C , 13-H ) :   0.9153 
B(  3-C , 14-H ) :   0.9185 B(  4-C ,  5-C ) :   0.9990 B(  4-C , 15-H ) :   0.9204 
B(  4-C , 16-H ) :   0.9207 B(  5-C , 17-H ) :   0.9297 B(  5-C , 18-H ) :   0.9324 
B(  5-C , 19-H ) :   0.9296 B(  6-C , 20-H ) :   0.9275 B(  6-C , 21-H ) :   0.9275 
B(  6-C , 22-H ) :   0.9301 

-------
TIMINGS
-------

Total SCF time: 0 days 0 hours 1 min 21 sec 

Total time                  ....      81.385 sec
Sum of individual times     ....      76.475 sec  ( 94.0%)

Fock matrix formation       ....      63.238 sec  ( 77.7%)
  Split-RI-J                ....       6.118 sec  (  9.7% of F)
  Chain of spheres X        ....      31.959 sec  ( 50.5% of F)
  XC integration            ....      16.363 sec  ( 25.9% of F)
    Basis function eval.    ....       3.631 sec  ( 22.2% of XC)
    Density eval.           ....       1.921 sec  ( 11.7% of XC)
    XC-Functional eval.     ....       1.331 sec  (  8.1% of XC)
    XC-Potential eval.      ....       1.142 sec  (  7.0% of XC)
Diagonalization             ....       0.704 sec  (  0.9%)
Density matrix formation    ....       0.290 sec  (  0.4%)
Population analysis         ....       0.025 sec  (  0.0%)
Initial guess               ....       0.028 sec  (  0.0%)
Orbital Transformation      ....       0.000 sec  (  0.0%)
Orbital Orthonormalization  ....       0.000 sec  (  0.0%)
DIIS solution               ....       2.257 sec  (  2.8%)
SOSCF solution              ....       0.700 sec  (  0.9%)
Grid generation             ....       9.233 sec  ( 11.3%)

Maximum memory used throughout the entire SCF-calculation: 58.1 MB


-------------------------------------------------------------------------------
                          DFT DISPERSION CORRECTION                            
                                                                               
                              DFTD3 V3.1  Rev 1                                
                          USING Becke-Johnson damping                          
-------------------------------------------------------------------------------
The PBEh-3c composite method is recognized
Using three-body term ABC
Active option DFTDOPT                   ...         4   

molecular C6(AA) [au] = 3357.800907 


            DFT-D V3
 parameters
 s6 scaling factor         :     1.0000 
 a1 scaling factor         :     0.4860 
 s8 scaling factor         :     0.0000 
 a2 scaling factor         :     4.5000 
 Damping factor alpha9(ATM):    16.0000 
 ad hoc parameters k1-k3   :    16.0000     1.3333    -4.0000 

 Edisp/kcal,au: -6.810856878660  -0.010853790156 
 E6   /kcal   :  -6.839425235 
 E8   /kcal   :  -0.000000000 
 E6(ABC)      :   0.028568356 
 % E8         :   0.000000000 
 % E6(ABC)    :  -0.419453182 

-------------------------   ----------------
Dispersion correction           -0.010853790
-------------------------   ----------------

------------------   -----------------
gCP correction             0.032071258
------------------   -----------------

-------------------------   --------------------
FINAL SINGLE POINT ENERGY      -275.791047655725
-------------------------   --------------------


                            ***************************************
                            *     ORCA property calculations      *
                            ***************************************

                                    ---------------------
                                    Active property flags
                                    ---------------------
   (+) Dipole Moment


------------------------------------------------------------------------------
                       ORCA ELECTRIC PROPERTIES CALCULATION
------------------------------------------------------------------------------

Dipole Moment Calculation                       ... on
Quadrupole Moment Calculation                   ... off
Polarizability Calculation                      ... off
GBWName                                         ... pbeh-3c.gbw
Electron density                                ... pbeh-3c.scfp
The origin for moment calculation is the CENTER OF MASS  = (-0.028717,  0.037341  0.037048)

-------------
DIPOLE MOMENT
-------------
                                X             Y             Z
Electronic contribution:     -0.35203       0.47446       0.48508
Nuclear contribution   :      0.35795      -0.46545      -0.46180
                        -----------------------------------------
Total Dipole Moment    :      0.00591       0.00901       0.02329
                        -----------------------------------------
Magnitude (a.u.)       :      0.02566
Magnitude (Debye)      :      0.06522



--------------------
Rotational spectrum 
--------------------
 
Rotational constants in cm-1:     0.205881     0.033710     0.030650 
Rotational constants in MHz :  6172.143016  1010.599697   918.862272 

 Dipole components along the rotational axes: 
x,y,z [a.u.] :     0.006989     0.012192     0.021469 
x,y,z [Debye]:     0.017765     0.030989     0.054569 

 

Timings for individual modules:

Sum of individual times         ...       84.459 sec (=   1.408 min)
GTO integral calculation        ...        2.616 sec (=   0.044 min)   3.1 %
SCF iterations                  ...       81.843 sec (=   1.364 min)  96.9 %
                             ****ORCA TERMINATED NORMALLY****
TOTAL RUN TIME: 0 days 0 hours 1 minutes 26 seconds 386 msec
