
                                 *****************
                                 * O   R   C   A *
                                 *****************

                                            #,                                       
                                            ###                                      
                                            ####                                     
                                            #####                                    
                                            ######                                   
                                           ########,                                 
                                     ,,################,,,,,                         
                               ,,#################################,,                 
                          ,,##########################################,,             
                       ,#########################################, ''#####,          
                    ,#############################################,,   '####,        
                  ,##################################################,,,,####,       
                ,###########''''           ''''###############################       
              ,#####''   ,,,,##########,,,,          '''####'''          '####       
            ,##' ,,,,###########################,,,                        '##       
           ' ,,###''''                  '''############,,,                           
         ,,##''                                '''############,,,,        ,,,,,,###''
      ,#''                                            '''#######################'''  
     '                                                          ''''####''''         
             ,#######,   #######,   ,#######,      ##                                
            ,#'     '#,  ##    ##  ,#'     '#,    #''#        ######   ,####,        
            ##       ##  ##   ,#'  ##            #'  '#       #        #'  '#        
            ##       ##  #######   ##           ,######,      #####,   #    #        
            '#,     ,#'  ##    ##  '#,     ,#' ,#      #,         ##   #,  ,#        
             '#######'   ##     ##  '#######'  #'      '#     #####' # '####'        



                  #######################################################
                  #                        -***-                        #
                  #          Department of theory and spectroscopy      #
                  #    Directorship and core code : Frank Neese         #
                  #        Max Planck Institute fuer Kohlenforschung    #
                  #                Kaiser Wilhelm Platz 1               #
                  #                 D-45470 Muelheim/Ruhr               #
                  #                      Germany                        #
                  #                                                     #
                  #                  All rights reserved                #
                  #                        -***-                        #
                  #######################################################


                         Program Version 5.0.3 -  RELEASE  -


 With contributions from (in alphabetic order):
   Daniel Aravena         : Magnetic Suceptibility
   Michael Atanasov       : Ab Initio Ligand Field Theory (pilot matlab implementation)
   Alexander A. Auer      : GIAO ZORA, VPT2 properties, NMR spectrum
   Ute Becker             : Parallelization
   Giovanni Bistoni       : ED, misc. LED, open-shell LED, HFLD
   Martin Brehm           : Molecular dynamics
   Dmytro Bykov           : SCF Hessian
   Vijay G. Chilkuri      : MRCI spin determinant printing, contributions to CSF-ICE
   Dipayan Datta          : RHF DLPNO-CCSD density
   Achintya Kumar Dutta   : EOM-CC, STEOM-CC
   Dmitry Ganyushin       : Spin-Orbit,Spin-Spin,Magnetic field MRCI
   Miquel Garcia          : C-PCM and meta-GGA Hessian, CC/C-PCM, Gaussian charge scheme
   Yang Guo               : DLPNO-NEVPT2, F12-NEVPT2, CIM, IAO-localization
   Andreas Hansen         : Spin unrestricted coupled pair/coupled cluster methods
   Benjamin Helmich-Paris : MC-RPA, TRAH-SCF, COSX integrals
   Lee Huntington         : MR-EOM, pCC
   Robert Izsak           : Overlap fitted RIJCOSX, COSX-SCS-MP3, EOM
   Marcus Kettner         : VPT2
   Christian Kollmar      : KDIIS, OOCD, Brueckner-CCSD(T), CCSD density, CASPT2, CASPT2-K
   Simone Kossmann        : Meta GGA functionals, TD-DFT gradient, OOMP2, MP2 Hessian
   Martin Krupicka        : Initial AUTO-CI
   Lucas Lang             : DCDCAS
   Marvin Lechner         : AUTO-CI (C++ implementation), FIC-MRCC
   Dagmar Lenk            : GEPOL surface, SMD
   Dimitrios Liakos       : Extrapolation schemes; Compound Job, initial MDCI parallelization
   Dimitrios Manganas     : Further ROCIS development; embedding schemes
   Dimitrios Pantazis     : SARC Basis sets
   Anastasios Papadopoulos: AUTO-CI, single reference methods and gradients
   Taras Petrenko         : DFT Hessian,TD-DFT gradient, ASA, ECA, R-Raman, ABS, FL, XAS/XES, NRVS
   Peter Pinski           : DLPNO-MP2, DLPNO-MP2 Gradient
   Christoph Reimann      : Effective Core Potentials
   Marius Retegan         : Local ZFS, SOC
   Christoph Riplinger    : Optimizer, TS searches, QM/MM, DLPNO-CCSD(T), (RO)-DLPNO pert. Triples
   Tobias Risthaus        : Range-separated hybrids, TD-DFT gradient, RPA, STAB
   Michael Roemelt        : Original ROCIS implementation
   Masaaki Saitow         : Open-shell DLPNO-CCSD energy and density
   Barbara Sandhoefer     : DKH picture change effects
   Avijit Sen             : IP-ROCIS
   Kantharuban Sivalingam : CASSCF convergence, NEVPT2, FIC-MRCI
   Bernardo de Souza      : ESD, SOC TD-DFT
   Georgi Stoychev        : AutoAux, RI-MP2 NMR, DLPNO-MP2 response
   Willem Van den Heuvel  : Paramagnetic NMR
   Boris Wezisla          : Elementary symmetry handling
   Frank Wennmohs         : Technical directorship


 We gratefully acknowledge several colleagues who have allowed us to
 interface, adapt or use parts of their codes:
   Stefan Grimme, W. Hujo, H. Kruse, P. Pracht,  : VdW corrections, initial TS optimization,
                  C. Bannwarth, S. Ehlert          DFT functionals, gCP, sTDA/sTD-DF
   Ed Valeev, F. Pavosevic, A. Kumar             : LibInt (2-el integral package), F12 methods
   Garnet Chan, S. Sharma, J. Yang, R. Olivares  : DMRG
   Ulf Ekstrom                                   : XCFun DFT Library
   Mihaly Kallay                                 : mrcc  (arbitrary order and MRCC methods)
   Jiri Pittner, Ondrej Demel                    : Mk-CCSD
   Frank Weinhold                                : gennbo (NPA and NBO analysis)
   Christopher J. Cramer and Donald G. Truhlar   : smd solvation model
   Lars Goerigk                                  : TD-DFT with DH, B97 family of functionals
   V. Asgeirsson, H. Jonsson                     : NEB implementation
   FAccTs GmbH                                   : IRC, NEB, NEB-TS, DLPNO-Multilevel, CI-OPT
                                                   MM, QMMM, 2- and 3-layer-ONIOM, Crystal-QMMM,
                                                   LR-CPCM, SF, NACMEs, symmetry and pop. for TD-DFT,
                                                   nearIR, NL-DFT gradient (VV10), updates on ESD,
                                                   ML-optimized integration grids
   S Lehtola, MJT Oliveira, MAL Marques          : LibXC Library
   Liviu Ungur et al                             : ANISO software


 Your calculation uses the libint2 library for the computation of 2-el integrals
 For citations please refer to: http://libint.valeyev.net

 Your ORCA version has been built with support for libXC version: 5.1.0
 For citations please refer to: https://tddft.org/programs/libxc/

 This ORCA versions uses:
   CBLAS   interface :  Fast vector & matrix operations
   LAPACKE interface :  Fast linear algebra routines
   SCALAPACK package :  Parallel linear algebra routines
   Shared memory     :  Shared parallel matrices
   BLAS/LAPACK       :  OpenBLAS 0.3.15  USE64BITINT DYNAMIC_ARCH NO_AFFINITY Haswell SINGLE_THREADED
        Core in use  :  Haswell
   Copyright (c) 2011-2014, The OpenBLAS Project




***************************************
The coordinates will be read from file: 43.xyz
***************************************


Your calculation utilizes the geometrical counterpoise correction gCP
Please cite in your paper:
H.Kruse, S. Grimme J.Chem.Phys., 136, (2012), 154101 
   

Your calculation utilizes the atom-pairwise dispersion correction
with the Becke-Johnson damping scheme (D3BJ)
Cite in your paper:
S.Grimme, S.Ehrlich, L.Goerigk, J Comput Chem, (2011), 32, 1456–1465 
S.Grimme, J.Antony, S.Ehrlich and H.Krieg, J.Chem.Phys., 132, (2010), 154104 
   

Your calculation employs the composite approach PBEh-3c.
Please cite in your paper:
S. Grimme, J. G. Brandenburg, C. Bannwarth, A. Hansen J.Chem.Phys., 143, (2015), 054107 
   

================================================================================

----- Orbital basis set information -----
Your calculation utilizes the basis: def2-mSVP

----- AuxJ basis set information -----
Your calculation utilizes the auxiliary basis: def2/J
   F. Weigend, Phys. Chem. Chem. Phys. 8, 1057 (2006).

================================================================================
                                        WARNINGS
                       Please study these warnings very carefully!
================================================================================


INFO   : the flag for use of the SHARK integral package has been found!

================================================================================
                                       INPUT FILE
================================================================================
NAME = pbeh-3c.inp
|  1> ! PBEh-3c def2/J TightSCF DefGrid3
|  2> 
|  3> %maxcore 60000
|  4> 
|  5> %pal
|  6> nprocs 4
|  7> end
|  8> 
|  9> *xyzfile 0 1 43.xyz
| 10> 
| 11>                          ****END OF INPUT****
================================================================================

                       ****************************
                       * Single Point Calculation *
                       ****************************

---------------------------------
CARTESIAN COORDINATES (ANGSTROEM)
---------------------------------
  N      0.622035   -1.001218   -2.206685
  H      0.405144   -1.961806   -1.978199
  C     -0.436502   -0.237642   -2.717937
  O     -1.534817   -0.738709   -2.889008
  C     -0.070920    1.140969   -2.992963
  H     -0.813789    1.801505   -3.405440
  C      1.179496    1.567629   -2.722068
  H      1.497804    2.583565   -2.902768
  N      2.130084    0.736296   -2.193519
  H      3.051290    1.073595   -1.969173
  C      1.898737   -0.593484   -1.884289
  O      2.739760   -1.314229   -1.384014
  C     -0.627748   -0.180024    1.719288
  C     -1.944494    0.561265    1.934161
  H     -2.651565   -0.056941    2.489023
  H     -1.784995    1.481450    2.498346
  H     -2.402204    0.822762    0.979007
  C     -0.012311   -0.533462    3.070565
  H      0.930851   -1.065835    2.939783
  H      0.184710    0.366280    3.655367
  H     -0.683605   -1.171199    3.647302
  C      0.337376    0.713454    0.943499
  H      1.285947    0.200859    0.773145
  H      0.542666    1.631590    1.496925
  H     -0.085019    0.991941   -0.023965
  C     -0.889065   -1.460058    0.928923
  H     -1.352803   -1.238224   -0.033701
  H      0.043511   -1.998457    0.749286
  H     -1.559573   -2.121872    1.479108

----------------------------
CARTESIAN COORDINATES (A.U.)
----------------------------
  NO LB      ZA    FRAG     MASS         X           Y           Z
   0 N     7.0000    0    14.007    1.175477   -1.892029   -4.170031
   1 H     1.0000    0     1.008    0.765611   -3.707276   -3.738255
   2 C     6.0000    0    12.011   -0.824869   -0.449078   -5.136157
   3 O     8.0000    0    15.999   -2.900384   -1.395958   -5.459434
   4 C     6.0000    0    12.011   -0.134020    2.156120   -5.655881
   5 H     1.0000    0     1.008   -1.537839    3.404350   -6.435350
   6 C     6.0000    0    12.011    2.228925    2.962390   -5.143962
   7 H     1.0000    0     1.008    2.830440    4.882230   -5.485437
   8 N     7.0000    0    14.007    4.025275    1.391397   -4.145150
   9 H     1.0000    0     1.008    5.766102    2.028801   -3.721198
  10 C     6.0000    0    12.011    3.588093   -1.121523   -3.560790
  11 O     8.0000    0    15.999    5.177397   -2.483533   -2.615407
  12 C     6.0000    0    12.011   -1.186272   -0.340195    3.248983
  13 C     6.0000    0    12.011   -3.674561    1.060637    3.655034
  14 H     1.0000    0     1.008   -5.010732   -0.107603    4.703572
  15 H     1.0000    0     1.008   -3.373151    2.799534    4.721190
  16 H     1.0000    0     1.008   -4.539507    1.554795    1.850056
  17 C     6.0000    0    12.011   -0.023265   -1.008096    5.802528
  18 H     1.0000    0     1.008    1.759053   -2.014136    5.555386
  19 H     1.0000    0     1.008    0.349051    0.692169    6.907643
  20 H     1.0000    0     1.008   -1.291827   -2.213245    6.892402
  21 C     6.0000    0    12.011    0.637549    1.348233    1.782955
  22 H     1.0000    0     1.008    2.430087    0.379569    1.461032
  23 H     1.0000    0     1.008    1.025491    3.083259    2.828779
  24 H     1.0000    0     1.008   -0.160663    1.874496   -0.045288
  25 C     6.0000    0    12.011   -1.680090   -2.759110    1.755410
  26 H     1.0000    0     1.008   -2.556428   -2.339905   -0.063686
  27 H     1.0000    0     1.008    0.082224   -3.776536    1.415946
  28 H     1.0000    0     1.008   -2.947166   -4.009757    2.795109

--------------------------------
INTERNAL COORDINATES (ANGSTROEM)
--------------------------------
 N      0   0   0     0.000000000000     0.00000000     0.00000000
 H      1   0   0     1.010928542641     0.00000000     0.00000000
 C      1   2   0     1.401759416573   115.97761901     0.00000000
 O      3   1   2     1.219274480418   120.50062644   358.66141300
 C      3   1   2     1.452534813885   113.32847555   178.47075657
 H      5   3   1     1.076242643903   118.77357071   178.90395481
 C      5   3   1     1.348690028490   119.70709220   358.53028839
 H      7   5   3     1.079860094842   122.50020249   180.38641316
 N      7   5   3     1.368976025289   121.95290860     0.17641321
 H      9   7   5     1.006341340706   121.20937190   181.91526344
 C      1   2   3     1.378460795456   115.27149241   175.63758779
 O     11   1   2     1.215347118092   124.17879680     1.36416682
 C      1   2   3     4.201140898535    84.87659697    88.11787215
 C     13   1   2     1.526269743007   118.89114475   250.73401940
 H     14  13   1     1.090871632566   110.82756257   118.11161529
 H     14  13   1     1.091093176024   110.87250715   238.08915481
 H     14  13   1     1.090961659096   110.80023791   358.21646308
 C     13   1   2     1.526312933027   131.46166589    68.42296415
 H     18  13   1     1.090907870902   110.82274783     2.08483609
 H     18  13   1     1.091029659256   110.87871768   122.13141895
 H     18  13   1     1.090857156887   110.81264424   242.11662648
 C     13   1   2     1.526962898811    56.74027714   155.43238499
 H     22  13   1     1.091585912906   110.71761540   292.72377486
 H     22  13   1     1.091512338342   110.69951453   172.85580965
 H     22  13   1     1.091769179410   110.78934770    53.18137407
 C     13   1   2     1.526908953739    53.36795859   344.33293524
 H     26  13   1     1.091288032670   111.03334166   306.35632228
 H     26  13   1     1.091714746770   110.63479144    66.95223329
 H     26  13   1     1.091000414594   110.65125356   186.59345915

---------------------------
INTERNAL COORDINATES (A.U.)
---------------------------
 N      0   0   0     0.000000000000     0.00000000     0.00000000
 H      1   0   0     1.910378086556     0.00000000     0.00000000
 C      1   2   0     2.648941402968   115.97761901     0.00000000
 O      3   1   2     2.304094850069   120.50062644   358.66141300
 C      3   1   2     2.744892998230   113.32847555   178.47075657
 H      5   3   1     2.033803850624   118.77357071   178.90395481
 C      5   3   1     2.548654793397   119.70709220   358.53028839
 H      7   5   3     2.040639842202   122.50020249   180.38641316
 N      7   5   3     2.586989771699   121.95290860     0.17641321
 H      9   7   5     1.901709531177   121.20937190   181.91526344
 C      1   2   3     2.604913389759   115.27149241   175.63758779
 O     11   1   2     2.296673210844   124.17879680     1.36416682
 C      1   2   3     7.939005748247    84.87659697    88.11787215
 C     13   1   2     2.884231820773   118.89114475   250.73401940
 H     14  13   1     2.061448632813   110.82756257   118.11161529
 H     14  13   1     2.061867289275   110.87250715   238.08915481
 H     14  13   1     2.061618758300   110.80023791   358.21646308
 C     13   1   2     2.884313438084   131.46166589    68.42296415
 H     18  13   1     2.061517113345   110.82274783     2.08483609
 H     18  13   1     2.061747259979   110.87871768   122.13141895
 H     18  13   1     2.061421277745   110.81264424   242.11662648
 C     13   1   2     2.885541695410    56.74027714   155.43238499
 H     22  13   1     2.062798427038   110.71761540   292.72377486
 H     22  13   1     2.062659391262   110.69951453   172.85580965
 H     22  13   1     2.063144750540   110.78934770    53.18137407
 C     13   1   2     2.885439753999    53.36795859   344.33293524
 H     26  13   1     2.062235514972   111.03334166   306.35632228
 H     26  13   1     2.063041887758   110.63479144    66.95223329
 H     26  13   1     2.061691995578   110.65125356   186.59345915

---------------------
BASIS SET INFORMATION
---------------------
There are 4 groups of distinct atoms

 Group   1 Type N   : 8s4p1d contracted to 4s2p1d pattern {5111/31/1}
 Group   2 Type H   : 4s contracted to 2s pattern {31}
 Group   3 Type C   : 8s4p1d contracted to 4s2p1d pattern {5111/31/1}
 Group   4 Type O   : 8s4p1d contracted to 4s2p1d pattern {5111/31/1}

Atom   0N    basis set group =>   1
Atom   1H    basis set group =>   2
Atom   2C    basis set group =>   3
Atom   3O    basis set group =>   4
Atom   4C    basis set group =>   3
Atom   5H    basis set group =>   2
Atom   6C    basis set group =>   3
Atom   7H    basis set group =>   2
Atom   8N    basis set group =>   1
Atom   9H    basis set group =>   2
Atom  10C    basis set group =>   3
Atom  11O    basis set group =>   4
Atom  12C    basis set group =>   3
Atom  13C    basis set group =>   3
Atom  14H    basis set group =>   2
Atom  15H    basis set group =>   2
Atom  16H    basis set group =>   2
Atom  17C    basis set group =>   3
Atom  18H    basis set group =>   2
Atom  19H    basis set group =>   2
Atom  20H    basis set group =>   2
Atom  21C    basis set group =>   3
Atom  22H    basis set group =>   2
Atom  23H    basis set group =>   2
Atom  24H    basis set group =>   2
Atom  25C    basis set group =>   3
Atom  26H    basis set group =>   2
Atom  27H    basis set group =>   2
Atom  28H    basis set group =>   2
---------------------------------
AUXILIARY/J BASIS SET INFORMATION
---------------------------------
There are 4 groups of distinct atoms

 Group   1 Type N   : 12s5p4d2f1g contracted to 6s4p3d1f1g pattern {711111/2111/211/2/1}
 Group   2 Type H   : 5s2p1d contracted to 3s1p1d pattern {311/2/1}
 Group   3 Type C   : 12s5p4d2f1g contracted to 6s4p3d1f1g pattern {711111/2111/211/2/1}
 Group   4 Type O   : 12s5p4d2f1g contracted to 6s4p3d1f1g pattern {711111/2111/211/2/1}

Atom   0N    basis set group =>   1
Atom   1H    basis set group =>   2
Atom   2C    basis set group =>   3
Atom   3O    basis set group =>   4
Atom   4C    basis set group =>   3
Atom   5H    basis set group =>   2
Atom   6C    basis set group =>   3
Atom   7H    basis set group =>   2
Atom   8N    basis set group =>   1
Atom   9H    basis set group =>   2
Atom  10C    basis set group =>   3
Atom  11O    basis set group =>   4
Atom  12C    basis set group =>   3
Atom  13C    basis set group =>   3
Atom  14H    basis set group =>   2
Atom  15H    basis set group =>   2
Atom  16H    basis set group =>   2
Atom  17C    basis set group =>   3
Atom  18H    basis set group =>   2
Atom  19H    basis set group =>   2
Atom  20H    basis set group =>   2
Atom  21C    basis set group =>   3
Atom  22H    basis set group =>   2
Atom  23H    basis set group =>   2
Atom  24H    basis set group =>   2
Atom  25C    basis set group =>   3
Atom  26H    basis set group =>   2
Atom  27H    basis set group =>   2
Atom  28H    basis set group =>   2


           ************************************************************
           *        Program running with 4 parallel MPI-processes     *
           *              working on a common directory               *
           ************************************************************
------------------------------------------------------------------------------
                           ORCA GTO INTEGRAL CALCULATION
                           -- RI-GTO INTEGRALS CHOSEN --
------------------------------------------------------------------------------
------------------------------------------------------------------------------
                   ___                                                        
                  /   \      - P O W E R E D   B Y -                         
                 /     \                                                     
                 |  |  |   _    _      __       _____    __    __             
                 |  |  |  | |  | |    /  \     |  _  \  |  |  /  |          
                  \  \/   | |  | |   /    \    | | | |  |  | /  /          
                 / \  \   | |__| |  /  /\  \   | |_| |  |  |/  /          
                |  |  |   |  __  | /  /__\  \  |    /   |      \           
                |  |  |   | |  | | |   __   |  |    \   |  |\   \          
                \     /   | |  | | |  |  |  |  | |\  \  |  | \   \       
                 \___/    |_|  |_| |__|  |__|  |_| \__\ |__|  \__/        
                                                                              
                      - O R C A' S   B I G   F R I E N D -                    
                                      &                                       
                       - I N T E G R A L  F E E D E R -                       
                                                                              
 v1 FN, 2020, v2 2021                                                         
------------------------------------------------------------------------------


Reading SHARK input file pbeh-3c.SHARKINP.tmp ... ok
----------------------
SHARK INTEGRAL PACKAGE
----------------------

Number of atoms                             ...     29
Number of basis functions                   ...    227
Number of shells                            ...    123
Maximum angular momentum                    ...      2
Integral batch strategy                     ... SHARK/LIBINT Hybrid
RI-J (if used) integral strategy            ... SPLIT-RIJ (Revised 2003 algorithm where possible)
Printlevel                                  ...      1
Contraction scheme used                     ... SEGMENTED contraction
Coulomb Range Separation                    ... NOT USED
Exchange Range Separation                   ... NOT USED
Finite Nucleus Model                        ... NOT USED
Auxiliary Coulomb fitting basis             ... AVAILABLE
   # of basis functions in Aux-J            ...    813
   # of shells in Aux-J                     ...    275
   Maximum angular momentum in Aux-J        ...      4
Auxiliary J/K fitting basis                 ... NOT available
Auxiliary Correlation fitting basis         ... NOT available
Auxiliary 'external' fitting basis          ... NOT available
Integral threshold                          ...     2.500000e-11
Primitive cut-off                           ...     2.500000e-12
Primitive pair pre-selection threshold      ...     2.500000e-12

Calculating pre-screening integrals         ... done (  0.1 sec) Dimension = 123
Organizing shell pair data                  ... done (  0.4 sec)
Shell pair information
Total number of shell pairs                 ...      7626
Shell pairs after pre-screening             ...      6122
Total number of primitive shell pairs       ...     27478
Primitive shell pairs kept                  ...     14583
          la=0 lb=0:   2695 shell pairs
          la=1 lb=0:   1917 shell pairs
          la=1 lb=1:    337 shell pairs
          la=2 lb=0:    800 shell pairs
          la=2 lb=1:    303 shell pairs
          la=2 lb=2:     70 shell pairs

Calculating one electron integrals          ... done (  0.0 sec)
Calculating RI/J V-Matrix + Cholesky decomp.... done (  0.4 sec)
Calculating Nuclear repulsion               ... done (  0.0 sec) ENN=    830.366947140483 Eh

SHARK setup successfully completed in   1.6 seconds

Maximum memory used throughout the entire GTOINT-calculation: 14.5 MB


           ************************************************************
           *        Program running with 4 parallel MPI-processes     *
           *              working on a common directory               *
           ************************************************************
-------------------------------------------------------------------------------
                                 ORCA SCF
-------------------------------------------------------------------------------

------------
SCF SETTINGS
------------
Hamiltonian:
 Density Functional     Method          .... DFT(GTOs)
 Exchange Functional    Exchange        .... PBE
   PBE kappa parameter   XKappa         ....  1.024500
   PBE mue parameter    XMuePBE         ....  0.123457
 Correlation Functional Correlation     .... PBE
   PBE beta parameter  CBetaPBE         ....  0.030000
 LDA part of GGA corr.  LDAOpt          .... PW91-LDA
 Gradients option       PostSCFGGA      .... off
 Hybrid DFT is turned on
   Fraction HF Exchange ScalHFX         ....  0.420000
   Scaling of DF-GGA-X  ScalDFX         ....  0.580000
   Scaling of DF-GGA-C  ScalDFC         ....  1.000000
   Scaling of DF-LDA-C  ScalLDAC        ....  1.000000
   Perturbative correction              ....  0.000000
   Density functional embedding theory  .... OFF
 RI-approximation to the Coulomb term is turned on
   Number of AuxJ basis functions       .... 813
   RIJ-ON(X) (HFX calculated with O(N)) .... on
   Number of AuxJ basis functions       .... 813
   RIJ-COSX (HFX calculated with COS-X)).... on


General Settings:
 Integral files         IntName         .... pbeh-3c
 Hartree-Fock type      HFTyp           .... RHF
 Total Charge           Charge          ....    0
 Multiplicity           Mult            ....    1
 Number of Electrons    NEL             ....  100
 Basis Dimension        Dim             ....  227
 Nuclear Repulsion      ENuc            ....    830.3669471405 Eh

Convergence Acceleration:
 DIIS                   CNVDIIS         .... on
   Start iteration      DIISMaxIt       ....    12
   Startup error        DIISStart       ....  0.200000
   # of expansion vecs  DIISMaxEq       ....     5
   Bias factor          DIISBfac        ....   1.050
   Max. coefficient     DIISMaxC        ....  10.000
 Trust-Rad. Augm. Hess. CNVTRAH         .... auto
   Auto Start mean grad. ratio tolernc. ....  1.125000
   Auto Start start iteration           ....    20
   Auto Start num. interpolation iter.  ....    10
   Max. Number of Micro iterations      ....    16
   Max. Number of Macro iterations      .... Maxiter - #DIIS iter
   Number of Davidson start vectors     ....     2
   Converg. threshold I  (grad. norm)   ....   1.000e-05
   Converg. threshold II (energy diff.) ....   1.000e-08
   Grad. Scal. Fac. for Micro threshold ....   0.100
   Minimum threshold for Micro iter.    ....   0.010
   NR start threshold (gradient norm)   ....   0.001
   Initial trust radius                 ....   0.400
   Minimum AH scaling param. (alpha)    ....   1.000
   Maximum AH scaling param. (alpha)    .... 1000.000
   Orbital update algorithm             .... Taylor
   White noise on init. David. guess    .... on
   Maximum white noise                  ....   0.010
   Quad. conv. algorithm                .... NR
   COSX micro iterations for RIJONX calc.... off
 SOSCF                  CNVSOSCF        .... on
   Start iteration      SOSCFMaxIt      ....   150
   Startup grad/error   SOSCFStart      ....  0.003300
 Level Shifting         CNVShift        .... on
   Level shift para.    LevelShift      ....    0.2500
   Turn off err/grad.   ShiftErr        ....    0.0010
 Zerner damping         CNVZerner       .... off
 Static damping         CNVDamp         .... on
   Fraction old density DampFac         ....    0.7000
   Max. Damping (<1)    DampMax         ....    0.9800
   Min. Damping (>=0)   DampMin         ....    0.0000
   Turn off err/grad.   DampErr         ....    0.1000
 Fernandez-Rico         CNVRico         .... off

SCF Procedure:
 Maximum # iterations   MaxIter         ....   125
 SCF integral mode      SCFMode         .... Direct
   Integral package                     .... SHARK and LIBINT hybrid scheme
 Reset frequency        DirectResetFreq ....    20
 Integral Threshold     Thresh          ....  2.500e-11 Eh
 Primitive CutOff       TCut            ....  2.500e-12 Eh

Convergence Tolerance:
 Convergence Check Mode ConvCheckMode   .... Total+1el-Energy
 Convergence forced     ConvForced      .... 0
 Energy Change          TolE            ....  1.000e-08 Eh
 1-El. energy change                    ....  1.000e-05 Eh
 Orbital Gradient       TolG            ....  1.000e-05
 Orbital Rotation angle TolX            ....  1.000e-05
 DIIS Error             TolErr          ....  5.000e-07


Diagonalization of the overlap matrix:
Smallest eigenvalue                        ... 1.907e-03
Time for diagonalization                   ...    0.009 sec
Threshold for overlap eigenvalues          ... 1.000e-08
Number of eigenvalues below threshold      ... 0
Time for construction of square roots      ...    0.149 sec
Total time needed                          ...    0.159 sec

--------------------------------
INITIAL GUESS: MINIMAL BASIS EHT
--------------------------------
The minimal basis has 81 functions
EHT matrix was diagonalized
Basis set overlap was calculated now projecting the orbitals
Using GuessMode=FMatrix for the initial guess
C*T matrix was formed
Effective Fockian was calculated
Effective Fockian was diagonalized
Initial density was built
                      ------------------
                      INITIAL GUESS DONE
                      ------------------
-------------------
DFT GRID GENERATION
-------------------

General Integration Accuracy     IntAcc      ... 4.959
Radial Grid Type                 RadialGrid  ... OptM3 with GC (2021)
Angular Grid (max. ang.)         AngularGrid ... 6 (Lebedev-590)
Angular grid pruning method      GridPruning ... 4 (adaptive)
Weight generation scheme         WeightScheme... Becke
Basis function cutoff            BFCut       ... 1.0000e-11
Integration weight cutoff        WCut        ... 1.0000e-14
Angular grids for H and He will be reduced by one unit
Partially contracted basis set               ... off
Rotationally invariant grid construction     ... off

Total number of grid points                  ...   321578
Total number of batches                      ...     5040
Average number of points per batch           ...       63
Average number of grid points per atom       ...    11089
Time for grid setup =    6.014 sec

--------------------
COSX GRID GENERATION
--------------------

GRIDX 1
-------
General Integration Accuracy     IntAcc      ... 4.020
Radial Grid Type                 RadialGrid  ... OptM3 with GC (2021)
Angular Grid (max. ang.)         AngularGrid ... 2 (Lebedev-110)
Angular grid pruning method      GridPruning ... 4 (adaptive)
Weight generation scheme         WeightScheme... Becke
Basis function cutoff            BFCut       ... 1.0000e-11
Integration weight cutoff        WCut        ... 1.0000e-14
Angular grids for H and He will be reduced by one unit
Partially contracted basis set               ... on
Rotationally invariant grid construction     ... off

Total number of grid points                  ...    34841
Total number of batches                      ...      559
Average number of points per batch           ...       62
Average number of grid points per atom       ...     1201
UseSFitting                                  ... on

GRIDX 2
-------
General Integration Accuracy     IntAcc      ... 4.338
Radial Grid Type                 RadialGrid  ... OptM3 with GC (2021)
Angular Grid (max. ang.)         AngularGrid ... 3 (Lebedev-194)
Angular grid pruning method      GridPruning ... 4 (adaptive)
Weight generation scheme         WeightScheme... Becke
Basis function cutoff            BFCut       ... 1.0000e-11
Integration weight cutoff        WCut        ... 1.0000e-14
Angular grids for H and He will be reduced by one unit
Partially contracted basis set               ... on
Rotationally invariant grid construction     ... off

Total number of grid points                  ...    76035
Total number of batches                      ...     1201
Average number of points per batch           ...       63
Average number of grid points per atom       ...     2622
UseSFitting                                  ... on

GRIDX 3
-------
General Integration Accuracy     IntAcc      ... 4.871
Radial Grid Type                 RadialGrid  ... OptM3 with GC (2021)
Angular Grid (max. ang.)         AngularGrid ... 4 (Lebedev-302)
Angular grid pruning method      GridPruning ... 4 (adaptive)
Weight generation scheme         WeightScheme... Becke
Basis function cutoff            BFCut       ... 1.0000e-11
Integration weight cutoff        WCut        ... 1.0000e-14
Angular grids for H and He will be reduced by one unit
Partially contracted basis set               ... on
Rotationally invariant grid construction     ... off

Total number of grid points                  ...   146067
Total number of batches                      ...     2296
Average number of points per batch           ...       63
Average number of grid points per atom       ...     5037
UseSFitting                                  ... on

Time for X-Grid setup             =    5.654 sec

--------------
SCF ITERATIONS
--------------
ITER       Energy         Delta-E        Max-DP      RMS-DP      [F,P]     Damp
               ***  Starting incremental Fock matrix formation  ***
  0   -609.3200283851   0.000000000000 0.25237602  0.00555493  0.5718087 0.7000
  1   -610.0644072206  -0.744378835422 0.15070450  0.00290680  0.2955630 0.7000
  2   -610.4213549396  -0.356947719023 0.07350406  0.00169420  0.2060045 0.7000
                               ***Turning on DIIS***
  3   -610.6806074442  -0.259252504646 0.07001214  0.00123607  0.1446038 0.7000
  4   -610.8683200172  -0.187712572954 0.04828518  0.00090148  0.1018333 0.7000
  5   -611.0003914644  -0.132071447172 0.10660946  0.00217939  0.0711839 0.0000
  6   -611.3133201900  -0.312928725671 0.00691014  0.00012422  0.0050221 0.0000
                      *** Initiating the SOSCF procedure ***
                           *** Shutting down DIIS ***
                      *** Re-Reading the Fockian *** 
                      *** Removing any level shift *** 
ITER      Energy       Delta-E        Grad      Rot      Max-DP    RMS-DP
  7   -611.31351471  -0.0001945154  0.001057  0.001057  0.002369  0.000059
               *** Restarting incremental Fock matrix formation ***
  8   -611.31355041  -0.0000357009  0.000994  0.003126  0.001929  0.000047
  9   -611.31356551  -0.0000151081  0.000376  0.001381  0.002693  0.000050
 10   -611.31356568  -0.0000001640  0.000356  0.000654  0.001221  0.000024
 11   -611.31356925  -0.0000035736  0.000018  0.000045  0.000112  0.000002
 12   -611.31356926  -0.0000000039  0.000016  0.000029  0.000053  0.000001
                  ***Gradient check signals convergence***
              ***Rediagonalizing the Fockian in SOSCF/NRSCF***

               *****************************************************
               *                     SUCCESS                       *
               *           SCF CONVERGED AFTER  13 CYCLES          *
               *****************************************************

Old exchange energy                            =    -34.470615971 Eh
New exchange energy                            =    -34.470614155 Eh
Exchange energy change after final integration =      0.000001817 Eh
Total energy after final integration           =   -611.313567457 Eh
Final COS-X integration done in                =    14.953 sec

----------------
TOTAL SCF ENERGY
----------------

Total Energy       :         -611.31356746 Eh          -16634.68786 eV

Components:
Nuclear Repulsion  :          830.36694714 Eh           22595.43336 eV
Electronic Energy  :        -1441.68051460 Eh          -39230.12122 eV
One Electron Energy:        -2478.16071059 Eh          -67434.18122 eV
Two Electron Energy:         1036.48019599 Eh           28204.06000 eV
Max COSX asymmetry :            0.00000154 Eh               0.00004 eV

Virial components:
Potential Energy   :        -1217.95870858 Eh          -33142.34138 eV
Kinetic Energy     :          606.64514112 Eh           16507.65352 eV
Virial Ratio       :            2.00769548


DFT components:
N(Alpha)           :       49.999966637901 electrons
N(Beta)            :       49.999966637901 electrons
N(Total)           :       99.999933275803 electrons
E(X)               :      -45.811807910064 Eh       
E(C)               :       -4.370264279204 Eh       
E(XC)              :      -50.182072189269 Eh       
DFET-embed. en.    :        0.000000000000 Eh       

---------------
SCF CONVERGENCE
---------------

  Last Energy change         ...   -1.7575e-08  Tolerance :   1.0000e-08
  Last MAX-Density change    ...    1.7764e-15  Tolerance :   1.0000e-07
  Last RMS-Density change    ...    4.0014e-17  Tolerance :   5.0000e-09
  Last Orbital Gradient      ...    2.2912e-06  Tolerance :   1.0000e-05
  Last Orbital Rotation      ...    8.1876e-06  Tolerance :   1.0000e-05

             **** THE GBW FILE WAS UPDATED (pbeh-3c.gbw) ****
             **** DENSITY pbeh-3c.scfp WAS UPDATED ****
             **** ENERGY FILE WAS UPDATED (pbeh-3c.en.tmp) ****
             **** THE GBW FILE WAS UPDATED (pbeh-3c.gbw) ****
             **** DENSITY pbeh-3c.scfp WAS UPDATED ****
----------------
ORBITAL ENERGIES
----------------

  NO   OCC          E(Eh)            E(eV) 
   0   2.0000     -19.484631      -530.2038 
   1   2.0000     -19.478477      -530.0363 
   2   2.0000     -14.718545      -400.5120 
   3   2.0000     -14.697815      -399.9479 
   4   2.0000     -10.610459      -288.7253 
   5   2.0000     -10.575228      -287.7666 
   6   2.0000     -10.539438      -286.7927 
   7   2.0000     -10.468219      -284.8547 
   8   2.0000     -10.444889      -284.2199 
   9   2.0000     -10.419138      -283.5192 
  10   2.0000     -10.415451      -283.4188 
  11   2.0000     -10.415125      -283.4099 
  12   2.0000     -10.414303      -283.3876 
  13   2.0000      -1.198023       -32.5999 
  14   2.0000      -1.159741       -31.5581 
  15   2.0000      -1.094550       -29.7842 
  16   2.0000      -1.035555       -28.1789 
  17   2.0000      -0.912813       -24.8389 
  18   2.0000      -0.900592       -24.5064 
  19   2.0000      -0.780860       -21.2483 
  20   2.0000      -0.763005       -20.7624 
  21   2.0000      -0.760345       -20.6900 
  22   2.0000      -0.759691       -20.6722 
  23   2.0000      -0.751327       -20.4447 
  24   2.0000      -0.678768       -18.4702 
  25   2.0000      -0.637516       -17.3477 
  26   2.0000      -0.596834       -16.2407 
  27   2.0000      -0.593874       -16.1601 
  28   2.0000      -0.553938       -15.0734 
  29   2.0000      -0.545518       -14.8443 
  30   2.0000      -0.523467       -14.2443 
  31   2.0000      -0.505153       -13.7459 
  32   2.0000      -0.504075       -13.7166 
  33   2.0000      -0.503519       -13.7015 
  34   2.0000      -0.492170       -13.3926 
  35   2.0000      -0.486952       -13.2506 
  36   2.0000      -0.469827       -12.7846 
  37   2.0000      -0.452136       -12.3033 
  38   2.0000      -0.450370       -12.2552 
  39   2.0000      -0.431730       -11.7480 
  40   2.0000      -0.410396       -11.1674 
  41   2.0000      -0.409819       -11.1517 
  42   2.0000      -0.408747       -11.1226 
  43   2.0000      -0.364574        -9.9206 
  44   2.0000      -0.363875        -9.9015 
  45   2.0000      -0.363203        -9.8833 
  46   2.0000      -0.361357        -9.8330 
  47   2.0000      -0.341980        -9.3058 
  48   2.0000      -0.330050        -8.9811 
  49   2.0000      -0.301205        -8.1962 
  50   0.0000      -0.024029        -0.6539 
  51   0.0000       0.037928         1.0321 
  52   0.0000       0.095312         2.5936 
  53   0.0000       0.115818         3.1516 
  54   0.0000       0.144636         3.9357 
  55   0.0000       0.158316         4.3080 
  56   0.0000       0.160701         4.3729 
  57   0.0000       0.178535         4.8582 
  58   0.0000       0.187237         5.0950 
  59   0.0000       0.187657         5.1064 
  60   0.0000       0.204253         5.5580 
  61   0.0000       0.213210         5.8017 
  62   0.0000       0.215074         5.8525 
  63   0.0000       0.219646         5.9769 
  64   0.0000       0.223990         6.0951 
  65   0.0000       0.227483         6.1901 
  66   0.0000       0.232002         6.3131 
  67   0.0000       0.240071         6.5327 
  68   0.0000       0.247651         6.7389 
  69   0.0000       0.254602         6.9281 
  70   0.0000       0.259532         7.0622 
  71   0.0000       0.269062         7.3215 
  72   0.0000       0.273054         7.4302 
  73   0.0000       0.280624         7.6362 
  74   0.0000       0.286677         7.8009 
  75   0.0000       0.299682         8.1548 
  76   0.0000       0.310528         8.4499 
  77   0.0000       0.369413        10.0522 
  78   0.0000       0.390454        10.6248 
  79   0.0000       0.413198        11.2437 
  80   0.0000       0.449924        12.2430 
  81   0.0000       0.466303        12.6888 
  82   0.0000       0.495918        13.4946 
  83   0.0000       0.512576        13.9479 
  84   0.0000       0.529586        14.4108 
  85   0.0000       0.532783        14.4978 
  86   0.0000       0.534449        14.5431 
  87   0.0000       0.545183        14.8352 
  88   0.0000       0.550562        14.9816 
  89   0.0000       0.559494        15.2246 
  90   0.0000       0.574335        15.6285 
  91   0.0000       0.584164        15.8959 
  92   0.0000       0.589571        16.0430 
  93   0.0000       0.611636        16.6435 
  94   0.0000       0.618630        16.8338 
  95   0.0000       0.651081        17.7168 
  96   0.0000       0.659323        17.9411 
  97   0.0000       0.671215        18.2647 
  98   0.0000       0.682801        18.5800 
  99   0.0000       0.707944        19.2641 
 100   0.0000       0.713975        19.4282 
 101   0.0000       0.761918        20.7328 
 102   0.0000       0.763452        20.7746 
 103   0.0000       0.766193        20.8492 
 104   0.0000       0.780561        21.2401 
 105   0.0000       0.794419        21.6172 
 106   0.0000       0.800214        21.7749 
 107   0.0000       0.802675        21.8419 
 108   0.0000       0.854877        23.2624 
 109   0.0000       0.876283        23.8449 
 110   0.0000       0.897545        24.4234 
 111   0.0000       0.917249        24.9596 
 112   0.0000       0.928167        25.2567 
 113   0.0000       0.933934        25.4136 
 114   0.0000       0.964071        26.2337 
 115   0.0000       0.972783        26.4708 
 116   0.0000       0.986877        26.8543 
 117   0.0000       1.012080        27.5401 
 118   0.0000       1.029926        28.0257 
 119   0.0000       1.036824        28.2134 
 120   0.0000       1.038614        28.2621 
 121   0.0000       1.040459        28.3123 
 122   0.0000       1.045030        28.4367 
 123   0.0000       1.053289        28.6614 
 124   0.0000       1.060097        28.8467 
 125   0.0000       1.068630        29.0789 
 126   0.0000       1.078342        29.3432 
 127   0.0000       1.097433        29.8627 
 128   0.0000       1.106423        30.1073 
 129   0.0000       1.110773        30.2257 
 130   0.0000       1.117500        30.4087 
 131   0.0000       1.140511        31.0349 
 132   0.0000       1.179201        32.0877 
 133   0.0000       1.187270        32.3073 
 134   0.0000       1.191042        32.4099 
 135   0.0000       1.199513        32.6404 
 136   0.0000       1.221359        33.2349 
 137   0.0000       1.242142        33.8004 
 138   0.0000       1.262807        34.3627 
 139   0.0000       1.332173        36.2503 
 140   0.0000       1.385652        37.7055 
 141   0.0000       1.415775        38.5252 
 142   0.0000       1.434758        39.0418 
 143   0.0000       1.462419        39.7944 
 144   0.0000       1.463256        39.8172 
 145   0.0000       1.466194        39.8972 
 146   0.0000       1.472806        40.0771 
 147   0.0000       1.483712        40.3739 
 148   0.0000       1.484166        40.3862 
 149   0.0000       1.491351        40.5817 
 150   0.0000       1.509436        41.0739 
 151   0.0000       1.533507        41.7289 
 152   0.0000       1.544204        42.0199 
 153   0.0000       1.647953        44.8431 
 154   0.0000       1.672266        45.5047 
 155   0.0000       1.735454        47.2241 
 156   0.0000       1.805135        49.1202 
 157   0.0000       1.810802        49.2744 
 158   0.0000       1.812615        49.3237 
 159   0.0000       1.813880        49.3582 
 160   0.0000       1.846825        50.2547 
 161   0.0000       1.861138        50.6441 
 162   0.0000       1.862136        50.6713 
 163   0.0000       1.881210        51.1903 
 164   0.0000       1.919585        52.2346 
 165   0.0000       1.921399        52.2839 
 166   0.0000       1.942645        52.8621 
 167   0.0000       1.949426        53.0466 
 168   0.0000       1.998590        54.3844 
 169   0.0000       2.012704        54.7685 
 170   0.0000       2.019747        54.9601 
 171   0.0000       2.048596        55.7451 
 172   0.0000       2.088432        56.8291 
 173   0.0000       2.111667        57.4614 
 174   0.0000       2.143793        58.3356 
 175   0.0000       2.150008        58.5047 
 176   0.0000       2.155182        58.6455 
 177   0.0000       2.161827        58.8263 
 178   0.0000       2.194283        59.7095 
 179   0.0000       2.207735        60.0755 
 180   0.0000       2.229904        60.6788 
 181   0.0000       2.231989        60.7355 
 182   0.0000       2.281655        62.0870 
 183   0.0000       2.317083        63.0510 
 184   0.0000       2.325914        63.2913 
 185   0.0000       2.332494        63.4704 
 186   0.0000       2.334172        63.5160 
 187   0.0000       2.341605        63.7183 
 188   0.0000       2.341994        63.7289 
 189   0.0000       2.344832        63.8061 
 190   0.0000       2.351818        63.9962 
 191   0.0000       2.361652        64.2638 
 192   0.0000       2.371314        64.5267 
 193   0.0000       2.391751        65.0828 
 194   0.0000       2.417135        65.7736 
 195   0.0000       2.586682        70.3872 
 196   0.0000       2.648004        72.0559 
 197   0.0000       2.666367        72.5555 
 198   0.0000       2.682167        72.9855 
 199   0.0000       2.691338        73.2350 
 200   0.0000       2.708914        73.7133 
 201   0.0000       2.713954        73.8505 
 202   0.0000       2.745864        74.7188 
 203   0.0000       2.764340        75.2215 
 204   0.0000       2.766742        75.2869 
 205   0.0000       2.775214        75.5174 
 206   0.0000       2.783452        75.7416 
 207   0.0000       2.842979        77.3614 
 208   0.0000       2.866263        77.9950 
 209   0.0000       3.003756        81.7364 
 210   0.0000       3.025970        82.3408 
 211   0.0000       3.068610        83.5011 
 212   0.0000       3.285221        89.3954 
 213   0.0000       3.485075        94.8337 
 214   0.0000      13.441894       365.7725 
 215   0.0000      13.556160       368.8819 
 216   0.0000      13.898021       378.1844 
 217   0.0000      13.906117       378.4047 
 218   0.0000      13.913614       378.6087 
 219   0.0000      13.928012       379.0005 
 220   0.0000      13.955228       379.7411 
 221   0.0000      14.167485       385.5169 
 222   0.0000      14.209948       386.6724 
 223   0.0000      19.276850       524.5497 
 224   0.0000      19.366442       526.9877 
 225   0.0000      25.761112       700.9955 
 226   0.0000      25.785804       701.6674 

                    ********************************
                    * MULLIKEN POPULATION ANALYSIS *
                    ********************************

-----------------------
MULLIKEN ATOMIC CHARGES
-----------------------
   0 N :   -0.720739
   1 H :    0.400109
   2 C :    0.565370
   3 O :   -0.395876
   4 C :   -0.446142
   5 H :    0.266594
   6 C :    0.082529
   7 H :    0.274313
   8 N :   -0.676951
   9 H :    0.392637
  10 C :    0.680089
  11 O :   -0.415909
  12 C :   -0.101925
  13 C :   -0.606612
  14 H :    0.212468
  15 H :    0.207433
  16 H :    0.216974
  17 C :   -0.607076
  18 H :    0.215458
  19 H :    0.208508
  20 H :    0.211787
  21 C :   -0.631767
  22 H :    0.220970
  23 H :    0.212089
  24 H :    0.210573
  25 C :   -0.631104
  26 H :    0.231293
  27 H :    0.209633
  28 H :    0.215276
Sum of atomic charges:   -0.0000000

--------------------------------
MULLIKEN REDUCED ORBITAL CHARGES
--------------------------------
  0 N s       :     3.597372  s :     3.597372
      pz      :     1.586708  p :     4.091796
      px      :     1.195010
      py      :     1.310078
      dz2     :     0.004152  d :     0.031571
      dxz     :     0.005606
      dyz     :     0.003203
      dx2y2   :     0.011191
      dxy     :     0.007420
  1 H s       :     0.599891  s :     0.599891
  2 C s       :     2.930636  s :     2.930636
      pz      :     0.777088  p :     2.382080
      px      :     0.757985
      py      :     0.847007
      dz2     :     0.009517  d :     0.121914
      dxz     :     0.026701
      dyz     :     0.010848
      dx2y2   :     0.034948
      dxy     :     0.039899
  3 O s       :     3.761746  s :     3.761746
      pz      :     1.475466  p :     4.603809
      px      :     1.427544
      py      :     1.700800
      dz2     :     0.003177  d :     0.030320
      dxz     :     0.008856
      dyz     :     0.002137
      dx2y2   :     0.008322
      dxy     :     0.007828
  4 C s       :     3.298519  s :     3.298519
      pz      :     1.127172  p :     3.113139
      px      :     0.993880
      py      :     0.992087
      dz2     :     0.003670  d :     0.034484
      dxz     :     0.006129
      dyz     :     0.003936
      dx2y2   :     0.010421
      dxy     :     0.010329
  5 H s       :     0.733406  s :     0.733406
  6 C s       :     3.132790  s :     3.132790
      pz      :     0.895432  p :     2.725058
      px      :     0.893020
      py      :     0.936606
      dz2     :     0.008140  d :     0.059623
      dxz     :     0.013384
      dyz     :     0.005503
      dx2y2   :     0.013694
      dxy     :     0.018903
  7 H s       :     0.725687  s :     0.725687
  8 N s       :     3.575690  s :     3.575690
      pz      :     1.577325  p :     4.066437
      px      :     1.291147
      py      :     1.197966
      dz2     :     0.004818  d :     0.034824
      dxz     :     0.004049
      dyz     :     0.005634
      dx2y2   :     0.011569
      dxy     :     0.008753
  9 H s       :     0.607363  s :     0.607363
 10 C s       :     2.808328  s :     2.808328
      pz      :     0.789969  p :     2.367233
      px      :     0.795669
      py      :     0.781596
      dz2     :     0.016403  d :     0.144350
      dxz     :     0.022970
      dyz     :     0.021908
      dx2y2   :     0.054489
      dxy     :     0.028581
 11 O s       :     3.757549  s :     3.757549
      pz      :     1.467548  p :     4.627380
      px      :     1.549085
      py      :     1.610747
      dz2     :     0.005557  d :     0.030981
      dxz     :     0.006321
      dyz     :     0.005078
      dx2y2   :     0.006013
      dxy     :     0.008012
 12 C s       :     3.231115  s :     3.231115
      pz      :     0.938277  p :     2.815305
      px      :     0.938416
      py      :     0.938612
      dz2     :     0.010474  d :     0.055505
      dxz     :     0.010882
      dyz     :     0.012118
      dx2y2   :     0.009519
      dxy     :     0.012512
 13 C s       :     3.371298  s :     3.371298
      pz      :     1.121721  p :     3.198169
      px      :     0.996312
      py      :     1.080136
      dz2     :     0.004867  d :     0.037145
      dxz     :     0.008873
      dyz     :     0.008942
      dx2y2   :     0.006446
      dxy     :     0.008017
 14 H s       :     0.787532  s :     0.787532
 15 H s       :     0.792567  s :     0.792567
 16 H s       :     0.783026  s :     0.783026
 17 C s       :     3.371234  s :     3.371234
      pz      :     0.989309  p :     3.198684
      px      :     1.097940
      py      :     1.111435
      dz2     :     0.006134  d :     0.037158
      dxz     :     0.006677
      dyz     :     0.010593
      dx2y2   :     0.004628
      dxy     :     0.009126
 18 H s       :     0.784542  s :     0.784542
 19 H s       :     0.791492  s :     0.791492
 20 H s       :     0.788213  s :     0.788213
 21 C s       :     3.380330  s :     3.380330
      pz      :     1.081864  p :     3.214188
      px      :     1.061812
      py      :     1.070512
      dz2     :     0.007738  d :     0.037249
      dxz     :     0.006007
      dyz     :     0.008380
      dx2y2   :     0.007053
      dxy     :     0.008070
 22 H s       :     0.779030  s :     0.779030
 23 H s       :     0.787911  s :     0.787911
 24 H s       :     0.789427  s :     0.789427
 25 C s       :     3.379490  s :     3.379490
      pz      :     1.094125  p :     3.214495
      px      :     1.116342
      py      :     1.004028
      dz2     :     0.007546  d :     0.037119
      dxz     :     0.007316
      dyz     :     0.007275
      dx2y2   :     0.004063
      dxy     :     0.010919
 26 H s       :     0.768707  s :     0.768707
 27 H s       :     0.790367  s :     0.790367
 28 H s       :     0.784724  s :     0.784724


                     *******************************
                     * LOEWDIN POPULATION ANALYSIS *
                     *******************************

----------------------
LOEWDIN ATOMIC CHARGES
----------------------
   0 N :   -0.199048
   1 H :    0.286564
   2 C :    0.119639
   3 O :   -0.243012
   4 C :   -0.242005
   5 H :    0.163924
   6 C :   -0.012056
   7 H :    0.150522
   8 N :   -0.186008
   9 H :    0.282274
  10 C :    0.142688
  11 O :   -0.262751
  12 C :   -0.114224
  13 C :   -0.343330
  14 H :    0.124991
  15 H :    0.122537
  16 H :    0.126760
  17 C :   -0.343489
  18 H :    0.126072
  19 H :    0.122951
  20 H :    0.124560
  21 C :   -0.348300
  22 H :    0.126632
  23 H :    0.122824
  24 H :    0.122251
  25 C :   -0.349191
  26 H :    0.129853
  27 H :    0.122975
  28 H :    0.125398

-------------------------------
LOEWDIN REDUCED ORBITAL CHARGES
-------------------------------
  0 N s       :     3.117150  s :     3.117150
      pz      :     1.533301  p :     4.006247
      px      :     1.220709
      py      :     1.252237
      dz2     :     0.007666  d :     0.075651
      dxz     :     0.013227
      dyz     :     0.006093
      dx2y2   :     0.027758
      dxy     :     0.020906
  1 H s       :     0.713436  s :     0.713436
  2 C s       :     2.816915  s :     2.816915
      pz      :     0.816281  p :     2.786637
      px      :     0.962909
      py      :     1.007447
      dz2     :     0.021100  d :     0.276809
      dxz     :     0.057333
      dyz     :     0.021884
      dx2y2   :     0.081804
      dxy     :     0.094689
  3 O s       :     3.520250  s :     3.520250
      pz      :     1.468432  p :     4.666543
      px      :     1.491634
      py      :     1.706477
      dz2     :     0.006929  d :     0.056219
      dxz     :     0.012788
      dyz     :     0.002943
      dx2y2   :     0.016299
      dxy     :     0.017260
  4 C s       :     2.908303  s :     2.908303
      pz      :     1.102186  p :     3.252845
      px      :     1.083812
      py      :     1.066847
      dz2     :     0.006952  d :     0.080857
      dxz     :     0.011472
      dyz     :     0.008220
      dx2y2   :     0.027474
      dxy     :     0.026738
  5 H s       :     0.836076  s :     0.836076
  6 C s       :     2.881668  s :     2.881668
      pz      :     0.923360  p :     2.998181
      px      :     1.042594
      py      :     1.032226
      dz2     :     0.016368  d :     0.132207
      dxz     :     0.029540
      dyz     :     0.010893
      dx2y2   :     0.032605
      dxy     :     0.042801
  7 H s       :     0.849478  s :     0.849478
  8 N s       :     3.091976  s :     3.091976
      pz      :     1.535333  p :     4.010563
      px      :     1.247726
      py      :     1.227504
      dz2     :     0.008698  d :     0.083469
      dxz     :     0.007923
      dyz     :     0.013487
      dx2y2   :     0.029855
      dxy     :     0.023506
  9 H s       :     0.717726  s :     0.717726
 10 C s       :     2.782470  s :     2.782470
      pz      :     0.845671  p :     2.751061
      px      :     0.960484
      py      :     0.944906
      dz2     :     0.034599  d :     0.323782
      dxz     :     0.049885
      dyz     :     0.047832
      dx2y2   :     0.127603
      dxy     :     0.063864
 11 O s       :     3.519384  s :     3.519384
      pz      :     1.473676  p :     4.686846
      px      :     1.582085
      py      :     1.631085
      dz2     :     0.008210  d :     0.056521
      dxz     :     0.011579
      dyz     :     0.009214
      dx2y2   :     0.010622
      dxy     :     0.016896
 12 C s       :     2.839176  s :     2.839176
      pz      :     1.048291  p :     3.146490
      px      :     1.048691
      py      :     1.049508
      dz2     :     0.024060  d :     0.128558
      dxz     :     0.025137
      dyz     :     0.028428
      dx2y2   :     0.021459
      dxy     :     0.029474
 13 C s       :     2.953459  s :     2.953459
      pz      :     1.126181  p :     3.320152
      px      :     1.082644
      py      :     1.111327
      dz2     :     0.008803  d :     0.069718
      dxz     :     0.016403
      dyz     :     0.015268
      dx2y2   :     0.013005
      dxy     :     0.016239
 14 H s       :     0.875009  s :     0.875009
 15 H s       :     0.877463  s :     0.877463
 16 H s       :     0.873240  s :     0.873240
 17 C s       :     2.953567  s :     2.953567
      pz      :     1.079729  p :     3.320176
      px      :     1.118012
      py      :     1.122435
      dz2     :     0.013224  d :     0.069745
      dxz     :     0.013616
      dyz     :     0.019670
      dx2y2   :     0.007740
      dxy     :     0.015494
 18 H s       :     0.873928  s :     0.873928
 19 H s       :     0.877049  s :     0.877049
 20 H s       :     0.875440  s :     0.875440
 21 C s       :     2.953633  s :     2.953633
      pz      :     1.111484  p :     3.324989
      px      :     1.105595
      py      :     1.107909
      dz2     :     0.014006  d :     0.069678
      dxz     :     0.011625
      dyz     :     0.015481
      dx2y2   :     0.013134
      dxy     :     0.015433
 22 H s       :     0.873368  s :     0.873368
 23 H s       :     0.877176  s :     0.877176
 24 H s       :     0.877749  s :     0.877749
 25 C s       :     2.953849  s :     2.953849
      pz      :     1.117344  p :     3.325926
      px      :     1.123724
      py      :     1.084857
      dz2     :     0.013599  d :     0.069416
      dxz     :     0.012469
      dyz     :     0.014995
      dx2y2   :     0.008551
      dxy     :     0.019802
 26 H s       :     0.870147  s :     0.870147
 27 H s       :     0.877025  s :     0.877025
 28 H s       :     0.874602  s :     0.874602


                      *****************************
                      * MAYER POPULATION ANALYSIS *
                      *****************************

  NA   - Mulliken gross atomic population
  ZA   - Total nuclear charge
  QA   - Mulliken gross atomic charge
  VA   - Mayer's total valence
  BVA  - Mayer's bonded valence
  FA   - Mayer's free valence

  ATOM       NA         ZA         QA         VA         BVA        FA
  0 N      7.7207     7.0000    -0.7207     2.9916     2.9916    -0.0000
  1 H      0.5999     1.0000     0.4001     0.8314     0.8314    -0.0000
  2 C      5.4346     6.0000     0.5654     4.0695     4.0695    -0.0000
  3 O      8.3959     8.0000    -0.3959     2.2250     2.2250     0.0000
  4 C      6.4461     6.0000    -0.4461     3.7554     3.7554    -0.0000
  5 H      0.7334     1.0000     0.2666     0.9074     0.9074    -0.0000
  6 C      5.9175     6.0000     0.0825     3.6402     3.6402     0.0000
  7 H      0.7257     1.0000     0.2743     0.8848     0.8848    -0.0000
  8 N      7.6770     7.0000    -0.6770     3.0774     3.0774     0.0000
  9 H      0.6074     1.0000     0.3926     0.8301     0.8301     0.0000
 10 C      5.3199     6.0000     0.6801     4.1442     4.1442    -0.0000
 11 O      8.4159     8.0000    -0.4159     2.2248     2.2248     0.0000
 12 C      6.1019     6.0000    -0.1019     3.8476     3.8476    -0.0000
 13 C      6.6066     6.0000    -0.6066     3.6856     3.6856    -0.0000
 14 H      0.7875     1.0000     0.2125     0.9188     0.9188    -0.0000
 15 H      0.7926     1.0000     0.2074     0.9197     0.9197    -0.0000
 16 H      0.7830     1.0000     0.2170     0.9171     0.9171    -0.0000
 17 C      6.6071     6.0000    -0.6071     3.6857     3.6857     0.0000
 18 H      0.7845     1.0000     0.2155     0.9173     0.9173    -0.0000
 19 H      0.7915     1.0000     0.2085     0.9197     0.9197     0.0000
 20 H      0.7882     1.0000     0.2118     0.9190     0.9190     0.0000
 21 C      6.6318     6.0000    -0.6318     3.6800     3.6800     0.0000
 22 H      0.7790     1.0000     0.2210     0.9168     0.9168     0.0000
 23 H      0.7879     1.0000     0.2121     0.9181     0.9181    -0.0000
 24 H      0.7894     1.0000     0.2106     0.9178     0.9178     0.0000
 25 C      6.6311     6.0000    -0.6311     3.6745     3.6745    -0.0000
 26 H      0.7687     1.0000     0.2313     0.9155     0.9155    -0.0000
 27 H      0.7904     1.0000     0.2096     0.9204     0.9204    -0.0000
 28 H      0.7847     1.0000     0.2153     0.9180     0.9180    -0.0000

  Mayer bond orders larger than 0.100000
B(  0-N ,  1-H ) :   0.7970 B(  0-N ,  2-C ) :   0.9768 B(  0-N , 10-C ) :   1.0629 
B(  2-C ,  3-O ) :   2.0235 B(  2-C ,  4-C ) :   1.0610 B(  4-C ,  5-H ) :   0.9066 
B(  4-C ,  6-C ) :   1.6425 B(  6-C ,  7-H ) :   0.8982 B(  6-C ,  8-N ) :   1.0768 
B(  8-N ,  9-H ) :   0.8089 B(  8-N , 10-C ) :   1.0213 B( 10-C , 11-O ) :   2.0414 
B( 12-C , 13-C ) :   0.9841 B( 12-C , 17-C ) :   0.9838 B( 12-C , 21-C ) :   0.9797 
B( 12-C , 25-C ) :   0.9821 B( 13-C , 14-H ) :   0.9304 B( 13-C , 15-H ) :   0.9310 
B( 13-C , 16-H ) :   0.9284 B( 17-C , 18-H ) :   0.9291 B( 17-C , 19-H ) :   0.9310 
B( 17-C , 20-H ) :   0.9302 B( 21-C , 22-H ) :   0.9201 B( 21-C , 23-H ) :   0.9302 
B( 21-C , 24-H ) :   0.9234 B( 25-C , 26-H ) :   0.9147 B( 25-C , 27-H ) :   0.9283 
B( 25-C , 28-H ) :   0.9293 

-------
TIMINGS
-------

Total SCF time: 0 days 0 hours 2 min 38 sec 

Total time                  ....     158.680 sec
Sum of individual times     ....     150.837 sec  ( 95.1%)

Fock matrix formation       ....     134.470 sec  ( 84.7%)
  Split-RI-J                ....      11.083 sec  (  8.2% of F)
  Chain of spheres X        ....      80.854 sec  ( 60.1% of F)
  XC integration            ....      28.054 sec  ( 20.9% of F)
    Basis function eval.    ....       8.120 sec  ( 28.9% of XC)
    Density eval.           ....       4.788 sec  ( 17.1% of XC)
    XC-Functional eval.     ....       2.376 sec  (  8.5% of XC)
    XC-Potential eval.      ....       2.689 sec  (  9.6% of XC)
Diagonalization             ....       1.035 sec  (  0.7%)
Density matrix formation    ....       0.101 sec  (  0.1%)
Population analysis         ....       0.655 sec  (  0.4%)
Initial guess               ....       0.034 sec  (  0.0%)
Orbital Transformation      ....       0.000 sec  (  0.0%)
Orbital Orthonormalization  ....       0.000 sec  (  0.0%)
DIIS solution               ....       2.061 sec  (  1.3%)
SOSCF solution              ....       0.813 sec  (  0.5%)
Grid generation             ....      11.668 sec  (  7.4%)

Maximum memory used throughout the entire SCF-calculation: 80.7 MB


-------------------------------------------------------------------------------
                          DFT DISPERSION CORRECTION                            
                                                                               
                              DFTD3 V3.1  Rev 1                                
                          USING Becke-Johnson damping                          
-------------------------------------------------------------------------------
The PBEh-3c composite method is recognized
Using three-body term ABC
Active option DFTDOPT                   ...         4   

molecular C6(AA) [au] = 7126.486517 


            DFT-D V3
 parameters
 s6 scaling factor         :     1.0000 
 a1 scaling factor         :     0.4860 
 s8 scaling factor         :     0.0000 
 a2 scaling factor         :     4.5000 
 Damping factor alpha9(ATM):    16.0000 
 ad hoc parameters k1-k3   :    16.0000     1.3333    -4.0000 

 Edisp/kcal,au: -11.031774813100  -0.017580250327 
 E6   /kcal   : -11.218319589 
 E8   /kcal   :  -0.000000000 
 E6(ABC)      :   0.186544776 
 % E8         :   0.000000000 
 % E6(ABC)    :  -1.690977009 

-------------------------   ----------------
Dispersion correction           -0.017580250
-------------------------   ----------------

------------------   -----------------
gCP correction             0.047206407
------------------   -----------------

-------------------------   --------------------
FINAL SINGLE POINT ENERGY      -611.283941300362
-------------------------   --------------------


                            ***************************************
                            *     ORCA property calculations      *
                            ***************************************

                                    ---------------------
                                    Active property flags
                                    ---------------------
   (+) Dipole Moment


------------------------------------------------------------------------------
                       ORCA ELECTRIC PROPERTIES CALCULATION
------------------------------------------------------------------------------

Dipole Moment Calculation                       ... on
Quadrupole Moment Calculation                   ... off
Polarizability Calculation                      ... off
GBWName                                         ... pbeh-3c.gbw
Electron density                                ... pbeh-3c.scfp
The origin for moment calculation is the CENTER OF MASS  = ( 0.488401, -0.240538 -1.437912)

-------------
DIPOLE MOMENT
-------------
                                X             Y             Z
Electronic contribution:      7.87416      -1.62688     -21.30590
Nuclear contribution   :     -7.03902       3.14045      21.11680
                        -----------------------------------------
Total Dipole Moment    :      0.83514       1.51357      -0.18910
                        -----------------------------------------
Magnitude (a.u.)       :      1.73900
Magnitude (Debye)      :      4.42018



--------------------
Rotational spectrum 
--------------------
 
Rotational constants in cm-1:     0.035123     0.015829     0.014072 
Rotational constants in MHz :  1052.972716   474.550433   421.862194 

 Dipole components along the rotational axes: 
x,y,z [a.u.] :    -0.567409     0.535124     1.554285 
x,y,z [Debye]:    -1.442239     1.360178     3.950677 

 

Timings for individual modules:

Sum of individual times         ...      161.833 sec (=   2.697 min)
GTO integral calculation        ...        2.396 sec (=   0.040 min)   1.5 %
SCF iterations                  ...      159.437 sec (=   2.657 min)  98.5 %
                             ****ORCA TERMINATED NORMALLY****
TOTAL RUN TIME: 0 days 0 hours 2 minutes 43 seconds 489 msec
