
                                 *****************
                                 * O   R   C   A *
                                 *****************

                                            #,                                       
                                            ###                                      
                                            ####                                     
                                            #####                                    
                                            ######                                   
                                           ########,                                 
                                     ,,################,,,,,                         
                               ,,#################################,,                 
                          ,,##########################################,,             
                       ,#########################################, ''#####,          
                    ,#############################################,,   '####,        
                  ,##################################################,,,,####,       
                ,###########''''           ''''###############################       
              ,#####''   ,,,,##########,,,,          '''####'''          '####       
            ,##' ,,,,###########################,,,                        '##       
           ' ,,###''''                  '''############,,,                           
         ,,##''                                '''############,,,,        ,,,,,,###''
      ,#''                                            '''#######################'''  
     '                                                          ''''####''''         
             ,#######,   #######,   ,#######,      ##                                
            ,#'     '#,  ##    ##  ,#'     '#,    #''#        ######   ,####,        
            ##       ##  ##   ,#'  ##            #'  '#       #        #'  '#        
            ##       ##  #######   ##           ,######,      #####,   #    #        
            '#,     ,#'  ##    ##  '#,     ,#' ,#      #,         ##   #,  ,#        
             '#######'   ##     ##  '#######'  #'      '#     #####' # '####'        



                  #######################################################
                  #                        -***-                        #
                  #          Department of theory and spectroscopy      #
                  #    Directorship and core code : Frank Neese         #
                  #        Max Planck Institute fuer Kohlenforschung    #
                  #                Kaiser Wilhelm Platz 1               #
                  #                 D-45470 Muelheim/Ruhr               #
                  #                      Germany                        #
                  #                                                     #
                  #                  All rights reserved                #
                  #                        -***-                        #
                  #######################################################


                         Program Version 5.0.3 -  RELEASE  -


 With contributions from (in alphabetic order):
   Daniel Aravena         : Magnetic Suceptibility
   Michael Atanasov       : Ab Initio Ligand Field Theory (pilot matlab implementation)
   Alexander A. Auer      : GIAO ZORA, VPT2 properties, NMR spectrum
   Ute Becker             : Parallelization
   Giovanni Bistoni       : ED, misc. LED, open-shell LED, HFLD
   Martin Brehm           : Molecular dynamics
   Dmytro Bykov           : SCF Hessian
   Vijay G. Chilkuri      : MRCI spin determinant printing, contributions to CSF-ICE
   Dipayan Datta          : RHF DLPNO-CCSD density
   Achintya Kumar Dutta   : EOM-CC, STEOM-CC
   Dmitry Ganyushin       : Spin-Orbit,Spin-Spin,Magnetic field MRCI
   Miquel Garcia          : C-PCM and meta-GGA Hessian, CC/C-PCM, Gaussian charge scheme
   Yang Guo               : DLPNO-NEVPT2, F12-NEVPT2, CIM, IAO-localization
   Andreas Hansen         : Spin unrestricted coupled pair/coupled cluster methods
   Benjamin Helmich-Paris : MC-RPA, TRAH-SCF, COSX integrals
   Lee Huntington         : MR-EOM, pCC
   Robert Izsak           : Overlap fitted RIJCOSX, COSX-SCS-MP3, EOM
   Marcus Kettner         : VPT2
   Christian Kollmar      : KDIIS, OOCD, Brueckner-CCSD(T), CCSD density, CASPT2, CASPT2-K
   Simone Kossmann        : Meta GGA functionals, TD-DFT gradient, OOMP2, MP2 Hessian
   Martin Krupicka        : Initial AUTO-CI
   Lucas Lang             : DCDCAS
   Marvin Lechner         : AUTO-CI (C++ implementation), FIC-MRCC
   Dagmar Lenk            : GEPOL surface, SMD
   Dimitrios Liakos       : Extrapolation schemes; Compound Job, initial MDCI parallelization
   Dimitrios Manganas     : Further ROCIS development; embedding schemes
   Dimitrios Pantazis     : SARC Basis sets
   Anastasios Papadopoulos: AUTO-CI, single reference methods and gradients
   Taras Petrenko         : DFT Hessian,TD-DFT gradient, ASA, ECA, R-Raman, ABS, FL, XAS/XES, NRVS
   Peter Pinski           : DLPNO-MP2, DLPNO-MP2 Gradient
   Christoph Reimann      : Effective Core Potentials
   Marius Retegan         : Local ZFS, SOC
   Christoph Riplinger    : Optimizer, TS searches, QM/MM, DLPNO-CCSD(T), (RO)-DLPNO pert. Triples
   Tobias Risthaus        : Range-separated hybrids, TD-DFT gradient, RPA, STAB
   Michael Roemelt        : Original ROCIS implementation
   Masaaki Saitow         : Open-shell DLPNO-CCSD energy and density
   Barbara Sandhoefer     : DKH picture change effects
   Avijit Sen             : IP-ROCIS
   Kantharuban Sivalingam : CASSCF convergence, NEVPT2, FIC-MRCI
   Bernardo de Souza      : ESD, SOC TD-DFT
   Georgi Stoychev        : AutoAux, RI-MP2 NMR, DLPNO-MP2 response
   Willem Van den Heuvel  : Paramagnetic NMR
   Boris Wezisla          : Elementary symmetry handling
   Frank Wennmohs         : Technical directorship


 We gratefully acknowledge several colleagues who have allowed us to
 interface, adapt or use parts of their codes:
   Stefan Grimme, W. Hujo, H. Kruse, P. Pracht,  : VdW corrections, initial TS optimization,
                  C. Bannwarth, S. Ehlert          DFT functionals, gCP, sTDA/sTD-DF
   Ed Valeev, F. Pavosevic, A. Kumar             : LibInt (2-el integral package), F12 methods
   Garnet Chan, S. Sharma, J. Yang, R. Olivares  : DMRG
   Ulf Ekstrom                                   : XCFun DFT Library
   Mihaly Kallay                                 : mrcc  (arbitrary order and MRCC methods)
   Jiri Pittner, Ondrej Demel                    : Mk-CCSD
   Frank Weinhold                                : gennbo (NPA and NBO analysis)
   Christopher J. Cramer and Donald G. Truhlar   : smd solvation model
   Lars Goerigk                                  : TD-DFT with DH, B97 family of functionals
   V. Asgeirsson, H. Jonsson                     : NEB implementation
   FAccTs GmbH                                   : IRC, NEB, NEB-TS, DLPNO-Multilevel, CI-OPT
                                                   MM, QMMM, 2- and 3-layer-ONIOM, Crystal-QMMM,
                                                   LR-CPCM, SF, NACMEs, symmetry and pop. for TD-DFT,
                                                   nearIR, NL-DFT gradient (VV10), updates on ESD,
                                                   ML-optimized integration grids
   S Lehtola, MJT Oliveira, MAL Marques          : LibXC Library
   Liviu Ungur et al                             : ANISO software


 Your calculation uses the libint2 library for the computation of 2-el integrals
 For citations please refer to: http://libint.valeyev.net

 Your ORCA version has been built with support for libXC version: 5.1.0
 For citations please refer to: https://tddft.org/programs/libxc/

 This ORCA versions uses:
   CBLAS   interface :  Fast vector & matrix operations
   LAPACKE interface :  Fast linear algebra routines
   SCALAPACK package :  Parallel linear algebra routines
   Shared memory     :  Shared parallel matrices
   BLAS/LAPACK       :  OpenBLAS 0.3.15  USE64BITINT DYNAMIC_ARCH NO_AFFINITY Haswell SINGLE_THREADED
        Core in use  :  Haswell
   Copyright (c) 2011-2014, The OpenBLAS Project




***************************************
The coordinates will be read from file: i16p.xyz
***************************************


Your calculation utilizes the geometrical counterpoise correction gCP
Please cite in your paper:
H.Kruse, S. Grimme J.Chem.Phys., 136, (2012), 154101 
   

Your calculation utilizes the atom-pairwise dispersion correction
with the Becke-Johnson damping scheme (D3BJ)
Cite in your paper:
S.Grimme, S.Ehrlich, L.Goerigk, J Comput Chem, (2011), 32, 1456–1465 
S.Grimme, J.Antony, S.Ehrlich and H.Krieg, J.Chem.Phys., 132, (2010), 154104 
   

Your calculation employs the composite approach PBEh-3c.
Please cite in your paper:
S. Grimme, J. G. Brandenburg, C. Bannwarth, A. Hansen J.Chem.Phys., 143, (2015), 054107 
   

================================================================================

----- Orbital basis set information -----
Your calculation utilizes the basis: def2-mSVP

----- AuxJ basis set information -----
Your calculation utilizes the auxiliary basis: def2/J
   F. Weigend, Phys. Chem. Chem. Phys. 8, 1057 (2006).

================================================================================
                                        WARNINGS
                       Please study these warnings very carefully!
================================================================================


INFO   : the flag for use of the SHARK integral package has been found!

================================================================================
                                       INPUT FILE
================================================================================
NAME = pbeh-3c.inp
|  1> ! PBEh-3c def2/J TightSCF DefGrid3
|  2> 
|  3> %maxcore 60000
|  4> 
|  5> %pal
|  6> nprocs 4
|  7> end
|  8> 
|  9> *xyzfile 0 1 i16p.xyz
| 10> 
| 11>                          ****END OF INPUT****
================================================================================

                       ****************************
                       * Single Point Calculation *
                       ****************************

---------------------------------
CARTESIAN COORDINATES (ANGSTROEM)
---------------------------------
  C     -3.975850   -1.774086   -0.628527
  C     -3.873740   -0.708938    0.306073
  C     -2.696997    0.034517    0.401480
  C     -1.628651   -0.296085   -0.437194
  C     -1.721096   -1.334320   -1.359539
  C     -2.899323   -2.081650   -1.460402
  C     -0.446441   -1.480213   -2.150873
  C      0.593147   -0.582552   -1.418287
  C     -0.277087    0.419485   -0.500352
  C      0.334304    0.549265    0.869443
  C      0.626777    1.754924    1.395452
  C      0.337172    3.034334    0.720018
  C     -0.183842    2.930136   -0.678634
  C     -0.452672    1.721997   -1.218339
  N      1.523778   -1.362354   -0.602601
  C      0.922921   -1.895722    0.625853
  C      0.598021   -0.741656    1.609379
  O      0.503242    4.113573    1.293858
  O     -0.507890    4.057784   -1.385598
  C      0.544046    5.037468   -1.557257
  C      2.875475   -1.097246   -0.717116
  O      3.574822   -1.658886    0.316971
  C      5.020387   -1.507807    0.243945
  C      5.604937   -2.173098    1.478090
  O     -5.007948   -0.513130    1.062848
  C     -4.998920    0.573000    1.996606
  O     -5.123687   -2.513389   -0.724780
  O      3.394388   -0.476843   -1.630708
  H     -5.763275   -2.157905   -0.086935
  H      1.066340    1.841451    2.389214
  H     -0.870606    1.672427   -2.223008
  H      0.130276    5.789271   -2.236445
  H      0.817767    5.492986   -0.600615
  H      1.425584    4.568468   -2.020730
  H     -0.292410   -1.017082    2.194113
  H      1.424855   -0.590950    2.313226
  H      1.593574   -2.623922    1.081701
  H      0.001074   -2.408552    0.333347
  H      1.191649   -0.005351   -2.122293
  H     -0.579350   -1.128558   -3.183955
  H     -0.087820   -2.515917   -2.206533
  H     -2.603460    0.856737    1.105377
  H     -3.002880   -2.901122   -2.168366
  H     -4.212990    0.429833    2.753260
  H     -5.982371    0.566416    2.473890
  H     -4.836323    1.529880    1.479128
  H      5.262300   -0.438825    0.201002
  H      5.378539   -1.974680   -0.682092
  H      5.232928   -1.695537    2.392910
  H      6.698385   -2.078247    1.456900
  H      5.348943   -3.239329    1.507095

----------------------------
CARTESIAN COORDINATES (A.U.)
----------------------------
  NO LB      ZA    FRAG     MASS         X           Y           Z
   0 C     6.0000    0    12.011   -7.513267   -3.352537   -1.187744
   1 C     6.0000    0    12.011   -7.320307   -1.339698    0.578395
   2 C     6.0000    0    12.011   -5.096585    0.065228    0.758686
   3 C     6.0000    0    12.011   -3.077705   -0.559520   -0.826177
   4 C     6.0000    0    12.011   -3.252400   -2.521498   -2.569157
   5 C     6.0000    0    12.011   -5.478927   -3.933747   -2.759760
   6 C     6.0000    0    12.011   -0.843651   -2.797197   -4.064562
   7 C     6.0000    0    12.011    1.120886   -1.100864   -2.680175
   8 C     6.0000    0    12.011   -0.523618    0.792712   -0.945528
   9 C     6.0000    0    12.011    0.631742    1.037960    1.643009
  10 C     6.0000    0    12.011    1.184437    3.316327    2.637022
  11 C     6.0000    0    12.011    0.637162    5.734060    1.360636
  12 C     6.0000    0    12.011   -0.347410    5.537155   -1.282431
  13 C     6.0000    0    12.011   -0.855427    3.254102   -2.302327
  14 N     7.0000    0    14.007    2.879524   -2.574476   -1.138751
  15 C     6.0000    0    12.011    1.744068   -3.582395    1.182690
  16 C     6.0000    0    12.011    1.130096   -1.401527    3.041286
  17 O     8.0000    0    15.999    0.950989    7.773526    2.445037
  18 O     8.0000    0    15.999   -0.959773    7.668100   -2.618400
  19 C     6.0000    0    12.011    1.028099    9.519435   -2.942790
  20 C     6.0000    0    12.011    5.433860   -2.073495   -1.355152
  21 O     8.0000    0    15.999    6.755434   -3.134841    0.598989
  22 C     6.0000    0    12.011    9.487157   -2.849342    0.460990
  23 C     6.0000    0    12.011   10.591796   -4.106560    2.793185
  24 O     8.0000    0    15.999   -9.463651   -0.969676    2.008491
  25 C     6.0000    0    12.011   -9.446590    1.082813    3.773038
  26 O     8.0000    0    15.999   -9.682366   -4.749617   -1.369635
  27 O     8.0000    0    15.999    6.414463   -0.901103   -3.081592
  28 H     1.0000    0     1.008  -10.891012   -4.077850   -0.164283
  29 H     1.0000    0     1.008    2.015091    3.479838    4.514961
  30 H     1.0000    0     1.008   -1.645208    3.160429   -4.200877
  31 H     1.0000    0     1.008    0.246186   10.940138   -4.226269
  32 H     1.0000    0     1.008    1.545355   10.380239   -1.134997
  33 H     1.0000    0     1.008    2.693963    8.633153   -3.818627
  34 H     1.0000    0     1.008   -0.552575   -1.922007    4.146272
  35 H     1.0000    0     1.008    2.692586   -1.116734    4.371363
  36 H     1.0000    0     1.008    3.011419   -4.958493    2.044119
  37 H     1.0000    0     1.008    0.002029   -4.551504    0.629935
  38 H     1.0000    0     1.008    2.251891   -0.010113   -4.010553
  39 H     1.0000    0     1.008   -1.094813   -2.132665   -6.016804
  40 H     1.0000    0     1.008   -0.165956   -4.754394   -4.169742
  41 H     1.0000    0     1.008   -4.919827    1.618998    2.088860
  42 H     1.0000    0     1.008   -5.674622   -5.482327   -4.097619
  43 H     1.0000    0     1.008   -7.961397    0.812267    5.202908
  44 H     1.0000    0     1.008  -11.305043    1.070372    4.674975
  45 H     1.0000    0     1.008   -9.139327    2.891055    2.795148
  46 H     1.0000    0     1.008    9.944305   -0.829260    0.379839
  47 H     1.0000    0     1.008   10.163966   -3.731604   -1.288967
  48 H     1.0000    0     1.008    9.888800   -3.204102    4.521944
  49 H     1.0000    0     1.008   12.658114   -3.927317    2.753142
  50 H     1.0000    0     1.008   10.108038   -6.121444    2.847997

--------------------------------
INTERNAL COORDINATES (ANGSTROEM)
--------------------------------
 C      0   0   0     0.000000000000     0.00000000     0.00000000
 C      1   0   0     1.420720215008     0.00000000     0.00000000
 C      2   1   0     1.395188479831   120.33861862     0.00000000
 C      3   2   1     1.397867349259   118.52567772   359.82014733
 C      4   3   2     1.391832469190   121.55027047     0.44196056
 C      1   2   3     1.394819203050   120.14443155   359.84282682
 C      5   4   3     1.507394715954   111.34116380   179.36884870
 C      7   5   4     1.556669647919   105.17981026    11.24639684
 C      4   3   2     1.530606942528   126.09011418   178.54603654
 C      9   4   3     1.505648868541   111.18139539    51.53390771
 C     10   9   4     1.347531616774   121.35794004   239.35910018
 C     11  10   9     1.475456145299   123.67889950     2.35427687
 C     12  11  10     1.496174180329   115.84279665   353.77644566
 C     13  12  11     1.350241619954   120.35139474     4.66163307
 N      8   7   5     1.462706103284   112.32811654   102.77274154
 C     15   8   7     1.467858937646   113.57697111   286.51534830
 C     10   9   4     1.511135148683   116.27659424    59.41302522
 O     12  11  10     1.233543137621   121.28368491   172.85688689
 O     13  12  11     1.369815658965   120.49806539   178.77444552
 C     19  13  12     1.447694225282   116.51208487    57.36021266
 C     15   8   7     1.382200583098   118.27755486   131.96467962
 O     21  15   8     1.368890478145   110.99775918   165.30452161
 C     22  21  15     1.455272197181   115.27586619   176.32427844
 C     23  22  21     1.519020325602   107.21843639   179.19869599
 O      2   1   3     1.377489544180   114.12942081   180.12868650
 C     25   2   1     1.432363694484   117.43507158   182.09227685
 O      1   2   3     1.368708671377   120.76353059   179.66898048
 O     21  15   8     1.220173151268   125.13096913   343.51760817
 H     27   1   2     0.970714819569   107.97148212     0.83640428
 H     11  10   9     1.090076097730   120.95744073   179.79785132
 H     14  13  12     1.089259504677   119.06352212   177.45318963
 H     20  19  13     1.094399569134   105.29213824   173.44420559
 H     20  19  13     1.094341855150   111.08642145   293.15223685
 H     20  19  13     1.100852551080   110.08922872    55.48468095
 H     17  10   9     1.100290975245   109.44077994   270.95236027
 H     17  10   9     1.096251412404   109.18194837   153.32921946
 H     16  15   8     1.089884665606   109.93360064   168.58976586
 H     16  15   8     1.094695229453   106.93649040    51.01815178
 H      8   7   5     1.089490748332   111.60909560   223.01770493
 H      7   5   4     1.099356346645   111.10820896   252.51358003
 H      7   5   4     1.097446666618   113.22158353   131.96746733
 H      3   2   1     1.086400827775   121.34669107   179.56918929
 H      6   1   2     1.087875541854   118.73485129   180.06734574
 H     26  25   2     1.100322485951   110.74010036   298.18135548
 H     26  25   2     1.093169215884   105.92543754   178.98171825
 H     26  25   2     1.099927437156   110.72595928    59.63817244
 H     23  22  21     1.096853089100   108.79736106    57.94356256
 H     23  22  21     1.097172742780   108.81003413   300.45865097
 H     24  23  22     1.096973459479   110.87808638   299.46580469
 H     24  23  22     1.097759040434   109.25564485   180.00688023
 H     24  23  22     1.096914908909   110.94049679    60.45836359

---------------------------
INTERNAL COORDINATES (A.U.)
---------------------------
 C      0   0   0     0.000000000000     0.00000000     0.00000000
 C      1   0   0     2.684772119290     0.00000000     0.00000000
 C      2   1   0     2.636524132083   120.33861862     0.00000000
 C      3   2   1     2.641586461649   118.52567772   359.82014733
 C      4   3   2     2.630182191069   121.55027047     0.44196056
 C      1   2   3     2.635826300098   120.14443155   359.84282682
 C      5   4   3     2.848563188872   111.34116380   179.36884870
 C      7   5   4     2.941679315555   105.17981026    11.24639684
 C      4   3   2     2.892427940057   126.09011418   178.54603654
 C      9   4   3     2.845264015391   111.18139539    51.53390771
 C     10   9   4     2.546465712503   121.35794004   239.35910018
 C     11  10   9     2.788208037227   123.67889950     2.35427687
 C     12  11  10     2.827359449467   115.84279665   353.77644566
 C     13  12  11     2.551586876335   120.35139474     4.66163307
 N      8   7   5     2.764113949622   112.32811654   102.77274154
 C     15   8   7     2.773851395379   113.57697111   286.51534830
 C     10   9   4     2.855631582352   116.27659424    59.41302522
 O     12  11  10     2.331058704481   121.28368491   172.85688689
 O     13  12  11     2.588576449401   120.49806539   178.77444552
 C     19  13  12     2.735745611443   116.51208487    57.36021266
 C     15   8   7     2.611980564201   118.27755486   131.96467962
 O     21  15   8     2.586828111027   110.99775918   165.30452161
 C     22  21  15     2.750065902983   115.27586619   176.32427844
 C     23  22  21     2.870532407248   107.21843639   179.19869599
 O      2   1   3     2.603077990841   114.12942081   180.12868650
 C     25   2   1     2.706775106747   117.43507158   182.09227685
 O      1   2   3     2.586484546025   120.76353059   179.66898048
 O     21  15   8     2.305793091860   125.13096913   343.51760817
 H     27   1   2     1.834385163124   107.97148212     0.83640428
 H     11  10   9     2.059945289844   120.95744073   179.79785132
 H     14  13  12     2.058402152611   119.06352212   177.45318963
 H     20  19  13     2.068115466744   105.29213824   173.44420559
 H     20  19  13     2.068006403120   111.08642145   293.15223685
 H     20  19  13     2.080309835369   110.08922872    55.48468095
 H     17  10   9     2.079248610838   109.44077994   270.95236027
 H     17  10   9     2.071614943368   109.18194837   153.32921946
 H     16  15   8     2.059583535555   109.93360064   168.58976586
 H     16  15   8     2.068674183776   106.93649040    51.01815178
 H      8   7   5     2.058839139789   111.60909560   223.01770493
 H      7   5   4     2.077482418747   111.10820896   252.51358003
 H      7   5   4     2.073873646493   113.22158353   131.96746733
 H      3   2   1     2.053000036160   121.34669107   179.56918929
 H      6   1   2     2.055786841896   118.73485129   180.06734574
 H     26  25   2     2.079308157443   110.74010036   298.18135548
 H     26  25   2     2.065790436054   105.92543754   178.98171825
 H     26  25   2     2.078561623411   110.72595928    59.63817244
 H     23  22  21     2.072751947544   108.79736106    57.94356256
 H     23  22  21     2.073356005458   108.81003413   300.45865097
 H     24  23  22     2.072979414595   110.87808638   299.46580469
 H     24  23  22     2.074463947456   109.25564485   180.00688023
 H     24  23  22     2.072868770053   110.94049679    60.45836359

---------------------
BASIS SET INFORMATION
---------------------
There are 4 groups of distinct atoms

 Group   1 Type C   : 8s4p1d contracted to 4s2p1d pattern {5111/31/1}
 Group   2 Type N   : 8s4p1d contracted to 4s2p1d pattern {5111/31/1}
 Group   3 Type O   : 8s4p1d contracted to 4s2p1d pattern {5111/31/1}
 Group   4 Type H   : 4s contracted to 2s pattern {31}

Atom   0C    basis set group =>   1
Atom   1C    basis set group =>   1
Atom   2C    basis set group =>   1
Atom   3C    basis set group =>   1
Atom   4C    basis set group =>   1
Atom   5C    basis set group =>   1
Atom   6C    basis set group =>   1
Atom   7C    basis set group =>   1
Atom   8C    basis set group =>   1
Atom   9C    basis set group =>   1
Atom  10C    basis set group =>   1
Atom  11C    basis set group =>   1
Atom  12C    basis set group =>   1
Atom  13C    basis set group =>   1
Atom  14N    basis set group =>   2
Atom  15C    basis set group =>   1
Atom  16C    basis set group =>   1
Atom  17O    basis set group =>   3
Atom  18O    basis set group =>   3
Atom  19C    basis set group =>   1
Atom  20C    basis set group =>   1
Atom  21O    basis set group =>   3
Atom  22C    basis set group =>   1
Atom  23C    basis set group =>   1
Atom  24O    basis set group =>   3
Atom  25C    basis set group =>   1
Atom  26O    basis set group =>   3
Atom  27O    basis set group =>   3
Atom  28H    basis set group =>   4
Atom  29H    basis set group =>   4
Atom  30H    basis set group =>   4
Atom  31H    basis set group =>   4
Atom  32H    basis set group =>   4
Atom  33H    basis set group =>   4
Atom  34H    basis set group =>   4
Atom  35H    basis set group =>   4
Atom  36H    basis set group =>   4
Atom  37H    basis set group =>   4
Atom  38H    basis set group =>   4
Atom  39H    basis set group =>   4
Atom  40H    basis set group =>   4
Atom  41H    basis set group =>   4
Atom  42H    basis set group =>   4
Atom  43H    basis set group =>   4
Atom  44H    basis set group =>   4
Atom  45H    basis set group =>   4
Atom  46H    basis set group =>   4
Atom  47H    basis set group =>   4
Atom  48H    basis set group =>   4
Atom  49H    basis set group =>   4
Atom  50H    basis set group =>   4
---------------------------------
AUXILIARY/J BASIS SET INFORMATION
---------------------------------
There are 4 groups of distinct atoms

 Group   1 Type C   : 12s5p4d2f1g contracted to 6s4p3d1f1g pattern {711111/2111/211/2/1}
 Group   2 Type N   : 12s5p4d2f1g contracted to 6s4p3d1f1g pattern {711111/2111/211/2/1}
 Group   3 Type O   : 12s5p4d2f1g contracted to 6s4p3d1f1g pattern {711111/2111/211/2/1}
 Group   4 Type H   : 5s2p1d contracted to 3s1p1d pattern {311/2/1}

Atom   0C    basis set group =>   1
Atom   1C    basis set group =>   1
Atom   2C    basis set group =>   1
Atom   3C    basis set group =>   1
Atom   4C    basis set group =>   1
Atom   5C    basis set group =>   1
Atom   6C    basis set group =>   1
Atom   7C    basis set group =>   1
Atom   8C    basis set group =>   1
Atom   9C    basis set group =>   1
Atom  10C    basis set group =>   1
Atom  11C    basis set group =>   1
Atom  12C    basis set group =>   1
Atom  13C    basis set group =>   1
Atom  14N    basis set group =>   2
Atom  15C    basis set group =>   1
Atom  16C    basis set group =>   1
Atom  17O    basis set group =>   3
Atom  18O    basis set group =>   3
Atom  19C    basis set group =>   1
Atom  20C    basis set group =>   1
Atom  21O    basis set group =>   3
Atom  22C    basis set group =>   1
Atom  23C    basis set group =>   1
Atom  24O    basis set group =>   3
Atom  25C    basis set group =>   1
Atom  26O    basis set group =>   3
Atom  27O    basis set group =>   3
Atom  28H    basis set group =>   4
Atom  29H    basis set group =>   4
Atom  30H    basis set group =>   4
Atom  31H    basis set group =>   4
Atom  32H    basis set group =>   4
Atom  33H    basis set group =>   4
Atom  34H    basis set group =>   4
Atom  35H    basis set group =>   4
Atom  36H    basis set group =>   4
Atom  37H    basis set group =>   4
Atom  38H    basis set group =>   4
Atom  39H    basis set group =>   4
Atom  40H    basis set group =>   4
Atom  41H    basis set group =>   4
Atom  42H    basis set group =>   4
Atom  43H    basis set group =>   4
Atom  44H    basis set group =>   4
Atom  45H    basis set group =>   4
Atom  46H    basis set group =>   4
Atom  47H    basis set group =>   4
Atom  48H    basis set group =>   4
Atom  49H    basis set group =>   4
Atom  50H    basis set group =>   4


           ************************************************************
           *        Program running with 4 parallel MPI-processes     *
           *              working on a common directory               *
           ************************************************************
------------------------------------------------------------------------------
                           ORCA GTO INTEGRAL CALCULATION
                           -- RI-GTO INTEGRALS CHOSEN --
------------------------------------------------------------------------------
------------------------------------------------------------------------------
                   ___                                                        
                  /   \      - P O W E R E D   B Y -                         
                 /     \                                                     
                 |  |  |   _    _      __       _____    __    __             
                 |  |  |  | |  | |    /  \     |  _  \  |  |  /  |          
                  \  \/   | |  | |   /    \    | | | |  |  | /  /          
                 / \  \   | |__| |  /  /\  \   | |_| |  |  |/  /          
                |  |  |   |  __  | /  /__\  \  |    /   |      \           
                |  |  |   | |  | | |   __   |  |    \   |  |\   \          
                \     /   | |  | | |  |  |  |  | |\  \  |  | \   \       
                 \___/    |_|  |_| |__|  |__|  |_| \__\ |__|  \__/        
                                                                              
                      - O R C A' S   B I G   F R I E N D -                    
                                      &                                       
                       - I N T E G R A L  F E E D E R -                       
                                                                              
 v1 FN, 2020, v2 2021                                                         
------------------------------------------------------------------------------


Reading SHARK input file pbeh-3c.SHARKINP.tmp ... ok
----------------------
SHARK INTEGRAL PACKAGE
----------------------

Number of atoms                             ...     51
Number of basis functions                   ...    466
Number of shells                            ...    242
Maximum angular momentum                    ...      2
Integral batch strategy                     ... SHARK/LIBINT Hybrid
RI-J (if used) integral strategy            ... SPLIT-RIJ (Revised 2003 algorithm where possible)
Printlevel                                  ...      1
Contraction scheme used                     ... SEGMENTED contraction
Coulomb Range Separation                    ... NOT USED
Exchange Range Separation                   ... NOT USED
Finite Nucleus Model                        ... NOT USED
Auxiliary Coulomb fitting basis             ... AVAILABLE
   # of basis functions in Aux-J            ...   1625
   # of shells in Aux-J                     ...    535
   Maximum angular momentum in Aux-J        ...      4
Auxiliary J/K fitting basis                 ... NOT available
Auxiliary Correlation fitting basis         ... NOT available
Auxiliary 'external' fitting basis          ... NOT available
Integral threshold                          ...     2.500000e-11
Primitive cut-off                           ...     2.500000e-12
Primitive pair pre-selection threshold      ...     2.500000e-12

Calculating pre-screening integrals         ... done (  0.1 sec) Dimension = 242
Organizing shell pair data                  ... done (  0.5 sec)
Shell pair information
Total number of shell pairs                 ...     29403
Shell pairs after pre-screening             ...     17960
Total number of primitive shell pairs       ...    104629
Primitive shell pairs kept                  ...     39031
          la=0 lb=0:   6642 shell pairs
          la=1 lb=0:   6261 shell pairs
          la=1 lb=1:   1343 shell pairs
          la=2 lb=0:   2330 shell pairs
          la=2 lb=1:   1156 shell pairs
          la=2 lb=2:    228 shell pairs

Calculating one electron integrals          ... done (  0.1 sec)
Calculating RI/J V-Matrix + Cholesky decomp.... done (  1.3 sec)
Calculating Nuclear repulsion               ... done (  0.0 sec) ENN=   2734.127972332341 Eh

SHARK setup successfully completed in   3.4 seconds

Maximum memory used throughout the entire GTOINT-calculation: 38.2 MB


           ************************************************************
           *        Program running with 4 parallel MPI-processes     *
           *              working on a common directory               *
           ************************************************************
-------------------------------------------------------------------------------
                                 ORCA SCF
-------------------------------------------------------------------------------

------------
SCF SETTINGS
------------
Hamiltonian:
 Density Functional     Method          .... DFT(GTOs)
 Exchange Functional    Exchange        .... PBE
   PBE kappa parameter   XKappa         ....  1.024500
   PBE mue parameter    XMuePBE         ....  0.123457
 Correlation Functional Correlation     .... PBE
   PBE beta parameter  CBetaPBE         ....  0.030000
 LDA part of GGA corr.  LDAOpt          .... PW91-LDA
 Gradients option       PostSCFGGA      .... off
 Hybrid DFT is turned on
   Fraction HF Exchange ScalHFX         ....  0.420000
   Scaling of DF-GGA-X  ScalDFX         ....  0.580000
   Scaling of DF-GGA-C  ScalDFC         ....  1.000000
   Scaling of DF-LDA-C  ScalLDAC        ....  1.000000
   Perturbative correction              ....  0.000000
   Density functional embedding theory  .... OFF
 RI-approximation to the Coulomb term is turned on
   Number of AuxJ basis functions       .... 1625
   RIJ-ON(X) (HFX calculated with O(N)) .... on
   Number of AuxJ basis functions       .... 1625
   RIJ-COSX (HFX calculated with COS-X)).... on


General Settings:
 Integral files         IntName         .... pbeh-3c
 Hartree-Fock type      HFTyp           .... RHF
 Total Charge           Charge          ....    0
 Multiplicity           Mult            ....    1
 Number of Electrons    NEL             ....  204
 Basis Dimension        Dim             ....  466
 Nuclear Repulsion      ENuc            ....   2734.1279723323 Eh

Convergence Acceleration:
 DIIS                   CNVDIIS         .... on
   Start iteration      DIISMaxIt       ....    12
   Startup error        DIISStart       ....  0.200000
   # of expansion vecs  DIISMaxEq       ....     5
   Bias factor          DIISBfac        ....   1.050
   Max. coefficient     DIISMaxC        ....  10.000
 Trust-Rad. Augm. Hess. CNVTRAH         .... auto
   Auto Start mean grad. ratio tolernc. ....  1.125000
   Auto Start start iteration           ....    20
   Auto Start num. interpolation iter.  ....    10
   Max. Number of Micro iterations      ....    16
   Max. Number of Macro iterations      .... Maxiter - #DIIS iter
   Number of Davidson start vectors     ....     2
   Converg. threshold I  (grad. norm)   ....   1.000e-05
   Converg. threshold II (energy diff.) ....   1.000e-08
   Grad. Scal. Fac. for Micro threshold ....   0.100
   Minimum threshold for Micro iter.    ....   0.010
   NR start threshold (gradient norm)   ....   0.001
   Initial trust radius                 ....   0.400
   Minimum AH scaling param. (alpha)    ....   1.000
   Maximum AH scaling param. (alpha)    .... 1000.000
   Orbital update algorithm             .... Taylor
   White noise on init. David. guess    .... on
   Maximum white noise                  ....   0.010
   Quad. conv. algorithm                .... NR
   COSX micro iterations for RIJONX calc.... off
 SOSCF                  CNVSOSCF        .... on
   Start iteration      SOSCFMaxIt      ....   150
   Startup grad/error   SOSCFStart      ....  0.003300
 Level Shifting         CNVShift        .... on
   Level shift para.    LevelShift      ....    0.2500
   Turn off err/grad.   ShiftErr        ....    0.0010
 Zerner damping         CNVZerner       .... off
 Static damping         CNVDamp         .... on
   Fraction old density DampFac         ....    0.7000
   Max. Damping (<1)    DampMax         ....    0.9800
   Min. Damping (>=0)   DampMin         ....    0.0000
   Turn off err/grad.   DampErr         ....    0.1000
 Fernandez-Rico         CNVRico         .... off

SCF Procedure:
 Maximum # iterations   MaxIter         ....   125
 SCF integral mode      SCFMode         .... Direct
   Integral package                     .... SHARK and LIBINT hybrid scheme
 Reset frequency        DirectResetFreq ....    20
 Integral Threshold     Thresh          ....  2.500e-11 Eh
 Primitive CutOff       TCut            ....  2.500e-12 Eh

Convergence Tolerance:
 Convergence Check Mode ConvCheckMode   .... Total+1el-Energy
 Convergence forced     ConvForced      .... 0
 Energy Change          TolE            ....  1.000e-08 Eh
 1-El. energy change                    ....  1.000e-05 Eh
 Orbital Gradient       TolG            ....  1.000e-05
 Orbital Rotation angle TolX            ....  1.000e-05
 DIIS Error             TolErr          ....  5.000e-07


Diagonalization of the overlap matrix:
Smallest eigenvalue                        ... 4.575e-04
Time for diagonalization                   ...    0.093 sec
Threshold for overlap eigenvalues          ... 1.000e-08
Number of eigenvalues below threshold      ... 0
Time for construction of square roots      ...    0.235 sec
Total time needed                          ...    0.330 sec

--------------------------------
INITIAL GUESS: MINIMAL BASIS EHT
--------------------------------
The minimal basis has 163 functions
EHT matrix was diagonalized
Basis set overlap was calculated now projecting the orbitals
Using GuessMode=FMatrix for the initial guess
C*T matrix was formed
Effective Fockian was calculated
Effective Fockian was diagonalized
Initial density was built
                      ------------------
                      INITIAL GUESS DONE
                      ------------------
-------------------
DFT GRID GENERATION
-------------------

General Integration Accuracy     IntAcc      ... 4.959
Radial Grid Type                 RadialGrid  ... OptM3 with GC (2021)
Angular Grid (max. ang.)         AngularGrid ... 6 (Lebedev-590)
Angular grid pruning method      GridPruning ... 4 (adaptive)
Weight generation scheme         WeightScheme... Becke
Basis function cutoff            BFCut       ... 1.0000e-11
Integration weight cutoff        WCut        ... 1.0000e-14
Angular grids for H and He will be reduced by one unit
Partially contracted basis set               ... off
Rotationally invariant grid construction     ... off

Total number of grid points                  ...   590766
Total number of batches                      ...     9257
Average number of points per batch           ...       63
Average number of grid points per atom       ...    11584
Time for grid setup =   14.605 sec

--------------------
COSX GRID GENERATION
--------------------

GRIDX 1
-------
General Integration Accuracy     IntAcc      ... 4.020
Radial Grid Type                 RadialGrid  ... OptM3 with GC (2021)
Angular Grid (max. ang.)         AngularGrid ... 2 (Lebedev-110)
Angular grid pruning method      GridPruning ... 4 (adaptive)
Weight generation scheme         WeightScheme... Becke
Basis function cutoff            BFCut       ... 1.0000e-11
Integration weight cutoff        WCut        ... 1.0000e-14
Angular grids for H and He will be reduced by one unit
Partially contracted basis set               ... on
Rotationally invariant grid construction     ... off

Total number of grid points                  ...    65546
Total number of batches                      ...     1049
Average number of points per batch           ...       62
Average number of grid points per atom       ...     1285
UseSFitting                                  ... on

GRIDX 2
-------
General Integration Accuracy     IntAcc      ... 4.338
Radial Grid Type                 RadialGrid  ... OptM3 with GC (2021)
Angular Grid (max. ang.)         AngularGrid ... 3 (Lebedev-194)
Angular grid pruning method      GridPruning ... 4 (adaptive)
Weight generation scheme         WeightScheme... Becke
Basis function cutoff            BFCut       ... 1.0000e-11
Integration weight cutoff        WCut        ... 1.0000e-14
Angular grids for H and He will be reduced by one unit
Partially contracted basis set               ... on
Rotationally invariant grid construction     ... off

Total number of grid points                  ...   142976
Total number of batches                      ...     2254
Average number of points per batch           ...       63
Average number of grid points per atom       ...     2803
UseSFitting                                  ... on

GRIDX 3
-------
General Integration Accuracy     IntAcc      ... 4.871
Radial Grid Type                 RadialGrid  ... OptM3 with GC (2021)
Angular Grid (max. ang.)         AngularGrid ... 4 (Lebedev-302)
Angular grid pruning method      GridPruning ... 4 (adaptive)
Weight generation scheme         WeightScheme... Becke
Basis function cutoff            BFCut       ... 1.0000e-11
Integration weight cutoff        WCut        ... 1.0000e-14
Angular grids for H and He will be reduced by one unit
Partially contracted basis set               ... on
Rotationally invariant grid construction     ... off

Total number of grid points                  ...   267618
Total number of batches                      ...     4206
Average number of points per batch           ...       63
Average number of grid points per atom       ...     5247
UseSFitting                                  ... on

Time for X-Grid setup             =   14.280 sec

--------------
SCF ITERATIONS
--------------
ITER       Energy         Delta-E        Max-DP      RMS-DP      [F,P]     Damp
               ***  Starting incremental Fock matrix formation  ***
  0  -1313.6037634548   0.000000000000 0.24923350  0.00416756  0.5683034 0.7000
  1  -1314.9606105848  -1.356847129941 0.13443861  0.00245725  0.2900374 0.7000
  2  -1315.6727678001  -0.712157215333 0.08151328  0.00160566  0.2029966 0.7000
                               ***Turning on DIIS***
  3  -1316.1761276819  -0.503359881829 0.07658858  0.00116162  0.1418957 0.7000
  4  -1316.5388816762  -0.362753994304 0.16534385  0.00282629  0.0991928 0.0000
  5  -1317.4030804461  -0.864198769879 0.01374069  0.00021711  0.0137555 0.0000
  6  -1317.4046804173  -0.001599971156 0.00621106  0.00008037  0.0097701 0.0000
                      *** Initiating the SOSCF procedure ***
                           *** Shutting down DIIS ***
                      *** Re-Reading the Fockian *** 
                      *** Removing any level shift *** 
ITER      Energy       Delta-E        Grad      Rot      Max-DP    RMS-DP
  7  -1317.40523795  -0.0005575357  0.000821  0.000821  0.003097  0.000041
               *** Restarting incremental Fock matrix formation ***
  8  -1317.40530222  -0.0000642639  0.000269  0.001014  0.002165  0.000026
  9  -1317.40531493  -0.0000127160  0.000186  0.000587  0.000813  0.000014
 10  -1317.40531870  -0.0000037646  0.000108  0.000234  0.000332  0.000005
 11  -1317.40531936  -0.0000006626  0.000039  0.000046  0.000263  0.000003
 12  -1317.40531942  -0.0000000568  0.000017  0.000047  0.000155  0.000002
 13  -1317.40531949  -0.0000000703  0.000006  0.000011  0.000032  0.000000
                 **** Energy Check signals convergence ****
              ***Rediagonalizing the Fockian in SOSCF/NRSCF***

               *****************************************************
               *                     SUCCESS                       *
               *           SCF CONVERGED AFTER  14 CYCLES          *
               *****************************************************

Old exchange energy                            =    -72.638762742 Eh
New exchange energy                            =    -72.638765682 Eh
Exchange energy change after final integration =     -0.000002940 Eh
Total energy after final integration           =  -1317.405322437 Eh
Final COS-X integration done in                =    80.310 sec

----------------
TOTAL SCF ENERGY
----------------

Total Energy       :        -1317.40532244 Eh          -35848.42132 eV

Components:
Nuclear Repulsion  :         2734.12797233 Eh           74399.40452 eV
Electronic Energy  :        -4051.53329477 Eh         -110247.82584 eV
One Electron Energy:        -7235.10109890 Eh         -196877.10994 eV
Two Electron Energy:         3183.56780413 Eh           86629.28410 eV
Max COSX asymmetry :            0.00000328 Eh               0.00009 eV

Virial components:
Potential Energy   :        -2624.08031818 Eh          -71404.85561 eV
Kinetic Energy     :         1306.67499574 Eh           35556.43429 eV
Virial Ratio       :            2.00821193


DFT components:
N(Alpha)           :      101.999977167759 electrons
N(Beta)            :      101.999977167759 electrons
N(Total)           :      203.999954335518 electrons
E(X)               :      -96.606792048802 Eh       
E(C)               :       -9.032467658046 Eh       
E(XC)              :     -105.639259706848 Eh       
DFET-embed. en.    :        0.000000000000 Eh       

---------------
SCF CONVERGENCE
---------------

  Last Energy change         ...   -9.6804e-09  Tolerance :   1.0000e-08
  Last MAX-Density change    ...    2.3315e-15  Tolerance :   1.0000e-07
  Last RMS-Density change    ...    3.1201e-17  Tolerance :   5.0000e-09
  Last Orbital Gradient      ...    4.8634e-06  Tolerance :   1.0000e-05
  Last Orbital Rotation      ...    8.7838e-06  Tolerance :   1.0000e-05

             **** THE GBW FILE WAS UPDATED (pbeh-3c.gbw) ****
             **** DENSITY pbeh-3c.scfp WAS UPDATED ****
             **** ENERGY FILE WAS UPDATED (pbeh-3c.en.tmp) ****
             **** THE GBW FILE WAS UPDATED (pbeh-3c.gbw) ****
             **** DENSITY pbeh-3c.scfp WAS UPDATED ****
----------------
ORBITAL ENERGIES
----------------

  NO   OCC          E(Eh)            E(eV) 
   0   2.0000     -19.547853      -531.9241 
   1   2.0000     -19.538396      -531.6668 
   2   2.0000     -19.526832      -531.3521 
   3   2.0000     -19.511222      -530.9273 
   4   2.0000     -19.478664      -530.0414 
   5   2.0000     -19.468762      -529.7719 
   6   2.0000     -14.675620      -399.3439 
   7   2.0000     -10.597980      -288.3857 
   8   2.0000     -10.534658      -286.6626 
   9   2.0000     -10.522150      -286.3223 
  10   2.0000     -10.520491      -286.2771 
  11   2.0000     -10.509491      -285.9778 
  12   2.0000     -10.506232      -285.8891 
  13   2.0000     -10.501802      -285.7686 
  14   2.0000     -10.501110      -285.7497 
  15   2.0000     -10.489799      -285.4419 
  16   2.0000     -10.487139      -285.3696 
  17   2.0000     -10.486791      -285.3601 
  18   2.0000     -10.475821      -285.0616 
  19   2.0000     -10.464307      -284.7483 
  20   2.0000     -10.463368      -284.7227 
  21   2.0000     -10.462740      -284.7056 
  22   2.0000     -10.461844      -284.6812 
  23   2.0000     -10.460322      -284.6398 
  24   2.0000     -10.456628      -284.5393 
  25   2.0000     -10.454848      -284.4909 
  26   2.0000     -10.453785      -284.4620 
  27   2.0000     -10.441498      -284.1276 
  28   2.0000      -1.211714       -32.9724 
  29   2.0000      -1.195085       -32.5199 
  30   2.0000      -1.162828       -31.6422 
  31   2.0000      -1.159017       -31.5384 
  32   2.0000      -1.128703       -30.7136 
  33   2.0000      -1.116014       -30.3683 
  34   2.0000      -1.057473       -28.7753 
  35   2.0000      -0.984910       -26.8008 
  36   2.0000      -0.946085       -25.7443 
  37   2.0000      -0.905473       -24.6392 
  38   2.0000      -0.881279       -23.9808 
  39   2.0000      -0.861723       -23.4487 
  40   2.0000      -0.857184       -23.3252 
  41   2.0000      -0.837617       -22.7927 
  42   2.0000      -0.826934       -22.5020 
  43   2.0000      -0.807230       -21.9658 
  44   2.0000      -0.782869       -21.3030 
  45   2.0000      -0.764477       -20.8025 
  46   2.0000      -0.743431       -20.2298 
  47   2.0000      -0.720729       -19.6120 
  48   2.0000      -0.701879       -19.0991 
  49   2.0000      -0.692502       -18.8439 
  50   2.0000      -0.680393       -18.5144 
  51   2.0000      -0.676679       -18.4134 
  52   2.0000      -0.653398       -17.7799 
  53   2.0000      -0.624917       -17.0049 
  54   2.0000      -0.621593       -16.9144 
  55   2.0000      -0.602467       -16.3940 
  56   2.0000      -0.592489       -16.1225 
  57   2.0000      -0.578921       -15.7533 
  58   2.0000      -0.570217       -15.5164 
  59   2.0000      -0.567207       -15.4345 
  60   2.0000      -0.551356       -15.0032 
  61   2.0000      -0.547784       -14.9060 
  62   2.0000      -0.547679       -14.9031 
  63   2.0000      -0.533868       -14.5273 
  64   2.0000      -0.525814       -14.3081 
  65   2.0000      -0.524049       -14.2601 
  66   2.0000      -0.518425       -14.1071 
  67   2.0000      -0.514477       -13.9996 
  68   2.0000      -0.506798       -13.7907 
  69   2.0000      -0.501159       -13.6372 
  70   2.0000      -0.497790       -13.5456 
  71   2.0000      -0.494183       -13.4474 
  72   2.0000      -0.485416       -13.2088 
  73   2.0000      -0.478858       -13.0304 
  74   2.0000      -0.470357       -12.7991 
  75   2.0000      -0.465846       -12.6763 
  76   2.0000      -0.465269       -12.6606 
  77   2.0000      -0.461481       -12.5575 
  78   2.0000      -0.451952       -12.2982 
  79   2.0000      -0.450141       -12.2490 
  80   2.0000      -0.445882       -12.1331 
  81   2.0000      -0.441638       -12.0176 
  82   2.0000      -0.434376       -11.8200 
  83   2.0000      -0.427396       -11.6300 
  84   2.0000      -0.423814       -11.5326 
  85   2.0000      -0.415951       -11.3186 
  86   2.0000      -0.414296       -11.2736 
  87   2.0000      -0.411404       -11.1949 
  88   2.0000      -0.409358       -11.1392 
  89   2.0000      -0.404472       -11.0062 
  90   2.0000      -0.399152       -10.8615 
  91   2.0000      -0.396521       -10.7899 
  92   2.0000      -0.371574       -10.1110 
  93   2.0000      -0.356679        -9.7057 
  94   2.0000      -0.353631        -9.6228 
  95   2.0000      -0.334709        -9.1079 
  96   2.0000      -0.315575        -8.5872 
  97   2.0000      -0.306338        -8.3359 
  98   2.0000      -0.297578        -8.0975 
  99   2.0000      -0.286283        -7.7902 
 100   2.0000      -0.277940        -7.5631 
 101   2.0000      -0.251788        -6.8515 
 102   0.0000      -0.042073        -1.1449 
 103   0.0000       0.005925         0.1612 
 104   0.0000       0.011414         0.3106 
 105   0.0000       0.048429         1.3178 
 106   0.0000       0.078788         2.1439 
 107   0.0000       0.103877         2.8266 
 108   0.0000       0.122061         3.3215 
 109   0.0000       0.134082         3.6486 
 110   0.0000       0.138403         3.7661 
 111   0.0000       0.141119         3.8400 
 112   0.0000       0.147195         4.0054 
 113   0.0000       0.150572         4.0973 
 114   0.0000       0.155605         4.2342 
 115   0.0000       0.163124         4.4388 
 116   0.0000       0.165401         4.5008 
 117   0.0000       0.170048         4.6272 
 118   0.0000       0.174977         4.7614 
 119   0.0000       0.179865         4.8944 
 120   0.0000       0.183830         5.0023 
 121   0.0000       0.189304         5.1512 
 122   0.0000       0.193404         5.2628 
 123   0.0000       0.195335         5.3153 
 124   0.0000       0.197286         5.3684 
 125   0.0000       0.199964         5.4413 
 126   0.0000       0.204621         5.5680 
 127   0.0000       0.206134         5.6092 
 128   0.0000       0.206586         5.6215 
 129   0.0000       0.211867         5.7652 
 130   0.0000       0.218438         5.9440 
 131   0.0000       0.220151         5.9906 
 132   0.0000       0.222691         6.0597 
 133   0.0000       0.228234         6.2106 
 134   0.0000       0.234706         6.3867 
 135   0.0000       0.238801         6.4981 
 136   0.0000       0.244826         6.6621 
 137   0.0000       0.246659         6.7119 
 138   0.0000       0.252290         6.8652 
 139   0.0000       0.256738         6.9862 
 140   0.0000       0.268094         7.2952 
 141   0.0000       0.269310         7.3283 
 142   0.0000       0.274198         7.4613 
 143   0.0000       0.279361         7.6018 
 144   0.0000       0.291032         7.9194 
 145   0.0000       0.311094         8.4653 
 146   0.0000       0.313462         8.5297 
 147   0.0000       0.323230         8.7955 
 148   0.0000       0.330498         8.9933 
 149   0.0000       0.346527         9.4295 
 150   0.0000       0.361228         9.8295 
 151   0.0000       0.370186        10.0733 
 152   0.0000       0.385026        10.4771 
 153   0.0000       0.391637        10.6570 
 154   0.0000       0.400757        10.9052 
 155   0.0000       0.412412        11.2223 
 156   0.0000       0.416564        11.3353 
 157   0.0000       0.427002        11.6193 
 158   0.0000       0.432236        11.7617 
 159   0.0000       0.460680        12.5357 
 160   0.0000       0.466045        12.6817 
 161   0.0000       0.480458        13.0739 
 162   0.0000       0.482094        13.1185 
 163   0.0000       0.499020        13.5790 
 164   0.0000       0.500924        13.6308 
 165   0.0000       0.504487        13.7278 
 166   0.0000       0.514285        13.9944 
 167   0.0000       0.514891        14.0109 
 168   0.0000       0.520981        14.1766 
 169   0.0000       0.524246        14.2655 
 170   0.0000       0.526358        14.3229 
 171   0.0000       0.528579        14.3834 
 172   0.0000       0.536611        14.6019 
 173   0.0000       0.550230        14.9725 
 174   0.0000       0.552746        15.0410 
 175   0.0000       0.554897        15.0995 
 176   0.0000       0.556522        15.1437 
 177   0.0000       0.562515        15.3068 
 178   0.0000       0.566416        15.4130 
 179   0.0000       0.570458        15.5230 
 180   0.0000       0.573005        15.5923 
 181   0.0000       0.581125        15.8132 
 182   0.0000       0.586254        15.9528 
 183   0.0000       0.600118        16.3300 
 184   0.0000       0.601584        16.3699 
 185   0.0000       0.609144        16.5757 
 186   0.0000       0.619571        16.8594 
 187   0.0000       0.624938        17.0054 
 188   0.0000       0.632004        17.1977 
 189   0.0000       0.634887        17.2762 
 190   0.0000       0.645165        17.5558 
 191   0.0000       0.653299        17.7772 
 192   0.0000       0.656170        17.8553 
 193   0.0000       0.662613        18.0306 
 194   0.0000       0.663113        18.0442 
 195   0.0000       0.673905        18.3379 
 196   0.0000       0.685388        18.6504 
 197   0.0000       0.692350        18.8398 
 198   0.0000       0.696178        18.9440 
 199   0.0000       0.706036        19.2122 
 200   0.0000       0.708814        19.2878 
 201   0.0000       0.718553        19.5528 
 202   0.0000       0.721157        19.6237 
 203   0.0000       0.731483        19.9047 
 204   0.0000       0.731929        19.9168 
 205   0.0000       0.744163        20.2497 
 206   0.0000       0.748253        20.3610 
 207   0.0000       0.755475        20.5575 
 208   0.0000       0.760481        20.6938 
 209   0.0000       0.773097        21.0371 
 210   0.0000       0.779854        21.2209 
 211   0.0000       0.800368        21.7791 
 212   0.0000       0.811469        22.0812 
 213   0.0000       0.833520        22.6812 
 214   0.0000       0.844061        22.9681 
 215   0.0000       0.863541        23.4982 
 216   0.0000       0.876022        23.8378 
 217   0.0000       0.882760        24.0211 
 218   0.0000       0.904538        24.6137 
 219   0.0000       0.918451        24.9923 
 220   0.0000       0.932204        25.3666 
 221   0.0000       0.941273        25.6133 
 222   0.0000       0.949721        25.8432 
 223   0.0000       0.960040        26.1240 
 224   0.0000       0.967476        26.3264 
 225   0.0000       0.970161        26.3994 
 226   0.0000       0.971535        26.4368 
 227   0.0000       0.978467        26.6254 
 228   0.0000       0.981457        26.7068 
 229   0.0000       0.986372        26.8405 
 230   0.0000       0.989861        26.9355 
 231   0.0000       0.997779        27.1510 
 232   0.0000       1.000084        27.2137 
 233   0.0000       1.000905        27.2360 
 234   0.0000       1.006161        27.3790 
 235   0.0000       1.006773        27.3957 
 236   0.0000       1.014292        27.6003 
 237   0.0000       1.023040        27.8383 
 238   0.0000       1.024379        27.8748 
 239   0.0000       1.027042        27.9472 
 240   0.0000       1.030256        28.0347 
 241   0.0000       1.033304        28.1176 
 242   0.0000       1.039655        28.2904 
 243   0.0000       1.041892        28.3513 
 244   0.0000       1.050501        28.5856 
 245   0.0000       1.054588        28.6968 
 246   0.0000       1.057009        28.7627 
 247   0.0000       1.062456        28.9109 
 248   0.0000       1.068059        29.0634 
 249   0.0000       1.073203        29.2034 
 250   0.0000       1.080458        29.4007 
 251   0.0000       1.083154        29.4741 
 252   0.0000       1.089137        29.6369 
 253   0.0000       1.109880        30.2014 
 254   0.0000       1.122625        30.5482 
 255   0.0000       1.125533        30.6273 
 256   0.0000       1.131475        30.7890 
 257   0.0000       1.138721        30.9862 
 258   0.0000       1.146410        31.1954 
 259   0.0000       1.156420        31.4678 
 260   0.0000       1.164307        31.6824 
 261   0.0000       1.175674        31.9917 
 262   0.0000       1.192655        32.4538 
 263   0.0000       1.208025        32.8720 
 264   0.0000       1.211575        32.9686 
 265   0.0000       1.217938        33.1418 
 266   0.0000       1.233752        33.5721 
 267   0.0000       1.239310        33.7233 
 268   0.0000       1.252013        34.0690 
 269   0.0000       1.254055        34.1246 
 270   0.0000       1.265427        34.4340 
 271   0.0000       1.272180        34.6178 
 272   0.0000       1.281873        34.8815 
 273   0.0000       1.288461        35.0608 
 274   0.0000       1.303375        35.4666 
 275   0.0000       1.332100        36.2483 
 276   0.0000       1.336207        36.3600 
 277   0.0000       1.343044        36.5461 
 278   0.0000       1.352475        36.8027 
 279   0.0000       1.367049        37.1993 
 280   0.0000       1.388412        37.7806 
 281   0.0000       1.390463        37.8364 
 282   0.0000       1.395295        37.9679 
 283   0.0000       1.395636        37.9772 
 284   0.0000       1.429007        38.8853 
 285   0.0000       1.438043        39.1311 
 286   0.0000       1.439732        39.1771 
 287   0.0000       1.442858        39.2622 
 288   0.0000       1.452539        39.5256 
 289   0.0000       1.475966        40.1631 
 290   0.0000       1.482733        40.3472 
 291   0.0000       1.494201        40.6593 
 292   0.0000       1.515535        41.2398 
 293   0.0000       1.521216        41.3944 
 294   0.0000       1.534060        41.7439 
 295   0.0000       1.548974        42.1497 
 296   0.0000       1.555357        42.3234 
 297   0.0000       1.557630        42.3853 
 298   0.0000       1.567769        42.6612 
 299   0.0000       1.581869        43.0448 
 300   0.0000       1.596702        43.4485 
 301   0.0000       1.612231        43.8710 
 302   0.0000       1.629484        44.3405 
 303   0.0000       1.660719        45.1905 
 304   0.0000       1.667312        45.3699 
 305   0.0000       1.671358        45.4800 
 306   0.0000       1.701812        46.3087 
 307   0.0000       1.708539        46.4917 
 308   0.0000       1.713362        46.6229 
 309   0.0000       1.728825        47.0437 
 310   0.0000       1.739077        47.3227 
 311   0.0000       1.740563        47.3631 
 312   0.0000       1.775291        48.3081 
 313   0.0000       1.783185        48.5229 
 314   0.0000       1.785807        48.5943 
 315   0.0000       1.794116        48.8204 
 316   0.0000       1.804831        49.1119 
 317   0.0000       1.811891        49.3041 
 318   0.0000       1.832678        49.8697 
 319   0.0000       1.848577        50.3023 
 320   0.0000       1.859099        50.5887 
 321   0.0000       1.860384        50.6236 
 322   0.0000       1.868752        50.8513 
 323   0.0000       1.882895        51.2362 
 324   0.0000       1.887131        51.3515 
 325   0.0000       1.896542        51.6075 
 326   0.0000       1.900458        51.7141 
 327   0.0000       1.913029        52.0562 
 328   0.0000       1.918118        52.1947 
 329   0.0000       1.923756        52.3481 
 330   0.0000       1.925171        52.3866 
 331   0.0000       1.938088        52.7380 
 332   0.0000       1.946278        52.9609 
 333   0.0000       1.955485        53.2115 
 334   0.0000       1.964249        53.4499 
 335   0.0000       1.977030        53.7977 
 336   0.0000       1.985843        54.0375 
 337   0.0000       1.992642        54.2226 
 338   0.0000       1.998032        54.3692 
 339   0.0000       2.006588        54.6020 
 340   0.0000       2.020962        54.9932 
 341   0.0000       2.024757        55.0964 
 342   0.0000       2.035402        55.3861 
 343   0.0000       2.039163        55.4884 
 344   0.0000       2.043830        55.6154 
 345   0.0000       2.052569        55.8533 
 346   0.0000       2.062568        56.1253 
 347   0.0000       2.072795        56.4036 
 348   0.0000       2.085078        56.7379 
 349   0.0000       2.105714        57.2994 
 350   0.0000       2.111776        57.4643 
 351   0.0000       2.126420        57.8628 
 352   0.0000       2.129929        57.9583 
 353   0.0000       2.132786        58.0361 
 354   0.0000       2.138899        58.2024 
 355   0.0000       2.158496        58.7357 
 356   0.0000       2.160587        58.7926 
 357   0.0000       2.163538        58.8729 
 358   0.0000       2.173846        59.1534 
 359   0.0000       2.184357        59.4394 
 360   0.0000       2.185888        59.4810 
 361   0.0000       2.191286        59.6279 
 362   0.0000       2.212468        60.2043 
 363   0.0000       2.227144        60.6037 
 364   0.0000       2.228760        60.6476 
 365   0.0000       2.240585        60.9694 
 366   0.0000       2.242066        61.0097 
 367   0.0000       2.256129        61.3924 
 368   0.0000       2.264237        61.6130 
 369   0.0000       2.270640        61.7873 
 370   0.0000       2.287417        62.2438 
 371   0.0000       2.297383        62.5150 
 372   0.0000       2.301949        62.6392 
 373   0.0000       2.308787        62.8253 
 374   0.0000       2.317692        63.0676 
 375   0.0000       2.325175        63.2712 
 376   0.0000       2.335925        63.5638 
 377   0.0000       2.343103        63.7591 
 378   0.0000       2.360907        64.2436 
 379   0.0000       2.369070        64.4657 
 380   0.0000       2.374233        64.6062 
 381   0.0000       2.397751        65.2461 
 382   0.0000       2.400882        65.3313 
 383   0.0000       2.401313        65.3431 
 384   0.0000       2.413431        65.6728 
 385   0.0000       2.424899        65.9849 
 386   0.0000       2.435941        66.2853 
 387   0.0000       2.445008        66.5320 
 388   0.0000       2.450266        66.6751 
 389   0.0000       2.468843        67.1806 
 390   0.0000       2.483548        67.5808 
 391   0.0000       2.496362        67.9295 
 392   0.0000       2.509168        68.2779 
 393   0.0000       2.520046        68.5740 
 394   0.0000       2.524981        68.7082 
 395   0.0000       2.556398        69.5631 
 396   0.0000       2.570153        69.9374 
 397   0.0000       2.576681        70.1151 
 398   0.0000       2.586625        70.3856 
 399   0.0000       2.615287        71.1656 
 400   0.0000       2.632714        71.6398 
 401   0.0000       2.637338        71.7656 
 402   0.0000       2.642876        71.9163 
 403   0.0000       2.653029        72.1926 
 404   0.0000       2.667909        72.5975 
 405   0.0000       2.672561        72.7241 
 406   0.0000       2.702214        73.5310 
 407   0.0000       2.705152        73.6109 
 408   0.0000       2.720843        74.0379 
 409   0.0000       2.727962        74.2316 
 410   0.0000       2.751874        74.8823 
 411   0.0000       2.771870        75.4264 
 412   0.0000       2.787047        75.8394 
 413   0.0000       2.793601        76.0178 
 414   0.0000       2.805215        76.3338 
 415   0.0000       2.820054        76.7376 
 416   0.0000       2.829440        76.9930 
 417   0.0000       2.835221        77.1503 
 418   0.0000       2.854633        77.6785 
 419   0.0000       2.872976        78.1777 
 420   0.0000       2.879965        78.3678 
 421   0.0000       2.902184        78.9725 
 422   0.0000       2.923882        79.5629 
 423   0.0000       2.952581        80.3438 
 424   0.0000       2.968782        80.7847 
 425   0.0000       2.979620        81.0796 
 426   0.0000       2.989484        81.3480 
 427   0.0000       3.006607        81.8139 
 428   0.0000       3.045098        82.8613 
 429   0.0000       3.076547        83.7171 
 430   0.0000       3.113812        84.7311 
 431   0.0000       3.117895        84.8422 
 432   0.0000       3.272157        89.0399 
 433   0.0000       3.283779        89.3562 
 434   0.0000       3.305132        89.9372 
 435   0.0000       3.320276        90.3493 
 436   0.0000       3.372935        91.7822 
 437   0.0000       3.511688        95.5579 
 438   0.0000      13.256586       360.7300 
 439   0.0000      13.399725       364.6251 
 440   0.0000      13.643159       371.2492 
 441   0.0000      13.664763       371.8371 
 442   0.0000      13.729286       373.5929 
 443   0.0000      13.735846       373.7714 
 444   0.0000      13.757485       374.3602 
 445   0.0000      13.762806       374.5050 
 446   0.0000      13.818482       376.0200 
 447   0.0000      13.877638       377.6297 
 448   0.0000      13.927155       378.9772 
 449   0.0000      13.973672       380.2430 
 450   0.0000      14.007981       381.1765 
 451   0.0000      14.086216       383.3054 
 452   0.0000      14.115947       384.1144 
 453   0.0000      14.206344       386.5743 
 454   0.0000      14.212834       386.7509 
 455   0.0000      14.236664       387.3993 
 456   0.0000      14.288393       388.8070 
 457   0.0000      14.416116       392.2825 
 458   0.0000      14.519359       395.0918 
 459   0.0000      19.439491       528.9755 
 460   0.0000      25.676655       698.6973 
 461   0.0000      25.692136       699.1186 
 462   0.0000      25.740152       700.4251 
 463   0.0000      25.773154       701.3232 
 464   0.0000      25.795616       701.9344 
 465   0.0000      25.803565       702.1507 

                    ********************************
                    * MULLIKEN POPULATION ANALYSIS *
                    ********************************

-----------------------
MULLIKEN ATOMIC CHARGES
-----------------------
   0 C :    0.299694
   1 C :    0.298164
   2 C :   -0.397157
   3 C :    0.183502
   4 C :    0.066223
   5 C :   -0.379326
   6 C :   -0.488107
   7 C :   -0.077355
   8 C :   -0.368492
   9 C :    0.260065
  10 C :   -0.433896
  11 C :    0.352361
  12 C :    0.253550
  13 C :   -0.198329
  14 N :   -0.498376
  15 C :   -0.319175
  16 C :   -0.503655
  17 O :   -0.382655
  18 O :   -0.477549
  19 C :   -0.396739
  20 C :    0.764166
  21 O :   -0.501882
  22 C :   -0.150104
  23 C :   -0.665780
  24 O :   -0.502305
  25 C :   -0.400339
  26 O :   -0.611441
  27 O :   -0.456687
  28 H :    0.445992
  29 H :    0.234657
  30 H :    0.253569
  31 H :    0.221132
  32 H :    0.246790
  33 H :    0.199453
  34 H :    0.252988
  35 H :    0.250009
  36 H :    0.270991
  37 H :    0.259177
  38 H :    0.298651
  39 H :    0.252987
  40 H :    0.252934
  41 H :    0.249638
  42 H :    0.235682
  43 H :    0.213618
  44 H :    0.245756
  45 H :    0.223139
  46 H :    0.226583
  47 H :    0.222874
  48 H :    0.226295
  49 H :    0.221514
  50 H :    0.227191
Sum of atomic charges:   -0.0000000

--------------------------------
MULLIKEN REDUCED ORBITAL CHARGES
--------------------------------
  0 C s       :     3.082835  s :     3.082835
      pz      :     0.923902  p :     2.543561
      px      :     0.767424
      py      :     0.852235
      dz2     :     0.011088  d :     0.073910
      dxz     :     0.015746
      dyz     :     0.009864
      dx2y2   :     0.018591
      dxy     :     0.018621
  1 C s       :     3.074588  s :     3.074588
      pz      :     0.862769  p :     2.555307
      px      :     0.777712
      py      :     0.914826
      dz2     :     0.012501  d :     0.071941
      dxz     :     0.018136
      dyz     :     0.009576
      dx2y2   :     0.017275
      dxy     :     0.014453
  2 C s       :     3.298083  s :     3.298083
      pz      :     1.077904  p :     3.060626
      px      :     0.942541
      py      :     1.040180
      dz2     :     0.005295  d :     0.038448
      dxz     :     0.007732
      dyz     :     0.007858
      dx2y2   :     0.008840
      dxy     :     0.008723
  3 C s       :     3.135969  s :     3.135969
      pz      :     0.909879  p :     2.635228
      px      :     0.830620
      py      :     0.894728
      dz2     :     0.009132  d :     0.045301
      dxz     :     0.008805
      dyz     :     0.007233
      dx2y2   :     0.010360
      dxy     :     0.009771
  4 C s       :     3.192773  s :     3.192773
      pz      :     0.927180  p :     2.694448
      px      :     0.859531
      py      :     0.907737
      dz2     :     0.008091  d :     0.046556
      dxz     :     0.009791
      dyz     :     0.007282
      dx2y2   :     0.011964
      dxy     :     0.009428
  5 C s       :     3.321654  s :     3.321654
      pz      :     1.026883  p :     3.020113
      px      :     0.945241
      py      :     1.047990
      dz2     :     0.004781  d :     0.037559
      dxz     :     0.008590
      dyz     :     0.007355
      dx2y2   :     0.008780
      dxy     :     0.008052
  6 C s       :     3.367971  s :     3.367971
      pz      :     1.058975  p :     3.078874
      px      :     0.915538
      py      :     1.104361
      dz2     :     0.011000  d :     0.041262
      dxz     :     0.008177
      dyz     :     0.005274
      dx2y2   :     0.008749
      dxy     :     0.008062
  7 C s       :     3.250170  s :     3.250170
      pz      :     0.934167  p :     2.768265
      px      :     0.925684
      py      :     0.908414
      dz2     :     0.005945  d :     0.058919
      dxz     :     0.016874
      dyz     :     0.012959
      dx2y2   :     0.006326
      dxy     :     0.016814
  8 C s       :     3.373253  s :     3.373253
      pz      :     0.982774  p :     2.942763
      px      :     0.939345
      py      :     1.020644
      dz2     :     0.010428  d :     0.052477
      dxz     :     0.010092
      dyz     :     0.011105
      dx2y2   :     0.009939
      dxy     :     0.010913
  9 C s       :     3.141677  s :     3.141677
      pz      :     0.849701  p :     2.552922
      px      :     0.866873
      py      :     0.836347
      dz2     :     0.009756  d :     0.045336
      dxz     :     0.005657
      dyz     :     0.012894
      dx2y2   :     0.007701
      dxy     :     0.009327
 10 C s       :     3.359360  s :     3.359360
      pz      :     1.070628  p :     3.038684
      px      :     1.043636
      py      :     0.924420
      dz2     :     0.008461  d :     0.035852
      dxz     :     0.004404
      dyz     :     0.009985
      dx2y2   :     0.006933
      dxy     :     0.006070
 11 C s       :     3.102014  s :     3.102014
      pz      :     0.821809  p :     2.448730
      px      :     0.783629
      py      :     0.843292
      dz2     :     0.024301  d :     0.096896
      dxz     :     0.009116
      dyz     :     0.027626
      dx2y2   :     0.017922
      dxy     :     0.017930
 12 C s       :     3.119831  s :     3.119831
      pz      :     0.828633  p :     2.553201
      px      :     0.980182
      py      :     0.744386
      dz2     :     0.017401  d :     0.073418
      dxz     :     0.006295
      dyz     :     0.021966
      dx2y2   :     0.011830
      dxy     :     0.015927
 13 C s       :     3.260244  s :     3.260244
      pz      :     0.999654  p :     2.900797
      px      :     1.007726
      py      :     0.893417
      dz2     :     0.008892  d :     0.037288
      dxz     :     0.004317
      dyz     :     0.009626
      dx2y2   :     0.006537
      dxy     :     0.007915
 14 N s       :     3.544940  s :     3.544940
      pz      :     1.304188  p :     3.913971
      px      :     1.101157
      py      :     1.508625
      dz2     :     0.008754  d :     0.039465
      dxz     :     0.008519
      dyz     :     0.005746
      dx2y2   :     0.007568
      dxy     :     0.008878
 15 C s       :     3.300314  s :     3.300314
      pz      :     0.846324  p :     2.963127
      px      :     1.109079
      py      :     1.007725
      dz2     :     0.011753  d :     0.055733
      dxz     :     0.011469
      dyz     :     0.014634
      dx2y2   :     0.004812
      dxy     :     0.013066
 16 C s       :     3.367935  s :     3.367935
      pz      :     1.028618  p :     3.094623
      px      :     1.153104
      py      :     0.912901
      dz2     :     0.002948  d :     0.041097
      dxz     :     0.012679
      dyz     :     0.010212
      dx2y2   :     0.009484
      dxy     :     0.005773
 17 O s       :     3.777363  s :     3.777363
      pz      :     1.680995  p :     4.576168
      px      :     1.403909
      py      :     1.491264
      dz2     :     0.004136  d :     0.029124
      dxz     :     0.002361
      dyz     :     0.008223
      dx2y2   :     0.006015
      dxy     :     0.008389
 18 O s       :     3.798756  s :     3.798756
      pz      :     1.729023  p :     4.647154
      px      :     1.571134
      py      :     1.346998
      dz2     :     0.004496  d :     0.031639
      dxz     :     0.004068
      dyz     :     0.006632
      dx2y2   :     0.006342
      dxy     :     0.010102
 19 C s       :     3.352430  s :     3.352430
      pz      :     1.151767  p :     2.986373
      px      :     0.903515
      py      :     0.931091
      dz2     :     0.007392  d :     0.057936
      dxz     :     0.010795
      dyz     :     0.013612
      dx2y2   :     0.009166
      dxy     :     0.016971
 20 C s       :     2.818846  s :     2.818846
      pz      :     0.761267  p :     2.263204
      px      :     0.725295
      py      :     0.776642
      dz2     :     0.037967  d :     0.153785
      dxz     :     0.039556
      dyz     :     0.022203
      dx2y2   :     0.025691
      dxy     :     0.028367
 21 O s       :     3.804351  s :     3.804351
      pz      :     1.604673  p :     4.667566
      px      :     1.318109
      py      :     1.744784
      dz2     :     0.006705  d :     0.029964
      dxz     :     0.007265
      dyz     :     0.005348
      dx2y2   :     0.005590
      dxy     :     0.005056
 22 C s       :     3.277450  s :     3.277450
      pz      :     1.044063  p :     2.809331
      px      :     0.651583
      py      :     1.113685
      dz2     :     0.013879  d :     0.063324
      dxz     :     0.011557
      dyz     :     0.007506
      dx2y2   :     0.019825
      dxy     :     0.010557
 23 C s       :     3.391867  s :     3.391867
      pz      :     1.019312  p :     3.238232
      px      :     1.107062
      py      :     1.111857
      dz2     :     0.010159  d :     0.035682
      dxz     :     0.004441
      dyz     :     0.006859
      dx2y2   :     0.011492
      dxy     :     0.002731
 24 O s       :     3.791776  s :     3.791776
      pz      :     1.531339  p :     4.679109
      px      :     1.560361
      py      :     1.587409
      dz2     :     0.004813  d :     0.031420
      dxz     :     0.007489
      dyz     :     0.006099
      dx2y2   :     0.008050
      dxy     :     0.004968
 25 C s       :     3.344132  s :     3.344132
      pz      :     0.940491  p :     2.997030
      px      :     1.176918
      py      :     0.879621
      dz2     :     0.007699  d :     0.059176
      dxz     :     0.014155
      dyz     :     0.017005
      dx2y2   :     0.016579
      dxy     :     0.003738
 26 O s       :     3.809094  s :     3.809094
      pz      :     1.707254  p :     4.771199
      px      :     1.359421
      py      :     1.704524
      dz2     :     0.003693  d :     0.031148
      dxz     :     0.008356
      dyz     :     0.005842
      dx2y2   :     0.003857
      dxy     :     0.009401
 27 O s       :     3.767484  s :     3.767484
      pz      :     1.476285  p :     4.658547
      px      :     1.701770
      py      :     1.480492
      dz2     :     0.008615  d :     0.030656
      dxz     :     0.006547
      dyz     :     0.007343
      dx2y2   :     0.004190
      dxy     :     0.003961
 28 H s       :     0.554008  s :     0.554008
 29 H s       :     0.765343  s :     0.765343
 30 H s       :     0.746431  s :     0.746431
 31 H s       :     0.778868  s :     0.778868
 32 H s       :     0.753210  s :     0.753210
 33 H s       :     0.800547  s :     0.800547
 34 H s       :     0.747012  s :     0.747012
 35 H s       :     0.749991  s :     0.749991
 36 H s       :     0.729009  s :     0.729009
 37 H s       :     0.740823  s :     0.740823
 38 H s       :     0.701349  s :     0.701349
 39 H s       :     0.747013  s :     0.747013
 40 H s       :     0.747066  s :     0.747066
 41 H s       :     0.750362  s :     0.750362
 42 H s       :     0.764318  s :     0.764318
 43 H s       :     0.786382  s :     0.786382
 44 H s       :     0.754244  s :     0.754244
 45 H s       :     0.776861  s :     0.776861
 46 H s       :     0.773417  s :     0.773417
 47 H s       :     0.777126  s :     0.777126
 48 H s       :     0.773705  s :     0.773705
 49 H s       :     0.778486  s :     0.778486
 50 H s       :     0.772809  s :     0.772809


                     *******************************
                     * LOEWDIN POPULATION ANALYSIS *
                     *******************************

----------------------
LOEWDIN ATOMIC CHARGES
----------------------
   0 C :    0.059405
   1 C :    0.032928
   2 C :   -0.168007
   3 C :   -0.044400
   4 C :   -0.055957
   5 C :   -0.156560
   6 C :   -0.223298
   7 C :   -0.014040
   8 C :   -0.062987
   9 C :    0.006771
  10 C :   -0.178505
  11 C :    0.092103
  12 C :    0.014872
  13 C :   -0.109360
  14 N :   -0.137316
  15 C :   -0.138110
  16 C :   -0.236205
  17 O :   -0.218021
  18 O :   -0.205811
  19 C :   -0.176214
  20 C :    0.174575
  21 O :   -0.207361
  22 C :   -0.070454
  23 C :   -0.371420
  24 O :   -0.211470
  25 C :   -0.173963
  26 O :   -0.314534
  27 O :   -0.275480
  28 H :    0.332390
  29 H :    0.148716
  30 H :    0.153751
  31 H :    0.125660
  32 H :    0.132089
  33 H :    0.112072
  34 H :    0.150011
  35 H :    0.144493
  36 H :    0.146773
  37 H :    0.137953
  38 H :    0.159399
  39 H :    0.146066
  40 H :    0.145493
  41 H :    0.151070
  42 H :    0.150570
  43 H :    0.118622
  44 H :    0.134822
  45 H :    0.123294
  46 H :    0.126432
  47 H :    0.124655
  48 H :    0.134074
  49 H :    0.136031
  50 H :    0.134386

-------------------------------
LOEWDIN REDUCED ORBITAL CHARGES
-------------------------------
  0 C s       :     2.831673  s :     2.831673
      pz      :     1.028543  p :     2.938364
      px      :     0.932136
      py      :     0.977686
      dz2     :     0.024379  d :     0.170558
[...]
      dz2     :     0.011841  d :     0.087737
      dxz     :     0.018763
      dyz     :     0.014344
      dx2y2   :     0.021234
      dxy     :     0.021556
  3 C s       :     2.840809  s :     2.840809
      pz      :     1.046119  p :     3.092675
      px      :     1.018412
      py      :     1.028144
      dz2     :     0.020974  d :     0.110916
      dxz     :     0.021911
      dyz     :     0.018114
      dx2y2   :     0.025810
      dxy     :     0.024107
  4 C s       :     2.844428  s :     2.844428
      pz      :     1.019306  p :     3.098600
      px      :     1.044049
      py      :     1.035246
      dz2     :     0.018118  d :     0.112929
      dxz     :     0.024129
      dyz     :     0.017583
      dx2y2   :     0.029402
      dxy     :     0.023697
  5 C s       :     2.888906  s :     2.888906
      pz      :     1.058113  p :     3.182372
      px      :     1.056342
      py      :     1.067917
      dz2     :     0.010091  d :     0.085282
      dxz     :     0.021267
      dyz     :     0.013435
      dx2y2   :     0.020924
      dxy     :     0.019565
  6 C s       :     2.911479  s :     2.911479
      pz      :     1.091722  p :     3.226948
      px      :     1.036790
      py      :     1.098436
      dz2     :     0.020828  d :     0.084871
      dxz     :     0.019094
      dyz     :     0.009833
      dx2y2   :     0.017553
      dxy     :     0.017563
  7 C s       :     2.878689  s :     2.878689
      pz      :     1.011827  p :     3.009227
      px      :     0.997292
      py      :     1.000108
      dz2     :     0.011966  d :     0.126124
      dxz     :     0.036912
      dyz     :     0.027042
      dx2y2   :     0.012244
      dxy     :     0.037960
  8 C s       :     2.833389  s :     2.833389
      pz      :     1.044906  p :     3.107638
      px      :     1.024931
      py      :     1.037802
      dz2     :     0.024196  d :     0.121960
      dxz     :     0.023252
      dyz     :     0.026364
      dx2y2   :     0.022383
      dxy     :     0.025765
  9 C s       :     2.863473  s :     2.863473
      pz      :     1.026006  p :     3.021576
      px      :     0.909262
      py      :     1.086308
      dz2     :     0.024226  d :     0.108181
      dxz     :     0.012501
      dyz     :     0.032583
      dx2y2   :     0.019158
      dxy     :     0.019713
 10 C s       :     2.912602  s :     2.912602
      pz      :     1.074566  p :     3.182641
      px      :     1.041110
      py      :     1.066965
      dz2     :     0.018304  d :     0.083261
      dxz     :     0.007463
      dyz     :     0.025990
      dx2y2   :     0.017836
      dxy     :     0.013669
 11 C s       :     2.859017  s :     2.859017
      pz      :     1.002673  p :     2.827730
      px      :     0.803566
      py      :     1.021491
      dz2     :     0.057851  d :     0.221149
      dxz     :     0.019243
      dyz     :     0.064851
      dx2y2   :     0.043289
      dxy     :     0.035915
 12 C s       :     2.849795  s :     2.849795
      pz      :     1.009865  p :     2.963639
      px      :     0.993064
      py      :     0.960710
      dz2     :     0.041502  d :     0.171693
      dxz     :     0.014325
      dyz     :     0.052381
      dx2y2   :     0.030035
      dxy     :     0.033450
 13 C s       :     2.907322  s :     2.907322
      pz      :     1.064203  p :     3.117391
      px      :     0.997187
      py      :     1.056002
      dz2     :     0.018844  d :     0.084647
      dxz     :     0.007134
      dyz     :     0.025220
      dx2y2   :     0.016666
      dxy     :     0.016783
 14 N s       :     3.081249  s :     3.081249
      pz      :     1.310390  p :     3.958040
      px      :     1.162159
      py      :     1.485491
      dz2     :     0.021382  d :     0.098027
      dxz     :     0.023854
      dyz     :     0.012329
      dx2y2   :     0.019717
      dxy     :     0.020745
 15 C s       :     2.903609  s :     2.903609
      pz      :     0.957258  p :     3.120118
      px      :     1.095346
      py      :     1.067514
      dz2     :     0.024890  d :     0.114384
      dxz     :     0.023076
      dyz     :     0.033131
      dx2y2   :     0.008873
      dxy     :     0.024414
 16 C s       :     2.912963  s :     2.912963
      pz      :     1.082330  p :     3.238900
      px      :     1.115158
      py      :     1.041412
      dz2     :     0.006598  d :     0.084343
      dxz     :     0.022759
      dyz     :     0.024468
      dx2y2   :     0.018918
      dxy     :     0.011600
 17 O s       :     3.528930  s :     3.528930
      pz      :     1.685571  p :     4.634044
      px      :     1.398082
      py      :     1.550391
      dz2     :     0.008081  d :     0.055047
      dxz     :     0.003550
      dyz     :     0.017931
      dx2y2   :     0.013793
      dxy     :     0.011693
 18 O s       :     3.440265  s :     3.440265
      pz      :     1.725317  p :     4.696824
      px      :     1.594702
      py      :     1.376804
      dz2     :     0.008555  d :     0.068722
      dxz     :     0.007746
      dyz     :     0.015766
      dx2y2   :     0.014643
      dxy     :     0.022013
 19 C s       :     2.969271  s :     2.969271
      pz      :     1.147111  p :     3.094516
      px      :     0.968346
      py      :     0.979059
      dz2     :     0.013855  d :     0.112427
      dxz     :     0.020061
      dyz     :     0.024471
      dx2y2   :     0.018935
      dxy     :     0.035104
 20 C s       :     2.785527  s :     2.785527
      pz      :     0.918651  p :     2.697043
      px      :     0.927674
      py      :     0.850718
      dz2     :     0.083873  d :     0.342856
      dxz     :     0.088139
      dyz     :     0.051532
      dx2y2   :     0.057555
      dxy     :     0.061758
 21 O s       :     3.455445  s :     3.455445
      pz      :     1.607994  p :     4.686908
      px      :     1.347030
      py      :     1.731884
      dz2     :     0.012661  d :     0.065009
      dxz     :     0.018145
      dyz     :     0.009088
      dx2y2   :     0.012853
      dxy     :     0.012262
 22 C s       :     2.920720  s :     2.920720
      pz      :     1.109170  p :     3.018233
      px      :     0.783165
      py      :     1.125898
      dz2     :     0.028001  d :     0.131501
      dxz     :     0.025633
      dyz     :     0.014128
      dx2y2   :     0.041213
      dxy     :     0.022526
 23 C s       :     2.960326  s :     2.960326
      pz      :     1.095936  p :     3.344557
      px      :     1.120366
      py      :     1.128256
      dz2     :     0.019576  d :     0.066537
      dxz     :     0.008922
      dyz     :     0.013690
      dx2y2   :     0.019644
      dxy     :     0.004706
 24 O s       :     3.431722  s :     3.431722
      pz      :     1.541238  p :     4.709973
      px      :     1.570383
      py      :     1.598352
      dz2     :     0.011926  d :     0.069775
      dxz     :     0.016715
      dyz     :     0.013850
      dx2y2   :     0.016122
      dxy     :     0.011161
 25 C s       :     2.963004  s :     2.963004
      pz      :     0.992052  p :     3.094559
      px      :     1.150984
      py      :     0.951523
      dz2     :     0.015406  d :     0.116400
      dxz     :     0.026269
      dyz     :     0.035080
      dx2y2   :     0.032196
      dxy     :     0.007448
 26 O s       :     3.489318  s :     3.489318
      pz      :     1.693637  p :     4.770970
      px      :     1.368484
      py      :     1.708848
      dz2     :     0.005940  d :     0.054246
      dxz     :     0.015086
      dyz     :     0.006967
      dx2y2   :     0.008785
      dxy     :     0.017467
 27 O s       :     3.524883  s :     3.524883
      pz      :     1.514198  p :     4.695354
      px      :     1.690170
      py      :     1.490987
      dz2     :     0.013328  d :     0.055243
      dxz     :     0.013234
      dyz     :     0.015130
      dx2y2   :     0.006166
      dxy     :     0.007385
 28 H s       :     0.667610  s :     0.667610
 29 H s       :     0.851284  s :     0.851284
 30 H s       :     0.846249  s :     0.846249
 31 H s       :     0.874340  s :     0.874340
 32 H s       :     0.867911  s :     0.867911
 33 H s       :     0.887928  s :     0.887928
 34 H s       :     0.849989  s :     0.849989
 35 H s       :     0.855507  s :     0.855507
 36 H s       :     0.853227  s :     0.853227
 37 H s       :     0.862047  s :     0.862047
 38 H s       :     0.840601  s :     0.840601
 39 H s       :     0.853934  s :     0.853934
 40 H s       :     0.854507  s :     0.854507
 41 H s       :     0.848930  s :     0.848930
 42 H s       :     0.849430  s :     0.849430
 43 H s       :     0.881378  s :     0.881378
 44 H s       :     0.865178  s :     0.865178
 45 H s       :     0.876706  s :     0.876706
 46 H s       :     0.873568  s :     0.873568
 47 H s       :     0.875345  s :     0.875345
 48 H s       :     0.865926  s :     0.865926
 49 H s       :     0.863969  s :     0.863969
 50 H s       :     0.865614  s :     0.865614


                      *****************************
                      * MAYER POPULATION ANALYSIS *
                      *****************************

  NA   - Mulliken gross atomic population
  ZA   - Total nuclear charge
  QA   - Mulliken gross atomic charge
  VA   - Mayer's total valence
  BVA  - Mayer's bonded valence
  FA   - Mayer's free valence

  ATOM       NA         ZA         QA         VA         BVA        FA
  0 C      5.7003     6.0000     0.2997     3.8588     3.8588    -0.0000
  1 C      5.7018     6.0000     0.2982     3.6845     3.6845     0.0000
  2 C      6.3972     6.0000    -0.3972     3.7321     3.7321    -0.0000
  3 C      5.8165     6.0000     0.1835     3.6098     3.6098    -0.0000
  4 C      5.9338     6.0000     0.0662     3.7409     3.7409     0.0000
  5 C      6.3793     6.0000    -0.3793     3.8002     3.8002    -0.0000
  6 C      6.4881     6.0000    -0.4881     3.6533     3.6533     0.0000
  7 C      6.0774     6.0000    -0.0774     3.6111     3.6111    -0.0000
  8 C      6.3685     6.0000    -0.3685     3.8490     3.8490    -0.0000
  9 C      5.7399     6.0000     0.2601     3.5530     3.5530    -0.0000
 10 C      6.4339     6.0000    -0.4339     3.7500     3.7500    -0.0000
 11 C      5.6476     6.0000     0.3524     3.9650     3.9650    -0.0000
 12 C      5.7464     6.0000     0.2536     3.7367     3.7367     0.0000
 13 C      6.1983     6.0000    -0.1983     3.6848     3.6848     0.0000
 14 N      7.4984     7.0000    -0.4984     3.0756     3.0756    -0.0000
 15 C      6.3192     6.0000    -0.3192     3.6640     3.6640    -0.0000
 16 C      6.5037     6.0000    -0.5037     3.6716     3.6716    -0.0000
 17 O      8.3827     8.0000    -0.3827     2.1967     2.1967    -0.0000
 18 O      8.4775     8.0000    -0.4775     2.0432     2.0432    -0.0000
 19 C      6.3967     6.0000    -0.3967     3.6579     3.6579    -0.0000
 20 C      5.2358     6.0000     0.7642     4.0600     4.0600     0.0000
 21 O      8.5019     8.0000    -0.5019     2.0575     2.0575     0.0000
 22 C      6.1501     6.0000    -0.1501     3.6871     3.6871     0.0000
 23 C      6.6658     6.0000    -0.6658     3.7406     3.7406    -0.0000
 24 O      8.5023     8.0000    -0.5023     2.0735     2.0735    -0.0000
 25 C      6.4003     6.0000    -0.4003     3.6723     3.6723    -0.0000
 26 O      8.6114     8.0000    -0.6114     1.9746     1.9746    -0.0000
 27 O      8.4567     8.0000    -0.4567     2.1660     2.1660    -0.0000
 28 H      0.5540     1.0000     0.4460     0.7933     0.7933    -0.0000
 29 H      0.7653     1.0000     0.2347     0.9179     0.9179    -0.0000
 30 H      0.7464     1.0000     0.2536     0.9047     0.9047    -0.0000
 31 H      0.7789     1.0000     0.2211     0.9152     0.9152    -0.0000
 32 H      0.7532     1.0000     0.2468     0.9060     0.9060     0.0000
 33 H      0.8005     1.0000     0.1995     0.9135     0.9135    -0.0000
 34 H      0.7470     1.0000     0.2530     0.8953     0.8953    -0.0000
 35 H      0.7500     1.0000     0.2500     0.9031     0.9031    -0.0000
 36 H      0.7290     1.0000     0.2710     0.9068     0.9068    -0.0000
 37 H      0.7408     1.0000     0.2592     0.8891     0.8891     0.0000
 38 H      0.7013     1.0000     0.2987     0.8986     0.8986     0.0000
 39 H      0.7470     1.0000     0.2530     0.8963     0.8963    -0.0000
 40 H      0.7471     1.0000     0.2529     0.9004     0.9004    -0.0000
 41 H      0.7504     1.0000     0.2496     0.9102     0.9102    -0.0000
 42 H      0.7643     1.0000     0.2357     0.9135     0.9135    -0.0000
 43 H      0.7864     1.0000     0.2136     0.9087     0.9087    -0.0000
 44 H      0.7542     1.0000     0.2458     0.9079     0.9079    -0.0000
 45 H      0.7769     1.0000     0.2231     0.9058     0.9058    -0.0000
 46 H      0.7734     1.0000     0.2266     0.9023     0.9023     0.0000
 47 H      0.7771     1.0000     0.2229     0.9029     0.9029    -0.0000
 48 H      0.7737     1.0000     0.2263     0.9111     0.9111    -0.0000
 49 H      0.7785     1.0000     0.2215     0.9117     0.9117    -0.0000
 50 H      0.7728     1.0000     0.2272     0.9107     0.9107     0.0000

  Mayer bond orders larger than 0.100000
B(  0-C ,  1-C ) :   1.2682 B(  0-C ,  5-C ) :   1.4267 B(  0-C , 26-O ) :   1.1022 
B(  1-C ,  2-C ) :   1.3605 B(  1-C , 24-O ) :   1.0093 B(  2-C ,  3-C ) :   1.3560 
B(  2-C , 41-H ) :   0.9003 B(  3-C ,  4-C ) :   1.4098 B(  3-C ,  8-C ) :   0.9007 
B(  4-C ,  5-C ) :   1.3591 B(  4-C ,  6-C ) :   0.9513 B(  5-C , 42-H ) :   0.9150 
B(  6-C ,  7-C ) :   0.9439 B(  6-C , 39-H ) :   0.9038 B(  6-C , 40-H ) :   0.9094 
B(  7-C ,  8-C ) :   0.9062 B(  7-C , 14-N ) :   0.9555 B(  7-C , 38-H ) :   0.8795 
B(  8-C ,  9-C ) :   1.0047 B(  8-C , 13-C ) :   1.0130 B(  9-C , 10-C ) :   1.6973 
B(  9-C , 16-C ) :   0.9521 B( 10-C , 11-C ) :   1.0387 B( 10-C , 29-H ) :   0.9178 
B( 11-C , 12-C ) :   0.9597 B( 11-C , 17-O ) :   1.9600 B( 12-C , 13-C ) :   1.7299 
B( 12-C , 18-O ) :   1.0179 B( 13-C , 30-H ) :   0.8989 B( 14-N , 15-C ) :   0.9516 
B( 14-N , 20-C ) :   1.0889 B( 15-C , 16-C ) :   0.9436 B( 15-C , 36-H ) :   0.9065 
B( 15-C , 37-H ) :   0.8953 B( 16-C , 34-H ) :   0.8969 B( 16-C , 35-H ) :   0.9149 
B( 18-O , 19-C ) :   0.9158 B( 19-C , 31-H ) :   0.9285 B( 19-C , 32-H ) :   0.8910 
B( 19-C , 33-H ) :   0.9152 B( 20-C , 21-O ) :   1.0525 B( 20-C , 27-O ) :   1.9084 
B( 21-O , 22-C ) :   0.8656 B( 22-C , 23-C ) :   0.9919 B( 22-C , 46-H ) :   0.9048 
B( 22-C , 47-H ) :   0.9068 B( 23-C , 48-H ) :   0.9223 B( 23-C , 49-H ) :   0.9211 
B( 23-C , 50-H ) :   0.9219 B( 24-O , 25-C ) :   0.9229 B( 25-C , 43-H ) :   0.9072 
B( 25-C , 44-H ) :   0.9208 B( 25-C , 45-H ) :   0.9047 B( 26-O , 28-H ) :   0.7501 


-------
TIMINGS
-------

Total SCF time: 0 days 0 hours 9 min 45 sec 

Total time                  ....     585.380 sec
Sum of individual times     ....     577.381 sec  ( 98.6%)

Fock matrix formation       ....     539.428 sec  ( 92.1%)
  Split-RI-J                ....      33.505 sec  (  6.2% of F)
  Chain of spheres X        ....     432.960 sec  ( 80.3% of F)
  XC integration            ....      61.073 sec  ( 11.3% of F)
    Basis function eval.    ....      19.639 sec  ( 32.2% of XC)
    Density eval.           ....      13.317 sec  ( 21.8% of XC)
    XC-Functional eval.     ....       3.773 sec  (  6.2% of XC)
    XC-Potential eval.      ....       7.353 sec  ( 12.0% of XC)
Diagonalization             ....       2.042 sec  (  0.3%)
Density matrix formation    ....       0.351 sec  (  0.1%)
Population analysis         ....       1.074 sec  (  0.2%)
Initial guess               ....       0.324 sec  (  0.1%)
Orbital Transformation      ....       0.000 sec  (  0.0%)
Orbital Orthonormalization  ....       0.000 sec  (  0.0%)
DIIS solution               ....       3.508 sec  (  0.6%)
SOSCF solution              ....       1.769 sec  (  0.3%)
Grid generation             ....      28.885 sec  (  4.9%)

Maximum memory used throughout the entire SCF-calculation: 171.3 MB


-------------------------------------------------------------------------------
                          DFT DISPERSION CORRECTION                            
                                                                               
                              DFTD3 V3.1  Rev 1                                
                          USING Becke-Johnson damping                          
-------------------------------------------------------------------------------
The PBEh-3c composite method is recognized
Using three-body term ABC
Active option DFTDOPT                   ...         4   

molecular C6(AA) [au] = 26327.999363 


            DFT-D V3
 parameters
 s6 scaling factor         :     1.0000 
 a1 scaling factor         :     0.4860 
 s8 scaling factor         :     0.0000 
 a2 scaling factor         :     4.5000 
 Damping factor alpha9(ATM):    16.0000 
 ad hoc parameters k1-k3   :    16.0000     1.3333    -4.0000 

 Edisp/kcal,au: -24.768931340849  -0.039471800383 
 E6   /kcal   : -25.098821399 
 E8   /kcal   :  -0.000000000 
 E6(ABC)      :   0.329890059 
 % E8         :   0.000000000 
 % E6(ABC)    :  -1.331870374 

-------------------------   ----------------
Dispersion correction           -0.039471800
-------------------------   ----------------

------------------   -----------------
gCP correction             0.116090568
------------------   -----------------

-------------------------   --------------------
FINAL SINGLE POINT ENERGY     -1317.328703668983
-------------------------   --------------------


                            ***************************************
                            *     ORCA property calculations      *
                            ***************************************

                                    ---------------------
                                    Active property flags
                                    ---------------------
   (+) Dipole Moment


------------------------------------------------------------------------------
                       ORCA ELECTRIC PROPERTIES CALCULATION
------------------------------------------------------------------------------

Dipole Moment Calculation                       ... on
Quadrupole Moment Calculation                   ... off
Polarizability Calculation                      ... off
GBWName                                         ... pbeh-3c.gbw
Electron density                                ... pbeh-3c.scfp
The origin for moment calculation is the CENTER OF MASS  = (-0.443037,  0.154941 -0.250666)

-------------
DIPOLE MOMENT
-------------
                                X             Y             Z
Electronic contribution:    -12.17191       2.51720      -5.80548
Nuclear contribution   :     11.92941      -3.64304       6.74927
                        -----------------------------------------
Total Dipole Moment    :     -0.24250      -1.12583       0.94379
                        -----------------------------------------
Magnitude (a.u.)       :      1.48897
Magnitude (Debye)      :      3.78467



--------------------
Rotational spectrum 
--------------------
 
Rotational constants in cm-1:     0.007267     0.004405     0.003353 
Rotational constants in MHz :   217.872139   132.058398   100.512462 

 Dipole components along the rotational axes: 
x,y,z [a.u.] :    -0.242494    -1.125833     0.943790 
x,y,z [Debye]:    -0.616371    -2.861641     2.398923 

 

Timings for individual modules:

Sum of individual times         ...      590.756 sec (=   9.846 min)
GTO integral calculation        ...        4.397 sec (=   0.073 min)   0.7 %
SCF iterations                  ...      586.360 sec (=   9.773 min)  99.3 %
                             ****ORCA TERMINATED NORMALLY****
TOTAL RUN TIME: 0 days 0 hours 9 minutes 53 seconds 577 msec
