
                                 *****************
                                 * O   R   C   A *
                                 *****************

                                            #,                                       
                                            ###                                      
                                            ####                                     
                                            #####                                    
                                            ######                                   
                                           ########,                                 
                                     ,,################,,,,,                         
                               ,,#################################,,                 
                          ,,##########################################,,             
                       ,#########################################, ''#####,          
                    ,#############################################,,   '####,        
                  ,##################################################,,,,####,       
                ,###########''''           ''''###############################       
              ,#####''   ,,,,##########,,,,          '''####'''          '####       
            ,##' ,,,,###########################,,,                        '##       
           ' ,,###''''                  '''############,,,                           
         ,,##''                                '''############,,,,        ,,,,,,###''
      ,#''                                            '''#######################'''  
     '                                                          ''''####''''         
             ,#######,   #######,   ,#######,      ##                                
            ,#'     '#,  ##    ##  ,#'     '#,    #''#        ######   ,####,        
            ##       ##  ##   ,#'  ##            #'  '#       #        #'  '#        
            ##       ##  #######   ##           ,######,      #####,   #    #        
            '#,     ,#'  ##    ##  '#,     ,#' ,#      #,         ##   #,  ,#        
             '#######'   ##     ##  '#######'  #'      '#     #####' # '####'        



                  #######################################################
                  #                        -***-                        #
                  #          Department of theory and spectroscopy      #
                  #    Directorship and core code : Frank Neese         #
                  #        Max Planck Institute fuer Kohlenforschung    #
                  #                Kaiser Wilhelm Platz 1               #
                  #                 D-45470 Muelheim/Ruhr               #
                  #                      Germany                        #
                  #                                                     #
                  #                  All rights reserved                #
                  #                        -***-                        #
                  #######################################################


                         Program Version 5.0.3 -  RELEASE  -


 With contributions from (in alphabetic order):
   Daniel Aravena         : Magnetic Suceptibility
   Michael Atanasov       : Ab Initio Ligand Field Theory (pilot matlab implementation)
   Alexander A. Auer      : GIAO ZORA, VPT2 properties, NMR spectrum
   Ute Becker             : Parallelization
   Giovanni Bistoni       : ED, misc. LED, open-shell LED, HFLD
   Martin Brehm           : Molecular dynamics
   Dmytro Bykov           : SCF Hessian
   Vijay G. Chilkuri      : MRCI spin determinant printing, contributions to CSF-ICE
   Dipayan Datta          : RHF DLPNO-CCSD density
   Achintya Kumar Dutta   : EOM-CC, STEOM-CC
   Dmitry Ganyushin       : Spin-Orbit,Spin-Spin,Magnetic field MRCI
   Miquel Garcia          : C-PCM and meta-GGA Hessian, CC/C-PCM, Gaussian charge scheme
   Yang Guo               : DLPNO-NEVPT2, F12-NEVPT2, CIM, IAO-localization
   Andreas Hansen         : Spin unrestricted coupled pair/coupled cluster methods
   Benjamin Helmich-Paris : MC-RPA, TRAH-SCF, COSX integrals
   Lee Huntington         : MR-EOM, pCC
   Robert Izsak           : Overlap fitted RIJCOSX, COSX-SCS-MP3, EOM
   Marcus Kettner         : VPT2
   Christian Kollmar      : KDIIS, OOCD, Brueckner-CCSD(T), CCSD density, CASPT2, CASPT2-K
   Simone Kossmann        : Meta GGA functionals, TD-DFT gradient, OOMP2, MP2 Hessian
   Martin Krupicka        : Initial AUTO-CI
   Lucas Lang             : DCDCAS
   Marvin Lechner         : AUTO-CI (C++ implementation), FIC-MRCC
   Dagmar Lenk            : GEPOL surface, SMD
   Dimitrios Liakos       : Extrapolation schemes; Compound Job, initial MDCI parallelization
   Dimitrios Manganas     : Further ROCIS development; embedding schemes
   Dimitrios Pantazis     : SARC Basis sets
   Anastasios Papadopoulos: AUTO-CI, single reference methods and gradients
   Taras Petrenko         : DFT Hessian,TD-DFT gradient, ASA, ECA, R-Raman, ABS, FL, XAS/XES, NRVS
   Peter Pinski           : DLPNO-MP2, DLPNO-MP2 Gradient
   Christoph Reimann      : Effective Core Potentials
   Marius Retegan         : Local ZFS, SOC
   Christoph Riplinger    : Optimizer, TS searches, QM/MM, DLPNO-CCSD(T), (RO)-DLPNO pert. Triples
   Tobias Risthaus        : Range-separated hybrids, TD-DFT gradient, RPA, STAB
   Michael Roemelt        : Original ROCIS implementation
   Masaaki Saitow         : Open-shell DLPNO-CCSD energy and density
   Barbara Sandhoefer     : DKH picture change effects
   Avijit Sen             : IP-ROCIS
   Kantharuban Sivalingam : CASSCF convergence, NEVPT2, FIC-MRCI
   Bernardo de Souza      : ESD, SOC TD-DFT
   Georgi Stoychev        : AutoAux, RI-MP2 NMR, DLPNO-MP2 response
   Willem Van den Heuvel  : Paramagnetic NMR
   Boris Wezisla          : Elementary symmetry handling
   Frank Wennmohs         : Technical directorship


 We gratefully acknowledge several colleagues who have allowed us to
 interface, adapt or use parts of their codes:
   Stefan Grimme, W. Hujo, H. Kruse, P. Pracht,  : VdW corrections, initial TS optimization,
                  C. Bannwarth, S. Ehlert          DFT functionals, gCP, sTDA/sTD-DF
   Ed Valeev, F. Pavosevic, A. Kumar             : LibInt (2-el integral package), F12 methods
   Garnet Chan, S. Sharma, J. Yang, R. Olivares  : DMRG
   Ulf Ekstrom                                   : XCFun DFT Library
   Mihaly Kallay                                 : mrcc  (arbitrary order and MRCC methods)
   Jiri Pittner, Ondrej Demel                    : Mk-CCSD
   Frank Weinhold                                : gennbo (NPA and NBO analysis)
   Christopher J. Cramer and Donald G. Truhlar   : smd solvation model
   Lars Goerigk                                  : TD-DFT with DH, B97 family of functionals
   V. Asgeirsson, H. Jonsson                     : NEB implementation
   FAccTs GmbH                                   : IRC, NEB, NEB-TS, DLPNO-Multilevel, CI-OPT
                                                   MM, QMMM, 2- and 3-layer-ONIOM, Crystal-QMMM,
                                                   LR-CPCM, SF, NACMEs, symmetry and pop. for TD-DFT,
                                                   nearIR, NL-DFT gradient (VV10), updates on ESD,
                                                   ML-optimized integration grids
   S Lehtola, MJT Oliveira, MAL Marques          : LibXC Library
   Liviu Ungur et al                             : ANISO software


 Your calculation uses the libint2 library for the computation of 2-el integrals
 For citations please refer to: http://libint.valeyev.net

 Your ORCA version has been built with support for libXC version: 5.1.0
 For citations please refer to: https://tddft.org/programs/libxc/

 This ORCA versions uses:
   CBLAS   interface :  Fast vector & matrix operations
   LAPACKE interface :  Fast linear algebra routines
   SCALAPACK package :  Parallel linear algebra routines
   Shared memory     :  Shared parallel matrices
   BLAS/LAPACK       :  OpenBLAS 0.3.15  USE64BITINT DYNAMIC_ARCH NO_AFFINITY Haswell SINGLE_THREADED
        Core in use  :  Haswell
   Copyright (c) 2011-2014, The OpenBLAS Project




***************************************
The coordinates will be read from file: p2p.xyz
***************************************


Your calculation utilizes the geometrical counterpoise correction gCP
Please cite in your paper:
H.Kruse, S. Grimme J.Chem.Phys., 136, (2012), 154101 
   

Your calculation utilizes the atom-pairwise dispersion correction
with the Becke-Johnson damping scheme (D3BJ)
Cite in your paper:
S.Grimme, S.Ehrlich, L.Goerigk, J Comput Chem, (2011), 32, 1456–1465 
S.Grimme, J.Antony, S.Ehrlich and H.Krieg, J.Chem.Phys., 132, (2010), 154104 
   

Your calculation employs the composite approach PBEh-3c.
Please cite in your paper:
S. Grimme, J. G. Brandenburg, C. Bannwarth, A. Hansen J.Chem.Phys., 143, (2015), 054107 
   

================================================================================

----- Orbital basis set information -----
Your calculation utilizes the basis: def2-mSVP

----- AuxJ basis set information -----
Your calculation utilizes the auxiliary basis: def2/J
   F. Weigend, Phys. Chem. Chem. Phys. 8, 1057 (2006).

================================================================================
                                        WARNINGS
                       Please study these warnings very carefully!
================================================================================


INFO   : the flag for use of the SHARK integral package has been found!

================================================================================
                                       INPUT FILE
================================================================================
NAME = pbeh-3c.inp
|  1> ! PBEh-3c def2/J TightSCF DefGrid3
|  2> 
|  3> %maxcore 60000
|  4> 
|  5> %pal
|  6> nprocs 4
|  7> end
|  8> 
|  9> *xyzfile 1 1 p2p.xyz
| 10> 
| 11>                          ****END OF INPUT****
================================================================================

                       ****************************
                       * Single Point Calculation *
                       ****************************

---------------------------------
CARTESIAN COORDINATES (ANGSTROEM)
---------------------------------
  C      0.000000   -0.688533   -0.154093
  C      0.000000    0.688533   -0.154093
  H     -0.933839   -1.244634   -0.165840
  H      0.933839   -1.244634   -0.165840
  H      0.000000    0.000000    0.971546
  H     -0.933839    1.244634   -0.165840
  H      0.933839    1.244634   -0.165840

----------------------------
CARTESIAN COORDINATES (A.U.)
----------------------------
  NO LB      ZA    FRAG     MASS         X           Y           Z
   0 C     6.0000    0    12.011    0.000000   -1.301139   -0.291194
   1 C     6.0000    0    12.011    0.000000    1.301139   -0.291194
   2 H     1.0000    0     1.008   -1.764700   -2.352017   -0.313392
   3 H     1.0000    0     1.008    1.764700   -2.352017   -0.313392
   4 H     1.0000    0     1.008    0.000000    0.000000    1.835956
   5 H     1.0000    0     1.008   -1.764700    2.352017   -0.313392
   6 H     1.0000    0     1.008    1.764700    2.352017   -0.313392

--------------------------------
INTERNAL COORDINATES (ANGSTROEM)
--------------------------------
 C      0   0   0     0.000000000000     0.00000000     0.00000000
 C      1   0   0     1.377066000000     0.00000000     0.00000000
 H      1   2   0     1.086941479059   120.77179753     0.00000000
 H      1   2   3     1.086941479059   120.77179753   178.55859960
 H      1   2   3     1.319522877893    58.54662695   269.27929980
 H      2   1   3     1.086941479059   120.77179753     0.00000000
 H      2   1   3     1.086941479059   120.77179753   181.44140040

---------------------------
INTERNAL COORDINATES (A.U.)
---------------------------
 C      0   0   0     0.000000000000     0.00000000     0.00000000
 C      1   0   0     2.602277608334     0.00000000     0.00000000
 H      1   2   0     2.054021719021   120.77179753     0.00000000
 H      1   2   3     2.054021719021   120.77179753   178.55859960
 H      1   2   3     2.493536866661    58.54662695   269.27929980
 H      2   1   3     2.054021719021   120.77179753     0.00000000
 H      2   1   3     2.054021719021   120.77179753   181.44140040

---------------------
BASIS SET INFORMATION
---------------------
There are 2 groups of distinct atoms

 Group   1 Type C   : 8s4p1d contracted to 4s2p1d pattern {5111/31/1}
 Group   2 Type H   : 4s contracted to 2s pattern {31}

Atom   0C    basis set group =>   1
Atom   1C    basis set group =>   1
Atom   2H    basis set group =>   2
Atom   3H    basis set group =>   2
Atom   4H    basis set group =>   2
Atom   5H    basis set group =>   2
Atom   6H    basis set group =>   2
---------------------------------
AUXILIARY/J BASIS SET INFORMATION
---------------------------------
There are 2 groups of distinct atoms

 Group   1 Type C   : 12s5p4d2f1g contracted to 6s4p3d1f1g pattern {711111/2111/211/2/1}
 Group   2 Type H   : 5s2p1d contracted to 3s1p1d pattern {311/2/1}

Atom   0C    basis set group =>   1
Atom   1C    basis set group =>   1
Atom   2H    basis set group =>   2
Atom   3H    basis set group =>   2
Atom   4H    basis set group =>   2
Atom   5H    basis set group =>   2
Atom   6H    basis set group =>   2


           ************************************************************
           *        Program running with 4 parallel MPI-processes     *
           *              working on a common directory               *
           ************************************************************
------------------------------------------------------------------------------
                           ORCA GTO INTEGRAL CALCULATION
                           -- RI-GTO INTEGRALS CHOSEN --
------------------------------------------------------------------------------
------------------------------------------------------------------------------
                   ___                                                        
                  /   \      - P O W E R E D   B Y -                         
                 /     \                                                     
                 |  |  |   _    _      __       _____    __    __             
                 |  |  |  | |  | |    /  \     |  _  \  |  |  /  |          
                  \  \/   | |  | |   /    \    | | | |  |  | /  /          
                 / \  \   | |__| |  /  /\  \   | |_| |  |  |/  /          
                |  |  |   |  __  | /  /__\  \  |    /   |      \           
                |  |  |   | |  | | |   __   |  |    \   |  |\   \          
                \     /   | |  | | |  |  |  |  | |\  \  |  | \   \       
                 \___/    |_|  |_| |__|  |__|  |_| \__\ |__|  \__/        
                                                                              
                      - O R C A' S   B I G   F R I E N D -                    
                                      &                                       
                       - I N T E G R A L  F E E D E R -                       
                                                                              
 v1 FN, 2020, v2 2021                                                         
------------------------------------------------------------------------------


Reading SHARK input file pbeh-3c.SHARKINP.tmp ... ok
----------------------
SHARK INTEGRAL PACKAGE
----------------------

Number of atoms                             ...      7
Number of basis functions                   ...     40
Number of shells                            ...     24
Maximum angular momentum                    ...      2
Integral batch strategy                     ... SHARK/LIBINT Hybrid
RI-J (if used) integral strategy            ... SPLIT-RIJ (Revised 2003 algorithm where possible)
Printlevel                                  ...      1
Contraction scheme used                     ... SEGMENTED contraction
Coulomb Range Separation                    ... NOT USED
Exchange Range Separation                   ... NOT USED
Finite Nucleus Model                        ... NOT USED
Auxiliary Coulomb fitting basis             ... AVAILABLE
   # of basis functions in Aux-J            ...    153
   # of shells in Aux-J                     ...     55
   Maximum angular momentum in Aux-J        ...      4
Auxiliary J/K fitting basis                 ... NOT available
Auxiliary Correlation fitting basis         ... NOT available
Auxiliary 'external' fitting basis          ... NOT available
Integral threshold                          ...     2.500000e-11
Primitive cut-off                           ...     2.500000e-12
Primitive pair pre-selection threshold      ...     2.500000e-12

Calculating pre-screening integrals         ... done (  0.0 sec) Dimension = 24
Organizing shell pair data                  ... done (  0.0 sec)
Shell pair information
Total number of shell pairs                 ...       300
Shell pairs after pre-screening             ...       299
Total number of primitive shell pairs       ...      1122
Primitive shell pairs kept                  ...       964
          la=0 lb=0:    170 shell pairs
          la=1 lb=0:     72 shell pairs
          la=1 lb=1:     10 shell pairs
          la=2 lb=0:     36 shell pairs
          la=2 lb=1:      8 shell pairs
          la=2 lb=2:      3 shell pairs

Calculating one electron integrals          ... done (  0.0 sec)
Calculating RI/J V-Matrix + Cholesky decomp.... done (  0.1 sec)
Calculating Nuclear repulsion               ... done (  0.0 sec) ENN=     38.676548833109 Eh

SHARK setup successfully completed in   0.3 seconds

Maximum memory used throughout the entire GTOINT-calculation: 9.0 MB


           ************************************************************
           *        Program running with 4 parallel MPI-processes     *
           *              working on a common directory               *
           ************************************************************
-------------------------------------------------------------------------------
                                 ORCA SCF
-------------------------------------------------------------------------------

------------
SCF SETTINGS
------------
Hamiltonian:
 Density Functional     Method          .... DFT(GTOs)
 Exchange Functional    Exchange        .... PBE
   PBE kappa parameter   XKappa         ....  1.024500
   PBE mue parameter    XMuePBE         ....  0.123457
 Correlation Functional Correlation     .... PBE
   PBE beta parameter  CBetaPBE         ....  0.030000
 LDA part of GGA corr.  LDAOpt          .... PW91-LDA
 Gradients option       PostSCFGGA      .... off
 Hybrid DFT is turned on
   Fraction HF Exchange ScalHFX         ....  0.420000
   Scaling of DF-GGA-X  ScalDFX         ....  0.580000
   Scaling of DF-GGA-C  ScalDFC         ....  1.000000
   Scaling of DF-LDA-C  ScalLDAC        ....  1.000000
   Perturbative correction              ....  0.000000
   Density functional embedding theory  .... OFF
 RI-approximation to the Coulomb term is turned on
   Number of AuxJ basis functions       .... 153
   RIJ-ON(X) (HFX calculated with O(N)) .... on
   Number of AuxJ basis functions       .... 153
   RIJ-COSX (HFX calculated with COS-X)).... on


General Settings:
 Integral files         IntName         .... pbeh-3c
 Hartree-Fock type      HFTyp           .... RHF
 Total Charge           Charge          ....    1
 Multiplicity           Mult            ....    1
 Number of Electrons    NEL             ....   16
 Basis Dimension        Dim             ....   40
 Nuclear Repulsion      ENuc            ....     38.6765488331 Eh

Convergence Acceleration:
 DIIS                   CNVDIIS         .... on
   Start iteration      DIISMaxIt       ....    12
   Startup error        DIISStart       ....  0.200000
   # of expansion vecs  DIISMaxEq       ....     5
   Bias factor          DIISBfac        ....   1.050
   Max. coefficient     DIISMaxC        ....  10.000
 Trust-Rad. Augm. Hess. CNVTRAH         .... auto
   Auto Start mean grad. ratio tolernc. ....  1.125000
   Auto Start start iteration           ....    20
   Auto Start num. interpolation iter.  ....    10
   Max. Number of Micro iterations      ....    16
   Max. Number of Macro iterations      .... Maxiter - #DIIS iter
   Number of Davidson start vectors     ....     2
   Converg. threshold I  (grad. norm)   ....   1.000e-05
   Converg. threshold II (energy diff.) ....   1.000e-08
   Grad. Scal. Fac. for Micro threshold ....   0.100
   Minimum threshold for Micro iter.    ....   0.010
   NR start threshold (gradient norm)   ....   0.001
   Initial trust radius                 ....   0.400
   Minimum AH scaling param. (alpha)    ....   1.000
   Maximum AH scaling param. (alpha)    .... 1000.000
   Orbital update algorithm             .... Taylor
   White noise on init. David. guess    .... on
   Maximum white noise                  ....   0.010
   Quad. conv. algorithm                .... NR
   COSX micro iterations for RIJONX calc.... off
 SOSCF                  CNVSOSCF        .... on
   Start iteration      SOSCFMaxIt      ....   150
   Startup grad/error   SOSCFStart      ....  0.003300
 Level Shifting         CNVShift        .... on
   Level shift para.    LevelShift      ....    0.2500
   Turn off err/grad.   ShiftErr        ....    0.0010
 Zerner damping         CNVZerner       .... off
 Static damping         CNVDamp         .... on
   Fraction old density DampFac         ....    0.7000
   Max. Damping (<1)    DampMax         ....    0.9800
   Min. Damping (>=0)   DampMin         ....    0.0000
   Turn off err/grad.   DampErr         ....    0.1000
 Fernandez-Rico         CNVRico         .... off

SCF Procedure:
 Maximum # iterations   MaxIter         ....   125
 SCF integral mode      SCFMode         .... Direct
   Integral package                     .... SHARK and LIBINT hybrid scheme
 Reset frequency        DirectResetFreq ....    20
 Integral Threshold     Thresh          ....  2.500e-11 Eh
 Primitive CutOff       TCut            ....  2.500e-12 Eh

Convergence Tolerance:
 Convergence Check Mode ConvCheckMode   .... Total+1el-Energy
 Convergence forced     ConvForced      .... 0
 Energy Change          TolE            ....  1.000e-08 Eh
 1-El. energy change                    ....  1.000e-05 Eh
 Orbital Gradient       TolG            ....  1.000e-05
 Orbital Rotation angle TolX            ....  1.000e-05
 DIIS Error             TolErr          ....  5.000e-07


Diagonalization of the overlap matrix:
Smallest eigenvalue                        ... 1.013e-02
Time for diagonalization                   ...    0.001 sec
Threshold for overlap eigenvalues          ... 1.000e-08
Number of eigenvalues below threshold      ... 0
Time for construction of square roots      ...    0.095 sec
Total time needed                          ...    0.124 sec

--------------------------------
INITIAL GUESS: MINIMAL BASIS EHT
--------------------------------
The minimal basis has 15 functions
EHT matrix was diagonalized
Basis set overlap was calculated now projecting the orbitals
Using GuessMode=FMatrix for the initial guess
C*T matrix was formed
Effective Fockian was calculated
Effective Fockian was diagonalized
Initial density was built
                      ------------------
                      INITIAL GUESS DONE
                      ------------------
-------------------
DFT GRID GENERATION
-------------------

General Integration Accuracy     IntAcc      ... 4.959
Radial Grid Type                 RadialGrid  ... OptM3 with GC (2021)
Angular Grid (max. ang.)         AngularGrid ... 6 (Lebedev-590)
Angular grid pruning method      GridPruning ... 4 (adaptive)
Weight generation scheme         WeightScheme... Becke
Basis function cutoff            BFCut       ... 1.0000e-11
Integration weight cutoff        WCut        ... 1.0000e-14
Angular grids for H and He will be reduced by one unit
Partially contracted basis set               ... off
Rotationally invariant grid construction     ... off

Total number of grid points                  ...    73552
Total number of batches                      ...     1152
Average number of points per batch           ...       63
Average number of grid points per atom       ...    10507
Time for grid setup =    1.303 sec

--------------------
COSX GRID GENERATION
--------------------

GRIDX 1
-------
General Integration Accuracy     IntAcc      ... 4.020
Radial Grid Type                 RadialGrid  ... OptM3 with GC (2021)
Angular Grid (max. ang.)         AngularGrid ... 2 (Lebedev-110)
Angular grid pruning method      GridPruning ... 4 (adaptive)
Weight generation scheme         WeightScheme... Becke
Basis function cutoff            BFCut       ... 1.0000e-11
Integration weight cutoff        WCut        ... 1.0000e-14
Angular grids for H and He will be reduced by one unit
Partially contracted basis set               ... on
Rotationally invariant grid construction     ... off

Total number of grid points                  ...     7631
Total number of batches                      ...      123
Average number of points per batch           ...       62
Average number of grid points per atom       ...     1090
UseSFitting                                  ... on

GRIDX 2
-------
General Integration Accuracy     IntAcc      ... 4.338
Radial Grid Type                 RadialGrid  ... OptM3 with GC (2021)
Angular Grid (max. ang.)         AngularGrid ... 3 (Lebedev-194)
Angular grid pruning method      GridPruning ... 4 (adaptive)
Weight generation scheme         WeightScheme... Becke
Basis function cutoff            BFCut       ... 1.0000e-11
Integration weight cutoff        WCut        ... 1.0000e-14
Angular grids for H and He will be reduced by one unit
Partially contracted basis set               ... on
Rotationally invariant grid construction     ... off

Total number of grid points                  ...    16818
Total number of batches                      ...      265
Average number of points per batch           ...       63
Average number of grid points per atom       ...     2403
UseSFitting                                  ... on

GRIDX 3
-------
General Integration Accuracy     IntAcc      ... 4.871
Radial Grid Type                 RadialGrid  ... OptM3 with GC (2021)
Angular Grid (max. ang.)         AngularGrid ... 4 (Lebedev-302)
Angular grid pruning method      GridPruning ... 4 (adaptive)
Weight generation scheme         WeightScheme... Becke
Basis function cutoff            BFCut       ... 1.0000e-11
Integration weight cutoff        WCut        ... 1.0000e-14
Angular grids for H and He will be reduced by one unit
Partially contracted basis set               ... on
Rotationally invariant grid construction     ... off

Total number of grid points                  ...    34291
Total number of batches                      ...      540
Average number of points per batch           ...       63
Average number of grid points per atom       ...     4899
UseSFitting                                  ... on

Time for X-Grid setup             =    0.849 sec

--------------
SCF ITERATIONS
--------------
ITER       Energy         Delta-E        Max-DP      RMS-DP      [F,P]     Damp
               ***  Starting incremental Fock matrix formation  ***
  0    -78.4404045623   0.000000000000 0.05552661  0.00510800  0.3655554 0.7000
  1    -78.5192875765  -0.078883014164 0.03958336  0.00407464  0.2642491 0.7000
                               ***Turning on DIIS***
  2    -78.5686301686  -0.049342592176 0.02728753  0.00277089  0.1901191 0.7000
  3    -78.6014221751  -0.032792006465 0.01965476  0.00181891  0.1359163 0.7000
  4    -78.6242473860  -0.022825210941 0.04112747  0.00421629  0.0949569 0.0000
  5    -78.6781661507  -0.053918764688 0.00482480  0.00032020  0.0043239 0.0000
                      *** Initiating the SOSCF procedure ***
                           *** Shutting down DIIS ***
                      *** Re-Reading the Fockian *** 
                      *** Removing any level shift *** 
ITER      Energy       Delta-E        Grad      Rot      Max-DP    RMS-DP
  6    -78.67823738  -0.0000712319  0.001092  0.001092  0.001008  0.000094
               *** Restarting incremental Fock matrix formation ***
  7    -78.67824041  -0.0000030294  0.000314  0.000413  0.000432  0.000037
  8    -78.67824105  -0.0000006358  0.000047  0.000110  0.000128  0.000012
  9    -78.67824108  -0.0000000301  0.000030  0.000026  0.000048  0.000003
 10    -78.67824109  -0.0000000094  0.000004  0.000004  0.000005  0.000000
                 **** Energy Check signals convergence ****
              ***Rediagonalizing the Fockian in SOSCF/NRSCF***

               *****************************************************
               *                     SUCCESS                       *
               *           SCF CONVERGED AFTER  11 CYCLES          *
               *****************************************************

Old exchange energy                            =     -4.955104276 Eh
New exchange energy                            =     -4.955107951 Eh
Exchange energy change after final integration =     -0.000003675 Eh
Total energy after final integration           =    -78.678244762 Eh
Final COS-X integration done in                =     0.334 sec

----------------
TOTAL SCF ENERGY
----------------

Total Energy       :          -78.67824476 Eh           -2140.94388 eV

Components:
Nuclear Repulsion  :           38.67654883 Eh            1052.44240 eV
Electronic Energy  :         -117.35479360 Eh           -3193.38628 eV
One Electron Energy:         -175.99970685 Eh           -4789.19550 eV
Two Electron Energy:           58.64491326 Eh            1595.80922 eV
Max COSX asymmetry :            0.00000068 Eh               0.00002 eV

Virial components:
Potential Energy   :         -156.74917037 Eh           -4265.36177 eV
Kinetic Energy     :           78.07092560 Eh            2124.41789 eV
Virial Ratio       :            2.00777907


DFT components:
N(Alpha)           :        8.000000034111 electrons
N(Beta)            :        8.000000034111 electrons
N(Total)           :       16.000000068223 electrons
E(X)               :       -6.564637139291 Eh       
E(C)               :       -0.658023373526 Eh       
E(XC)              :       -7.222660512817 Eh       
DFET-embed. en.    :        0.000000000000 Eh       

---------------
SCF CONVERGENCE
---------------

  Last Energy change         ...   -8.8676e-12  Tolerance :   1.0000e-08
  Last MAX-Density change    ...    7.7716e-16  Tolerance :   1.0000e-07
  Last RMS-Density change    ...    6.0712e-17  Tolerance :   5.0000e-09
  Last Orbital Gradient      ...    5.1043e-07  Tolerance :   1.0000e-05
  Last Orbital Rotation      ...    8.7538e-07  Tolerance :   1.0000e-05

             **** THE GBW FILE WAS UPDATED (pbeh-3c.gbw) ****
             **** DENSITY pbeh-3c.scfp WAS UPDATED ****
             **** ENERGY FILE WAS UPDATED (pbeh-3c.en.tmp) ****
             **** THE GBW FILE WAS UPDATED (pbeh-3c.gbw) ****
             **** DENSITY pbeh-3c.scfp WAS UPDATED ****
----------------
ORBITAL ENERGIES
----------------

  NO   OCC          E(Eh)            E(eV) 
   0   2.0000     -10.777612      -293.2737 
   1   2.0000     -10.776868      -293.2535 
   2   2.0000      -1.215465       -33.0745 
   3   2.0000      -0.952772       -25.9262 
   4   2.0000      -0.833901       -22.6916 
   5   2.0000      -0.807589       -21.9756 
   6   2.0000      -0.728976       -19.8364 
   7   2.0000      -0.707103       -19.2413 
   8   0.0000      -0.287323        -7.8185 
   9   0.0000      -0.158695        -4.3183 
  10   0.0000      -0.081688        -2.2228 
  11   0.0000      -0.063528        -1.7287 
  12   0.0000      -0.042685        -1.1615 
  13   0.0000       0.055154         1.5008 
  14   0.0000       0.072017         1.9597 
  15   0.0000       0.190682         5.1887 
  16   0.0000       0.241240         6.5645 
  17   0.0000       0.251666         6.8482 
  18   0.0000       0.337872         9.1940 
  19   0.0000       0.377508        10.2725 
  20   0.0000       0.574231        15.6256 
  21   0.0000       0.644496        17.5376 
  22   0.0000       0.662305        18.0222 
  23   0.0000       0.704923        19.1819 
  24   0.0000       0.774919        21.0866 
  25   0.0000       0.783116        21.3097 
  26   0.0000       0.810565        22.0566 
  27   0.0000       0.885489        24.0954 
  28   0.0000       1.267402        34.4878 
  29   0.0000       1.316360        35.8200 
  30   0.0000       1.535723        41.7891 
  31   0.0000       1.708186        46.4821 
  32   0.0000       1.729584        47.0644 
  33   0.0000       1.855465        50.4898 
  34   0.0000       2.008385        54.6509 
  35   0.0000       2.061296        56.0907 
  36   0.0000       2.359730        64.2115 
  37   0.0000       2.391343        65.0718 
  38   0.0000      13.221567       359.7771 
  39   0.0000      13.637320       371.0903 

                    ********************************
                    * MULLIKEN POPULATION ANALYSIS *
                    ********************************

-----------------------
MULLIKEN ATOMIC CHARGES
-----------------------
   0 C :   -0.431333
   1 C :   -0.431333
   2 H :    0.379376
   3 H :    0.379376
   4 H :    0.345161
   5 H :    0.379376
   6 H :    0.379376
Sum of atomic charges:    1.0000000

--------------------------------
MULLIKEN REDUCED ORBITAL CHARGES
--------------------------------
  0 C s       :     3.471975  s :     3.471975
      pz      :     0.664934  p :     2.915849
      px      :     1.311434
      py      :     0.939480
      dz2     :     0.006258  d :     0.043509
      dxz     :     0.000066
      dyz     :     0.011920
      dx2y2   :     0.011030
      dxy     :     0.014235
  1 C s       :     3.471975  s :     3.471975
      pz      :     0.664934  p :     2.915849
      px      :     1.311434
      py      :     0.939480
      dz2     :     0.006258  d :     0.043509
      dxz     :     0.000066
      dyz     :     0.011920
      dx2y2   :     0.011030
      dxy     :     0.014235
  2 H s       :     0.620624  s :     0.620624
  3 H s       :     0.620624  s :     0.620624
  4 H s       :     0.654839  s :     0.654839
  5 H s       :     0.620624  s :     0.620624
  6 H s       :     0.620624  s :     0.620624


                     *******************************
                     * LOEWDIN POPULATION ANALYSIS *
                     *******************************

----------------------
LOEWDIN ATOMIC CHARGES
----------------------
   0 C :   -0.079175
   1 C :   -0.079175
   2 H :    0.210794
   3 H :    0.210794
   4 H :    0.315173
   5 H :    0.210794
   6 H :    0.210794

-------------------------------
LOEWDIN REDUCED ORBITAL CHARGES
-------------------------------
  0 C s       :     3.008353  s :     3.008353
      pz      :     0.694191  p :     2.991795
      px      :     1.196055
      py      :     1.101549
      dz2     :     0.009280  d :     0.079027
      dxz     :     0.000078
      dyz     :     0.017568
      dx2y2   :     0.023201
      dxy     :     0.028899
  1 C s       :     3.008353  s :     3.008353
      pz      :     0.694191  p :     2.991795
      px      :     1.196055
      py      :     1.101549
      dz2     :     0.009280  d :     0.079027
      dxz     :     0.000078
      dyz     :     0.017568
      dx2y2   :     0.023201
      dxy     :     0.028899
  2 H s       :     0.789206  s :     0.789206
  3 H s       :     0.789206  s :     0.789206
  4 H s       :     0.684827  s :     0.684827
  5 H s       :     0.789206  s :     0.789206
  6 H s       :     0.789206  s :     0.789206


                      *****************************
                      * MAYER POPULATION ANALYSIS *
                      *****************************

  NA   - Mulliken gross atomic population
  ZA   - Total nuclear charge
  QA   - Mulliken gross atomic charge
  VA   - Mayer's total valence
  BVA  - Mayer's bonded valence
  FA   - Mayer's free valence

  ATOM       NA         ZA         QA         VA         BVA        FA
  0 C      6.4313     6.0000    -0.4313     3.3883     3.3883    -0.0000
  1 C      6.4313     6.0000    -0.4313     3.3883     3.3883    -0.0000
  2 H      0.6206     1.0000     0.3794     0.8393     0.8393    -0.0000
  3 H      0.6206     1.0000     0.3794     0.8393     0.8393    -0.0000
  4 H      0.6548     1.0000     0.3452     0.8431     0.8431     0.0000
  5 H      0.6206     1.0000     0.3794     0.8393     0.8393    -0.0000
  6 H      0.6206     1.0000     0.3794     0.8393     0.8393    -0.0000

  Mayer bond orders larger than 0.100000
B(  0-C ,  1-C ) :   1.2946 B(  0-C ,  2-H ) :   0.8469 B(  0-C ,  3-H ) :   0.8469 
B(  0-C ,  4-H ) :   0.4269 B(  1-C ,  4-H ) :   0.4269 B(  1-C ,  5-H ) :   0.8469 
B(  1-C ,  6-H ) :   0.8469 

-------
TIMINGS
-------

Total SCF time: 0 days 0 hours 0 min 24 sec 

Total time                  ....      24.966 sec
Sum of individual times     ....      21.634 sec  ( 86.7%)

Fock matrix formation       ....      17.367 sec  ( 69.6%)
  Split-RI-J                ....       2.271 sec  ( 13.1% of F)
  Chain of spheres X        ....       3.161 sec  ( 18.2% of F)
  XC integration            ....       5.369 sec  ( 30.9% of F)
    Basis function eval.    ....       0.606 sec  ( 11.3% of XC)
    Density eval.           ....       0.288 sec  (  5.4% of XC)
    XC-Functional eval.     ....       0.439 sec  (  8.2% of XC)
    XC-Potential eval.      ....       0.129 sec  (  2.4% of XC)
Diagonalization             ....       0.383 sec  (  1.5%)
Density matrix formation    ....       0.090 sec  (  0.4%)
Population analysis         ....       0.178 sec  (  0.7%)
Initial guess               ....       0.014 sec  (  0.1%)
Orbital Transformation      ....       0.000 sec  (  0.0%)
Orbital Orthonormalization  ....       0.000 sec  (  0.0%)
DIIS solution               ....       1.060 sec  (  4.2%)
SOSCF solution              ....       0.391 sec  (  1.6%)
Grid generation             ....       2.152 sec  (  8.6%)

Maximum memory used throughout the entire SCF-calculation: 45.3 MB


-------------------------------------------------------------------------------
                          DFT DISPERSION CORRECTION                            
                                                                               
                              DFTD3 V3.1  Rev 1                                
                          USING Becke-Johnson damping                          
-------------------------------------------------------------------------------
The PBEh-3c composite method is recognized
Using three-body term ABC
Active option DFTDOPT                   ...         4   

molecular C6(AA) [au] = 303.534794 


            DFT-D V3
 parameters
 s6 scaling factor         :     1.0000 
 a1 scaling factor         :     0.4860 
 s8 scaling factor         :     0.0000 
 a2 scaling factor         :     4.5000 
 Damping factor alpha9(ATM):    16.0000 
 ad hoc parameters k1-k3   :    16.0000     1.3333    -4.0000 

 Edisp/kcal,au: -0.947177523498  -0.001509423302 
 E6   /kcal   :  -0.947402201 
 E8   /kcal   :  -0.000000000 
 E6(ABC)      :   0.000224677 
 % E8         :   0.000000000 
 % E6(ABC)    :  -0.023720721 

-------------------------   ----------------
Dispersion correction           -0.001509423
-------------------------   ----------------

------------------   -----------------
gCP correction             0.006107560
------------------   -----------------

-------------------------   --------------------
FINAL SINGLE POINT ENERGY       -78.673646625171
-------------------------   --------------------


                            ***************************************
                            *     ORCA property calculations      *
                            ***************************************

                                    ---------------------
                                    Active property flags
                                    ---------------------
   (+) Dipole Moment


------------------------------------------------------------------------------
                       ORCA ELECTRIC PROPERTIES CALCULATION
------------------------------------------------------------------------------

Dipole Moment Calculation                       ... on
Quadrupole Moment Calculation                   ... off
Polarizability Calculation                      ... off
GBWName                                         ... pbeh-3c.gbw
Electron density                                ... pbeh-3c.scfp
The origin for moment calculation is the CENTER OF MASS  = ( 0.000000,  0.000000 -0.220494)

-------------
DIPOLE MOMENT
-------------
                                X             Y             Z
Electronic contribution:      0.00000       0.00000      -0.47127
Nuclear contribution   :      0.00000       0.00000       0.83647
                        -----------------------------------------
Total Dipole Moment    :      0.00000       0.00000       0.36520
                        -----------------------------------------
Magnitude (a.u.)       :      0.36520
Magnitude (Debye)      :      0.92826



--------------------
Rotational spectrum 
--------------------
 
Rotational constants in cm-1:     3.546584     0.893291     0.797035 
Rotational constants in MHz : 106323.924477 26780.180701 23894.503856 

 Dipole components along the rotational axes: 
x,y,z [a.u.] :     0.000000     0.000000     0.365198 
x,y,z [Debye]:     0.000000     0.000000     0.928261 

 

Timings for individual modules:

Sum of individual times         ...       25.988 sec (=   0.433 min)
GTO integral calculation        ...        0.670 sec (=   0.011 min)   2.6 %
SCF iterations                  ...       25.318 sec (=   0.422 min)  97.4 %
                             ****ORCA TERMINATED NORMALLY****
TOTAL RUN TIME: 0 days 0 hours 0 minutes 28 seconds 636 msec
