
                                 *****************
                                 * O   R   C   A *
                                 *****************

                                            #,                                       
                                            ###                                      
                                            ####                                     
                                            #####                                    
                                            ######                                   
                                           ########,                                 
                                     ,,################,,,,,                         
                               ,,#################################,,                 
                          ,,##########################################,,             
                       ,#########################################, ''#####,          
                    ,#############################################,,   '####,        
                  ,##################################################,,,,####,       
                ,###########''''           ''''###############################       
              ,#####''   ,,,,##########,,,,          '''####'''          '####       
            ,##' ,,,,###########################,,,                        '##       
           ' ,,###''''                  '''############,,,                           
         ,,##''                                '''############,,,,        ,,,,,,###''
      ,#''                                            '''#######################'''  
     '                                                          ''''####''''         
             ,#######,   #######,   ,#######,      ##                                
            ,#'     '#,  ##    ##  ,#'     '#,    #''#        ######   ,####,        
            ##       ##  ##   ,#'  ##            #'  '#       #        #'  '#        
            ##       ##  #######   ##           ,######,      #####,   #    #        
            '#,     ,#'  ##    ##  '#,     ,#' ,#      #,         ##   #,  ,#        
             '#######'   ##     ##  '#######'  #'      '#     #####' # '####'        



                  #######################################################
                  #                        -***-                        #
                  #          Department of theory and spectroscopy      #
                  #    Directorship and core code : Frank Neese         #
                  #        Max Planck Institute fuer Kohlenforschung    #
                  #                Kaiser Wilhelm Platz 1               #
                  #                 D-45470 Muelheim/Ruhr               #
                  #                      Germany                        #
                  #                                                     #
                  #                  All rights reserved                #
                  #                        -***-                        #
                  #######################################################


                         Program Version 5.0.3 -  RELEASE  -


 With contributions from (in alphabetic order):
   Daniel Aravena         : Magnetic Suceptibility
   Michael Atanasov       : Ab Initio Ligand Field Theory (pilot matlab implementation)
   Alexander A. Auer      : GIAO ZORA, VPT2 properties, NMR spectrum
   Ute Becker             : Parallelization
   Giovanni Bistoni       : ED, misc. LED, open-shell LED, HFLD
   Martin Brehm           : Molecular dynamics
   Dmytro Bykov           : SCF Hessian
   Vijay G. Chilkuri      : MRCI spin determinant printing, contributions to CSF-ICE
   Dipayan Datta          : RHF DLPNO-CCSD density
   Achintya Kumar Dutta   : EOM-CC, STEOM-CC
   Dmitry Ganyushin       : Spin-Orbit,Spin-Spin,Magnetic field MRCI
   Miquel Garcia          : C-PCM and meta-GGA Hessian, CC/C-PCM, Gaussian charge scheme
   Yang Guo               : DLPNO-NEVPT2, F12-NEVPT2, CIM, IAO-localization
   Andreas Hansen         : Spin unrestricted coupled pair/coupled cluster methods
   Benjamin Helmich-Paris : MC-RPA, TRAH-SCF, COSX integrals
   Lee Huntington         : MR-EOM, pCC
   Robert Izsak           : Overlap fitted RIJCOSX, COSX-SCS-MP3, EOM
   Marcus Kettner         : VPT2
   Christian Kollmar      : KDIIS, OOCD, Brueckner-CCSD(T), CCSD density, CASPT2, CASPT2-K
   Simone Kossmann        : Meta GGA functionals, TD-DFT gradient, OOMP2, MP2 Hessian
   Martin Krupicka        : Initial AUTO-CI
   Lucas Lang             : DCDCAS
   Marvin Lechner         : AUTO-CI (C++ implementation), FIC-MRCC
   Dagmar Lenk            : GEPOL surface, SMD
   Dimitrios Liakos       : Extrapolation schemes; Compound Job, initial MDCI parallelization
   Dimitrios Manganas     : Further ROCIS development; embedding schemes
   Dimitrios Pantazis     : SARC Basis sets
   Anastasios Papadopoulos: AUTO-CI, single reference methods and gradients
   Taras Petrenko         : DFT Hessian,TD-DFT gradient, ASA, ECA, R-Raman, ABS, FL, XAS/XES, NRVS
   Peter Pinski           : DLPNO-MP2, DLPNO-MP2 Gradient
   Christoph Reimann      : Effective Core Potentials
   Marius Retegan         : Local ZFS, SOC
   Christoph Riplinger    : Optimizer, TS searches, QM/MM, DLPNO-CCSD(T), (RO)-DLPNO pert. Triples
   Tobias Risthaus        : Range-separated hybrids, TD-DFT gradient, RPA, STAB
   Michael Roemelt        : Original ROCIS implementation
   Masaaki Saitow         : Open-shell DLPNO-CCSD energy and density
   Barbara Sandhoefer     : DKH picture change effects
   Avijit Sen             : IP-ROCIS
   Kantharuban Sivalingam : CASSCF convergence, NEVPT2, FIC-MRCI
   Bernardo de Souza      : ESD, SOC TD-DFT
   Georgi Stoychev        : AutoAux, RI-MP2 NMR, DLPNO-MP2 response
   Willem Van den Heuvel  : Paramagnetic NMR
   Boris Wezisla          : Elementary symmetry handling
   Frank Wennmohs         : Technical directorship


 We gratefully acknowledge several colleagues who have allowed us to
 interface, adapt or use parts of their codes:
   Stefan Grimme, W. Hujo, H. Kruse, P. Pracht,  : VdW corrections, initial TS optimization,
                  C. Bannwarth, S. Ehlert          DFT functionals, gCP, sTDA/sTD-DF
   Ed Valeev, F. Pavosevic, A. Kumar             : LibInt (2-el integral package), F12 methods
   Garnet Chan, S. Sharma, J. Yang, R. Olivares  : DMRG
   Ulf Ekstrom                                   : XCFun DFT Library
   Mihaly Kallay                                 : mrcc  (arbitrary order and MRCC methods)
   Jiri Pittner, Ondrej Demel                    : Mk-CCSD
   Frank Weinhold                                : gennbo (NPA and NBO analysis)
   Christopher J. Cramer and Donald G. Truhlar   : smd solvation model
   Lars Goerigk                                  : TD-DFT with DH, B97 family of functionals
   V. Asgeirsson, H. Jonsson                     : NEB implementation
   FAccTs GmbH                                   : IRC, NEB, NEB-TS, DLPNO-Multilevel, CI-OPT
                                                   MM, QMMM, 2- and 3-layer-ONIOM, Crystal-QMMM,
                                                   LR-CPCM, SF, NACMEs, symmetry and pop. for TD-DFT,
                                                   nearIR, NL-DFT gradient (VV10), updates on ESD,
                                                   ML-optimized integration grids
   S Lehtola, MJT Oliveira, MAL Marques          : LibXC Library
   Liviu Ungur et al                             : ANISO software


 Your calculation uses the libint2 library for the computation of 2-el integrals
 For citations please refer to: http://libint.valeyev.net

 Your ORCA version has been built with support for libXC version: 5.1.0
 For citations please refer to: https://tddft.org/programs/libxc/

 This ORCA versions uses:
   CBLAS   interface :  Fast vector & matrix operations
   LAPACKE interface :  Fast linear algebra routines
   SCALAPACK package :  Parallel linear algebra routines
   Shared memory     :  Shared parallel matrices
   BLAS/LAPACK       :  OpenBLAS 0.3.15  USE64BITINT DYNAMIC_ARCH NO_AFFINITY Haswell SINGLE_THREADED
        Core in use  :  Haswell
   Copyright (c) 2011-2014, The OpenBLAS Project




***************************************
The coordinates will be read from file: BN_Corannulene_TS.xyz
***************************************


Your calculation utilizes the geometrical counterpoise correction gCP
Please cite in your paper:
H.Kruse, S. Grimme J.Chem.Phys., 136, (2012), 154101 
   

Your calculation utilizes the atom-pairwise dispersion correction
with the Becke-Johnson damping scheme (D3BJ)
Cite in your paper:
S.Grimme, S.Ehrlich, L.Goerigk, J Comput Chem, (2011), 32, 1456–1465 
S.Grimme, J.Antony, S.Ehrlich and H.Krieg, J.Chem.Phys., 132, (2010), 154104 
   

Your calculation employs the composite approach PBEh-3c.
Please cite in your paper:
S. Grimme, J. G. Brandenburg, C. Bannwarth, A. Hansen J.Chem.Phys., 143, (2015), 054107 
   

================================================================================

----- Orbital basis set information -----
Your calculation utilizes the basis: def2-mSVP

----- AuxJ basis set information -----
Your calculation utilizes the auxiliary basis: def2/J
   F. Weigend, Phys. Chem. Chem. Phys. 8, 1057 (2006).

================================================================================
                                        WARNINGS
                       Please study these warnings very carefully!
================================================================================


INFO   : the flag for use of the SHARK integral package has been found!

================================================================================
                                       INPUT FILE
================================================================================
NAME = pbeh-3c.inp
|  1> ! PBEh-3c def2/J TightSCF DefGrid3
|  2> 
|  3> %maxcore 60000
|  4> 
|  5> %pal
|  6> nprocs 4
|  7> end
|  8> 
|  9> *xyzfile 0 1 BN_Corannulene_TS.xyz
| 10> 
| 11>                          ****END OF INPUT****
================================================================================

                       ****************************
                       * Single Point Calculation *
                       ****************************

---------------------------------
CARTESIAN COORDINATES (ANGSTROEM)
---------------------------------
  B      1.107374    0.358800   -0.000009
  N     -0.014500    1.202817   -0.000004
  B      0.000750    2.602813    0.000003
  N      1.368820    3.105796    0.000007
  B      2.553292    2.253356    0.000001
  N      2.455437    0.792180   -0.000009
  B     -1.153597    0.383024   -0.000003
  N     -2.488580    0.844201    0.000003
  B     -2.557377    2.306602   -0.000000
  N     -1.354931    3.135139    0.000004
  N      0.656524   -0.982055   -0.000013
  N     -0.733116   -0.976612   -0.000012
  B      1.489283   -2.105325   -0.000002
  N      2.895706   -1.694747    0.000002
  B      3.389042   -0.328434   -0.000002
  B     -1.576394   -2.095663   -0.000002
  B     -0.636084   -3.547733    0.000001
  N      0.797339   -3.387781    0.000001
  B     -3.445511   -0.261317    0.000004
  N     -2.971664   -1.630230    0.000003
  H     -3.698284   -2.328294    0.000005
  H     -4.617656   -0.046875    0.000005
  H     -3.613982    2.856385   -0.000010
  H     -1.527030    4.127909   -0.000001
  H      1.560541    4.094955    0.000010
  H      3.621102    2.780875    0.000004
  H      4.565482   -0.142906    0.000000
  H      3.613045   -2.402464    0.000008
  H      1.343935   -4.236888    0.000010
  H     -1.028967   -4.677526    0.000003

----------------------------
CARTESIAN COORDINATES (A.U.)
----------------------------
  NO LB      ZA    FRAG     MASS         X           Y           Z
   0 B     5.0000    0    10.810    2.092633    0.678034   -0.000018
   1 N     7.0000    0    14.007   -0.027401    2.272995   -0.000008
   2 B     5.0000    0    10.810    0.001418    4.918603    0.000006
   3 N     7.0000    0    14.007    2.586695    5.869103    0.000014
   4 B     5.0000    0    10.810    4.825023    4.258226    0.000003
   5 N     7.0000    0    14.007    4.640103    1.497003   -0.000017
   6 B     5.0000    0    10.810   -2.179982    0.723810   -0.000007
   7 N     7.0000    0    14.007   -4.702735    1.595309    0.000006
   8 B     5.0000    0    10.810   -4.832742    4.358846   -0.000000
   9 N     7.0000    0    14.007   -2.560449    5.924554    0.000008
  10 N     7.0000    0    14.007    1.240652   -1.855815   -0.000024
  11 N     7.0000    0    14.007   -1.385389   -1.845529   -0.000022
  12 B     5.0000    0    10.810    2.814336   -3.978487   -0.000004
  13 N     7.0000    0    14.007    5.472091   -3.202608    0.000004
  14 B     5.0000    0    10.810    6.404362   -0.620650   -0.000005
  15 B     5.0000    0    10.810   -2.978953   -3.960229   -0.000003
  16 B     5.0000    0    10.810   -1.202024   -6.704243    0.000002
  17 N     7.0000    0    14.007    1.506753   -6.401979    0.000001
  18 B     5.0000    0    10.810   -6.511073   -0.493818    0.000007
  19 N     7.0000    0    14.007   -5.615632   -3.080688    0.000006
  20 H     1.0000    0     1.008   -6.988745   -4.399837    0.000010
  21 H     1.0000    0     1.008   -8.726106   -0.088580    0.000009
  22 H     1.0000    0     1.008   -6.829436    5.397785   -0.000019
  23 H     1.0000    0     1.008   -2.885668    7.800618   -0.000002
  24 H     1.0000    0     1.008    2.948995    7.738343    0.000019
  25 H     1.0000    0     1.008    6.842891    5.255093    0.000008
  26 H     1.0000    0     1.008    8.627511   -0.270053    0.000000
  27 H     1.0000    0     1.008    6.827665   -4.539998    0.000016
  28 H     1.0000    0     1.008    2.539669   -8.006557    0.000018
  29 H     1.0000    0     1.008   -1.944466   -8.839244    0.000006

--------------------------------
INTERNAL COORDINATES (ANGSTROEM)
--------------------------------
 B      0   0   0     0.000000000000     0.00000000     0.00000000
 N      1   0   0     1.403910815223     0.00000000     0.00000000
 B      2   1   0     1.400078356960   126.33108452     0.00000000
 N      3   2   1     1.457603477635   110.81049883     0.00000000
 B      4   3   2     1.459324363481   124.07182460     0.00000000
 N      1   2   3     1.416012993772   125.22308591     0.00000000
 B      2   1   3     1.403425394723   107.30272757   180.00019648
 N      7   2   1     1.412397376904   125.20014582   179.99990391
 B      8   7   2     1.464017716622   111.75116947     0.00000000
 N      3   2   1     1.456448882721   110.81401683   179.99989638
 N      1   2   3     1.414622516435   108.37047141   179.99984723
 N     11   1   2     1.389651459246   108.36029625     0.00000000
 B     11   1   2     1.398292287566   124.86317878   180.00077811
 N     13  11   1     1.465128263268   110.27798374     0.00000000
 B     14  13  11     1.452650118490   126.12731408     0.00000000
 B     12  11   1     1.401210774683   126.77598653   180.00064273
 B     16  12  11     1.729939244089   110.07390500     0.00000000
 N     17  16  12     1.442319431309   116.55857310     0.00000000
 B      8   7   2     1.462152011623   111.82152945   180.00007845
 N     19   8   7     1.448603640350   120.02748616     0.00000000
 H     20  19   8     1.007606204402   114.75850211   179.99989994
 H     19   8   7     1.191599352960   120.51175056   180.00024605
 H      9   8   7     1.191081636420   120.18269708   179.99919847
 H     10   3   2     1.007576810811   121.27271343   180.00067888
 H      4   3   2     1.007567267702   121.15557986   179.99979757
 H      5   4   3     1.191005392799   117.96792764   179.99992512
 H     15  14  13     1.190979406908   118.81508744   180.00010852
 H     14  13  11     1.007689237015   119.11274023   180.00008666
 H     18  17  16     1.009826047981   116.40350244   179.99951614
 H     17  16  12     1.196156993740   127.89928491   180.00031608

---------------------------
INTERNAL COORDINATES (A.U.)
---------------------------
 B      0   0   0     0.000000000000     0.00000000     0.00000000
 N      1   0   0     2.653006957222     0.00000000     0.00000000
 B      2   1   0     2.645764660684   126.33108452     0.00000000
 N      3   2   1     2.754471384582   110.81049883     0.00000000
 B      4   3   2     2.757723387539   124.07182460     0.00000000
 N      1   2   3     2.675876760303   125.22308591     0.00000000
 B      2   1   3     2.652089645416   107.30272757   180.00019648
 N      7   2   1     2.669044234617   125.20014582   179.99990391
 B      8   7   2     2.766592539624   111.75116947     0.00000000
 N      3   2   1     2.752289516398   110.81401683   179.99989638
 N      1   2   3     2.673249138941   108.37047141   179.99984723
 N     11   1   2     2.626060679580   108.36029625     0.00000000
 B     11   1   2     2.642389478675   124.86317878   180.00077811
 N     13  11   1     2.768691168644   110.27798374     0.00000000
 B     14  13  11     2.745110892354   126.12731408     0.00000000
 B     12  11   1     2.647904620051   126.77598653   180.00064273
 B     16  12  11     3.269111399652   110.07390500     0.00000000
 N     17  16  12     2.725588722807   116.55857310     0.00000000
 B      8   7   2     2.763066868130   111.82152945   180.00007845
 N     19   8   7     2.737464156863   120.02748616     0.00000000
 H     20  19   8     1.904099777160   114.75850211   179.99989994
 H     19   8   7     2.251796438452   120.51175056   180.00024605
 H      9   8   7     2.250818095976   120.18269708   179.99919847
 H     10   3   2     1.904044231323   121.27271343   180.00067888
 H      4   3   2     1.904026197460   121.15557986   179.99979757
 H      5   4   3     2.250674016413   117.96792764   179.99992512
 H     15  14  13     2.250624910196   118.81508744   180.00010852
 H     14  13  11     1.904256686057   119.11274023   180.00008666
 H     18  17  16     1.908294673585   116.40350244   179.99951614
 H     17  16  12     2.260409131344   127.89928491   180.00031608

---------------------
BASIS SET INFORMATION
---------------------
There are 3 groups of distinct atoms

 Group   1 Type B   : 8s4p1d contracted to 4s2p1d pattern {5111/31/1}
 Group   2 Type N   : 8s4p1d contracted to 4s2p1d pattern {5111/31/1}
 Group   3 Type H   : 4s contracted to 2s pattern {31}

Atom   0B    basis set group =>   1
Atom   1N    basis set group =>   2
Atom   2B    basis set group =>   1
Atom   3N    basis set group =>   2
Atom   4B    basis set group =>   1
Atom   5N    basis set group =>   2
Atom   6B    basis set group =>   1
Atom   7N    basis set group =>   2
Atom   8B    basis set group =>   1
Atom   9N    basis set group =>   2
Atom  10N    basis set group =>   2
Atom  11N    basis set group =>   2
Atom  12B    basis set group =>   1
Atom  13N    basis set group =>   2
Atom  14B    basis set group =>   1
Atom  15B    basis set group =>   1
Atom  16B    basis set group =>   1
Atom  17N    basis set group =>   2
Atom  18B    basis set group =>   1
Atom  19N    basis set group =>   2
Atom  20H    basis set group =>   3
Atom  21H    basis set group =>   3
Atom  22H    basis set group =>   3
Atom  23H    basis set group =>   3
Atom  24H    basis set group =>   3
Atom  25H    basis set group =>   3
Atom  26H    basis set group =>   3
Atom  27H    basis set group =>   3
Atom  28H    basis set group =>   3
Atom  29H    basis set group =>   3
---------------------------------
AUXILIARY/J BASIS SET INFORMATION
---------------------------------
There are 3 groups of distinct atoms

 Group   1 Type B   : 12s5p4d2f1g contracted to 6s4p3d1f1g pattern {711111/2111/211/2/1}
 Group   2 Type N   : 12s5p4d2f1g contracted to 6s4p3d1f1g pattern {711111/2111/211/2/1}
 Group   3 Type H   : 5s2p1d contracted to 3s1p1d pattern {311/2/1}

Atom   0B    basis set group =>   1
Atom   1N    basis set group =>   2
Atom   2B    basis set group =>   1
Atom   3N    basis set group =>   2
Atom   4B    basis set group =>   1
Atom   5N    basis set group =>   2
Atom   6B    basis set group =>   1
Atom   7N    basis set group =>   2
Atom   8B    basis set group =>   1
Atom   9N    basis set group =>   2
Atom  10N    basis set group =>   2
Atom  11N    basis set group =>   2
Atom  12B    basis set group =>   1
Atom  13N    basis set group =>   2
Atom  14B    basis set group =>   1
Atom  15B    basis set group =>   1
Atom  16B    basis set group =>   1
Atom  17N    basis set group =>   2
Atom  18B    basis set group =>   1
Atom  19N    basis set group =>   2
Atom  20H    basis set group =>   3
Atom  21H    basis set group =>   3
Atom  22H    basis set group =>   3
Atom  23H    basis set group =>   3
Atom  24H    basis set group =>   3
Atom  25H    basis set group =>   3
Atom  26H    basis set group =>   3
Atom  27H    basis set group =>   3
Atom  28H    basis set group =>   3
Atom  29H    basis set group =>   3


           ************************************************************
           *        Program running with 4 parallel MPI-processes     *
           *              working on a common directory               *
           ************************************************************
------------------------------------------------------------------------------
                           ORCA GTO INTEGRAL CALCULATION
                           -- RI-GTO INTEGRALS CHOSEN --
------------------------------------------------------------------------------
------------------------------------------------------------------------------
                   ___                                                        
                  /   \      - P O W E R E D   B Y -                         
                 /     \                                                     
                 |  |  |   _    _      __       _____    __    __             
                 |  |  |  | |  | |    /  \     |  _  \  |  |  /  |          
                  \  \/   | |  | |   /    \    | | | |  |  | /  /          
                 / \  \   | |__| |  /  /\  \   | |_| |  |  |/  /          
                |  |  |   |  __  | /  /__\  \  |    /   |      \           
                |  |  |   | |  | | |   __   |  |    \   |  |\   \          
                \     /   | |  | | |  |  |  |  | |\  \  |  | \   \       
                 \___/    |_|  |_| |__|  |__|  |_| \__\ |__|  \__/        
                                                                              
                      - O R C A' S   B I G   F R I E N D -                    
                                      &                                       
                       - I N T E G R A L  F E E D E R -                       
                                                                              
 v1 FN, 2020, v2 2021                                                         
------------------------------------------------------------------------------


Reading SHARK input file pbeh-3c.SHARKINP.tmp ... ok
----------------------
SHARK INTEGRAL PACKAGE
----------------------

Number of atoms                             ...     30
Number of basis functions                   ...    320
Number of shells                            ...    160
Maximum angular momentum                    ...      2
Integral batch strategy                     ... SHARK/LIBINT Hybrid
RI-J (if used) integral strategy            ... SPLIT-RIJ (Revised 2003 algorithm where possible)
Printlevel                                  ...      1
Contraction scheme used                     ... SEGMENTED contraction
Coulomb Range Separation                    ... NOT USED
Exchange Range Separation                   ... NOT USED
Finite Nucleus Model                        ... NOT USED
Auxiliary Coulomb fitting basis             ... AVAILABLE
   # of basis functions in Aux-J            ...   1090
   # of shells in Aux-J                     ...    350
   Maximum angular momentum in Aux-J        ...      4
Auxiliary J/K fitting basis                 ... NOT available
Auxiliary Correlation fitting basis         ... NOT available
Auxiliary 'external' fitting basis          ... NOT available
Integral threshold                          ...     2.500000e-11
Primitive cut-off                           ...     2.500000e-12
Primitive pair pre-selection threshold      ...     2.500000e-12

Calculating pre-screening integrals         ... done (  0.1 sec) Dimension = 160
Organizing shell pair data                  ... done (  0.6 sec)
Shell pair information
Total number of shell pairs                 ...     12880
Shell pairs after pre-screening             ...      9805
Total number of primitive shell pairs       ...     45440
Primitive shell pairs kept                  ...     22584
          la=0 lb=0:   3315 shell pairs
          la=1 lb=0:   3454 shell pairs
          la=1 lb=1:    795 shell pairs
          la=2 lb=0:   1349 shell pairs
          la=2 lb=1:    732 shell pairs
          la=2 lb=2:    160 shell pairs

Calculating one electron integrals          ... done (  0.0 sec)
Calculating RI/J V-Matrix + Cholesky decomp.... done (  0.9 sec)
Calculating Nuclear repulsion               ... done (  0.1 sec) ENN=   1347.632790277299 Eh

SHARK setup successfully completed in   3.1 seconds

Maximum memory used throughout the entire GTOINT-calculation: 20.8 MB


           ************************************************************
           *        Program running with 4 parallel MPI-processes     *
           *              working on a common directory               *
           ************************************************************
-------------------------------------------------------------------------------
                                 ORCA SCF
-------------------------------------------------------------------------------

------------
SCF SETTINGS
------------
Hamiltonian:
 Density Functional     Method          .... DFT(GTOs)
 Exchange Functional    Exchange        .... PBE
   PBE kappa parameter   XKappa         ....  1.024500
   PBE mue parameter    XMuePBE         ....  0.123457
 Correlation Functional Correlation     .... PBE
   PBE beta parameter  CBetaPBE         ....  0.030000
 LDA part of GGA corr.  LDAOpt          .... PW91-LDA
 Gradients option       PostSCFGGA      .... off
 Hybrid DFT is turned on
   Fraction HF Exchange ScalHFX         ....  0.420000
   Scaling of DF-GGA-X  ScalDFX         ....  0.580000
   Scaling of DF-GGA-C  ScalDFC         ....  1.000000
   Scaling of DF-LDA-C  ScalLDAC        ....  1.000000
   Perturbative correction              ....  0.000000
   Density functional embedding theory  .... OFF
 RI-approximation to the Coulomb term is turned on
   Number of AuxJ basis functions       .... 1090
   RIJ-ON(X) (HFX calculated with O(N)) .... on
   Number of AuxJ basis functions       .... 1090
   RIJ-COSX (HFX calculated with COS-X)).... on


General Settings:
 Integral files         IntName         .... pbeh-3c
 Hartree-Fock type      HFTyp           .... RHF
 Total Charge           Charge          ....    0
 Multiplicity           Mult            ....    1
 Number of Electrons    NEL             ....  130
 Basis Dimension        Dim             ....  320
 Nuclear Repulsion      ENuc            ....   1347.6327902773 Eh

Convergence Acceleration:
 DIIS                   CNVDIIS         .... on
   Start iteration      DIISMaxIt       ....    12
   Startup error        DIISStart       ....  0.200000
   # of expansion vecs  DIISMaxEq       ....     5
   Bias factor          DIISBfac        ....   1.050
   Max. coefficient     DIISMaxC        ....  10.000
 Trust-Rad. Augm. Hess. CNVTRAH         .... auto
   Auto Start mean grad. ratio tolernc. ....  1.125000
   Auto Start start iteration           ....    20
   Auto Start num. interpolation iter.  ....    10
   Max. Number of Micro iterations      ....    16
   Max. Number of Macro iterations      .... Maxiter - #DIIS iter
   Number of Davidson start vectors     ....     2
   Converg. threshold I  (grad. norm)   ....   1.000e-05
   Converg. threshold II (energy diff.) ....   1.000e-08
   Grad. Scal. Fac. for Micro threshold ....   0.100
   Minimum threshold for Micro iter.    ....   0.010
   NR start threshold (gradient norm)   ....   0.001
   Initial trust radius                 ....   0.400
   Minimum AH scaling param. (alpha)    ....   1.000
   Maximum AH scaling param. (alpha)    .... 1000.000
   Orbital update algorithm             .... Taylor
   White noise on init. David. guess    .... on
   Maximum white noise                  ....   0.010
   Quad. conv. algorithm                .... NR
   COSX micro iterations for RIJONX calc.... off
 SOSCF                  CNVSOSCF        .... on
   Start iteration      SOSCFMaxIt      ....   150
   Startup grad/error   SOSCFStart      ....  0.003300
 Level Shifting         CNVShift        .... on
   Level shift para.    LevelShift      ....    0.2500
   Turn off err/grad.   ShiftErr        ....    0.0010
 Zerner damping         CNVZerner       .... off
 Static damping         CNVDamp         .... on
   Fraction old density DampFac         ....    0.7000
   Max. Damping (<1)    DampMax         ....    0.9800
   Min. Damping (>=0)   DampMin         ....    0.0000
   Turn off err/grad.   DampErr         ....    0.1000
 Fernandez-Rico         CNVRico         .... off

SCF Procedure:
 Maximum # iterations   MaxIter         ....   125
 SCF integral mode      SCFMode         .... Direct
   Integral package                     .... SHARK and LIBINT hybrid scheme
 Reset frequency        DirectResetFreq ....    20
 Integral Threshold     Thresh          ....  2.500e-11 Eh
 Primitive CutOff       TCut            ....  2.500e-12 Eh

Convergence Tolerance:
 Convergence Check Mode ConvCheckMode   .... Total+1el-Energy
 Convergence forced     ConvForced      .... 0
 Energy Change          TolE            ....  1.000e-08 Eh
 1-El. energy change                    ....  1.000e-05 Eh
 Orbital Gradient       TolG            ....  1.000e-05
 Orbital Rotation angle TolX            ....  1.000e-05
 DIIS Error             TolErr          ....  5.000e-07


Diagonalization of the overlap matrix:
Smallest eigenvalue                        ... 1.917e-03
Time for diagonalization                   ...    0.047 sec
Threshold for overlap eigenvalues          ... 1.000e-08
Number of eigenvalues below threshold      ... 0
Time for construction of square roots      ...    0.272 sec
Total time needed                          ...    0.591 sec

--------------------------------
INITIAL GUESS: MINIMAL BASIS EHT
--------------------------------
The minimal basis has 110 functions
EHT matrix was diagonalized
Basis set overlap was calculated now projecting the orbitals
Using GuessMode=FMatrix for the initial guess
C*T matrix was formed
Effective Fockian was calculated
Effective Fockian was diagonalized
Initial density was built
                      ------------------
                      INITIAL GUESS DONE
                      ------------------
-------------------
DFT GRID GENERATION
-------------------

General Integration Accuracy     IntAcc      ... 4.959
Radial Grid Type                 RadialGrid  ... OptM3 with GC (2021)
Angular Grid (max. ang.)         AngularGrid ... 6 (Lebedev-590)
Angular grid pruning method      GridPruning ... 4 (adaptive)
Weight generation scheme         WeightScheme... Becke
Basis function cutoff            BFCut       ... 1.0000e-11
Integration weight cutoff        WCut        ... 1.0000e-14
Angular grids for H and He will be reduced by one unit
Partially contracted basis set               ... off
Rotationally invariant grid construction     ... off

Total number of grid points                  ...   366351
Total number of batches                      ...     5740
Average number of points per batch           ...       63
Average number of grid points per atom       ...    12212
Time for grid setup =    7.023 sec

--------------------
COSX GRID GENERATION
--------------------

GRIDX 1
-------
General Integration Accuracy     IntAcc      ... 4.020
Radial Grid Type                 RadialGrid  ... OptM3 with GC (2021)
Angular Grid (max. ang.)         AngularGrid ... 2 (Lebedev-110)
Angular grid pruning method      GridPruning ... 4 (adaptive)
Weight generation scheme         WeightScheme... Becke
Basis function cutoff            BFCut       ... 1.0000e-11
Integration weight cutoff        WCut        ... 1.0000e-14
Angular grids for H and He will be reduced by one unit
Partially contracted basis set               ... on
Rotationally invariant grid construction     ... off

Total number of grid points                  ...    42223
Total number of batches                      ...      674
Average number of points per batch           ...       62
Average number of grid points per atom       ...     1407
UseSFitting                                  ... on

GRIDX 2
-------
General Integration Accuracy     IntAcc      ... 4.338
Radial Grid Type                 RadialGrid  ... OptM3 with GC (2021)
Angular Grid (max. ang.)         AngularGrid ... 3 (Lebedev-194)
Angular grid pruning method      GridPruning ... 4 (adaptive)
Weight generation scheme         WeightScheme... Becke
Basis function cutoff            BFCut       ... 1.0000e-11
Integration weight cutoff        WCut        ... 1.0000e-14
Angular grids for H and He will be reduced by one unit
Partially contracted basis set               ... on
Rotationally invariant grid construction     ... off

Total number of grid points                  ...    92757
Total number of batches                      ...     1465
Average number of points per batch           ...       63
Average number of grid points per atom       ...     3092
UseSFitting                                  ... on

GRIDX 3
-------
General Integration Accuracy     IntAcc      ... 4.871
Radial Grid Type                 RadialGrid  ... OptM3 with GC (2021)
Angular Grid (max. ang.)         AngularGrid ... 4 (Lebedev-302)
Angular grid pruning method      GridPruning ... 4 (adaptive)
Weight generation scheme         WeightScheme... Becke
Basis function cutoff            BFCut       ... 1.0000e-11
Integration weight cutoff        WCut        ... 1.0000e-14
Angular grids for H and He will be reduced by one unit
Partially contracted basis set               ... on
Rotationally invariant grid construction     ... off

Total number of grid points                  ...   170342
Total number of batches                      ...     2676
Average number of points per batch           ...       63
Average number of grid points per atom       ...     5678
UseSFitting                                  ... on

Time for X-Grid setup             =    7.082 sec

--------------
SCF ITERATIONS
--------------
ITER       Energy         Delta-E        Max-DP      RMS-DP      [F,P]     Damp
               ***  Starting incremental Fock matrix formation  ***
  0   -798.4657616445   0.000000000000 0.16207445  0.00297807  0.4327036 0.7000
  1   -799.3815363737  -0.915774729260 0.10651355  0.00212087  0.2888816 0.7000
                               ***Turning on DIIS***
  2   -799.9271815918  -0.545645218053 0.06211786  0.00138390  0.1962892 0.7000
  3   -800.2916360235  -0.364454431718 0.03584475  0.00094022  0.1416852 0.7000
  4   -800.5485036678  -0.256867644352 0.08683606  0.00227188  0.0993984 0.0000
  5   -801.1668536116  -0.618349943715 0.01267088  0.00019643  0.0126117 0.0000
  6   -801.1679790885  -0.001125476904 0.00271739  0.00006614  0.0050128 0.0000
                      *** Initiating the SOSCF procedure ***
                           *** Shutting down DIIS ***
                      *** Re-Reading the Fockian *** 
                      *** Removing any level shift *** 
ITER      Energy       Delta-E        Grad      Rot      Max-DP    RMS-DP
  7   -801.16828573  -0.0003066437  0.000868  0.000868  0.001118  0.000033
               *** Restarting incremental Fock matrix formation ***
  8   -801.16832898  -0.0000432434  0.000524  0.002136  0.000899  0.000021
  9   -801.16833684  -0.0000078606  0.000111  0.000969  0.000612  0.000013
 10   -801.16833722  -0.0000003888  0.000167  0.000191  0.000265  0.000005
 11   -801.16833806  -0.0000008385  0.000011  0.000057  0.000058  0.000001
 12   -801.16833808  -0.0000000183  0.000010  0.000033  0.000023  0.000000
                  ***Gradient check signals convergence***
              ***Rediagonalizing the Fockian in SOSCF/NRSCF***

               *****************************************************
               *                     SUCCESS                       *
               *           SCF CONVERGED AFTER  13 CYCLES          *
               *****************************************************

Old exchange energy                            =    -45.931338027 Eh
New exchange energy                            =    -45.931327231 Eh
Exchange energy change after final integration =      0.000010796 Eh
Total energy after final integration           =   -801.168327275 Eh
Final COS-X integration done in                =    31.848 sec

----------------
TOTAL SCF ENERGY
----------------

Total Energy       :         -801.16832727 Eh          -21800.89852 eV

Components:
Nuclear Repulsion  :         1347.63279028 Eh           36670.95254 eV
Electronic Energy  :        -2148.80111755 Eh          -58471.85106 eV
One Electron Energy:        -3766.65855743 Eh         -102495.99014 eV
Two Electron Energy:         1617.85743988 Eh           44024.13908 eV
Max COSX asymmetry :            0.00000394 Eh               0.00011 eV

Virial components:
Potential Energy   :        -1595.99507802 Eh          -43429.23397 eV
Kinetic Energy     :          794.82675075 Eh           21628.33545 eV
Virial Ratio       :            2.00797856


DFT components:
N(Alpha)           :       64.999995296054 electrons
N(Beta)            :       64.999995296054 electrons
N(Total)           :      129.999990592109 electrons
E(X)               :      -60.942939936273 Eh       
E(C)               :       -5.690464272813 Eh       
E(XC)              :      -66.633404209086 Eh       
DFET-embed. en.    :        0.000000000000 Eh       

---------------
SCF CONVERGENCE
---------------

  Last Energy change         ...    1.1013e-08  Tolerance :   1.0000e-08
  Last MAX-Density change    ...    3.1086e-15  Tolerance :   1.0000e-07
  Last RMS-Density change    ...    3.2332e-17  Tolerance :   5.0000e-09
  Last Orbital Gradient      ...    1.4215e-06  Tolerance :   1.0000e-05
  Last Orbital Rotation      ...    2.5054e-06  Tolerance :   1.0000e-05

             **** THE GBW FILE WAS UPDATED (pbeh-3c.gbw) ****
             **** DENSITY pbeh-3c.scfp WAS UPDATED ****
             **** ENERGY FILE WAS UPDATED (pbeh-3c.en.tmp) ****
             **** THE GBW FILE WAS UPDATED (pbeh-3c.gbw) ****
             **** DENSITY pbeh-3c.scfp WAS UPDATED ****
----------------
ORBITAL ENERGIES
----------------

  NO   OCC          E(Eh)            E(eV) 
   0   2.0000     -14.648423      -398.6038 
   1   2.0000     -14.644361      -398.4933 
   2   2.0000     -14.638839      -398.3431 
   3   2.0000     -14.631180      -398.1346 
   4   2.0000     -14.631145      -398.1337 
   5   2.0000     -14.630737      -398.1226 
   6   2.0000     -14.621080      -397.8598 
   7   2.0000     -14.619511      -397.8171 
   8   2.0000     -14.617323      -397.7576 
   9   2.0000     -14.590880      -397.0380 
  10   2.0000      -6.988647      -190.1707 
  11   2.0000      -6.987693      -190.1448 
  12   2.0000      -6.984283      -190.0520 
  13   2.0000      -6.982890      -190.0141 
  14   2.0000      -6.980657      -189.9533 
  15   2.0000      -6.973119      -189.7482 
  16   2.0000      -6.961406      -189.4295 
  17   2.0000      -6.960534      -189.4058 
  18   2.0000      -6.953422      -189.2122 
  19   2.0000      -6.951655      -189.1642 
  20   2.0000      -1.102930       -30.0123 
  21   2.0000      -1.003882       -27.3170 
  22   2.0000      -0.987201       -26.8631 
  23   2.0000      -0.967235       -26.3198 
  24   2.0000      -0.957875       -26.0651 
  25   2.0000      -0.949680       -25.8421 
  26   2.0000      -0.931998       -25.3610 
  27   2.0000      -0.923780       -25.1373 
  28   2.0000      -0.917690       -24.9716 
  29   2.0000      -0.842635       -22.9293 
  30   2.0000      -0.688973       -18.7479 
  31   2.0000      -0.643250       -17.5037 
  32   2.0000      -0.637756       -17.3542 
  33   2.0000      -0.614907       -16.7325 
  34   2.0000      -0.607219       -16.5233 
  35   2.0000      -0.593661       -16.1543 
  36   2.0000      -0.574870       -15.6430 
  37   2.0000      -0.564784       -15.3686 
  38   2.0000      -0.550807       -14.9882 
  39   2.0000      -0.544888       -14.8272 
  40   2.0000      -0.536705       -14.6045 
  41   2.0000      -0.522032       -14.2052 
  42   2.0000      -0.512548       -13.9472 
  43   2.0000      -0.502143       -13.6640 
  44   2.0000      -0.487326       -13.2608 
  45   2.0000      -0.481837       -13.1115 
  46   2.0000      -0.477091       -12.9823 
  47   2.0000      -0.468585       -12.7508 
  48   2.0000      -0.449031       -12.2187 
  49   2.0000      -0.432663       -11.7734 
  50   2.0000      -0.429301       -11.6819 
  51   2.0000      -0.422801       -11.5050 
  52   2.0000      -0.419749       -11.4220 
  53   2.0000      -0.402810       -10.9610 
  54   2.0000      -0.398168       -10.8347 
  55   2.0000      -0.380464       -10.3530 
  56   2.0000      -0.372316       -10.1312 
  57   2.0000      -0.371865       -10.1190 
  58   2.0000      -0.362859        -9.8739 
  59   2.0000      -0.354857        -9.6562 
  60   2.0000      -0.330932        -9.0051 
  61   2.0000      -0.322355        -8.7717 
  62   2.0000      -0.315053        -8.5730 
  63   2.0000      -0.312307        -8.4983 
  64   2.0000      -0.264982        -7.2105 
  65   0.0000      -0.019508        -0.5308 
  66   0.0000       0.011922         0.3244 
  67   0.0000       0.042802         1.1647 
  68   0.0000       0.061517         1.6740 
  69   0.0000       0.065686         1.7874 
  70   0.0000       0.086630         2.3573 
  71   0.0000       0.108181         2.9437 
  72   0.0000       0.116828         3.1790 
  73   0.0000       0.125381         3.4118 
  74   0.0000       0.134129         3.6498 
  75   0.0000       0.134692         3.6651 
  76   0.0000       0.139451         3.7947 
  77   0.0000       0.146516         3.9869 
  78   0.0000       0.147164         4.0045 
  79   0.0000       0.165233         4.4962 
  80   0.0000       0.171525         4.6674 
  81   0.0000       0.176433         4.8010 
  82   0.0000       0.179490         4.8842 
  83   0.0000       0.191369         5.2074 
  84   0.0000       0.194622         5.2959 
  85   0.0000       0.205515         5.5924 
  86   0.0000       0.211478         5.7546 
  87   0.0000       0.218636         5.9494 
  88   0.0000       0.223783         6.0894 
  89   0.0000       0.237596         6.4653 
  90   0.0000       0.246286         6.7018 
  91   0.0000       0.252004         6.8574 
  92   0.0000       0.262577         7.1451 
  93   0.0000       0.264569         7.1993 
  94   0.0000       0.269210         7.3256 
  95   0.0000       0.275719         7.5027 
  96   0.0000       0.276619         7.5272 
  97   0.0000       0.291141         7.9224 
  98   0.0000       0.306724         8.3464 
  99   0.0000       0.322086         8.7644 
 100   0.0000       0.332596         9.0504 
 101   0.0000       0.340961         9.2780 
 102   0.0000       0.342663         9.3243 
 103   0.0000       0.347163         9.4468 
 104   0.0000       0.349283         9.5045 
 105   0.0000       0.356961         9.7134 
 106   0.0000       0.367879        10.0105 
 107   0.0000       0.375772        10.2253 
 108   0.0000       0.379775        10.3342 
 109   0.0000       0.379896        10.3375 
 110   0.0000       0.382522        10.4089 
 111   0.0000       0.393560        10.7093 
 112   0.0000       0.399023        10.8580 
 113   0.0000       0.402064        10.9407 
 114   0.0000       0.408019        11.1028 
 115   0.0000       0.416645        11.3375 
 116   0.0000       0.434500        11.8234 
 117   0.0000       0.437397        11.9022 
 118   0.0000       0.443957        12.0807 
 119   0.0000       0.454233        12.3603 
 120   0.0000       0.456556        12.4235 
 121   0.0000       0.462844        12.5946 
 122   0.0000       0.467676        12.7261 
 123   0.0000       0.471786        12.8380 
 124   0.0000       0.481209        13.0944 
 125   0.0000       0.492135        13.3917 
 126   0.0000       0.521064        14.1789 
 127   0.0000       0.524474        14.2716 
 128   0.0000       0.534042        14.5320 
 129   0.0000       0.542203        14.7541 
 130   0.0000       0.574613        15.6360 
 131   0.0000       0.591769        16.1029 
 132   0.0000       0.594947        16.1893 
 133   0.0000       0.618101        16.8194 
 134   0.0000       0.637491        17.3470 
 135   0.0000       0.668138        18.1810 
 136   0.0000       0.674990        18.3674 
 137   0.0000       0.684531        18.6270 
 138   0.0000       0.721339        19.6286 
 139   0.0000       0.730384        19.8748 
 140   0.0000       0.742201        20.1963 
 141   0.0000       0.762331        20.7441 
 142   0.0000       0.766823        20.8663 
 143   0.0000       0.783013        21.3069 
 144   0.0000       0.790427        21.5086 
 145   0.0000       0.794689        21.6246 
 146   0.0000       0.811986        22.0953 
 147   0.0000       0.839470        22.8431 
 148   0.0000       0.860406        23.4128 
 149   0.0000       0.871775        23.7222 
 150   0.0000       0.872899        23.7528 
 151   0.0000       0.886235        24.1157 
 152   0.0000       0.903276        24.5794 
 153   0.0000       0.931516        25.3478 
 154   0.0000       0.960198        26.1283 
 155   0.0000       0.963246        26.2113 
 156   0.0000       0.969668        26.3860 
 157   0.0000       0.969715        26.3873 
 158   0.0000       0.992587        27.0097 
 159   0.0000       1.013785        27.5865 
 160   0.0000       1.020271        27.7630 
 161   0.0000       1.024171        27.8691 
 162   0.0000       1.025380        27.9020 
 163   0.0000       1.043850        28.4046 
 164   0.0000       1.051353        28.6088 
 165   0.0000       1.052180        28.6313 
 166   0.0000       1.068543        29.0765 
 167   0.0000       1.069479        29.1020 
 168   0.0000       1.070534        29.1307 
 169   0.0000       1.083336        29.4791 
 170   0.0000       1.093711        29.7614 
 171   0.0000       1.121670        30.5222 
 172   0.0000       1.143068        31.1045 
 173   0.0000       1.158196        31.5161 
 174   0.0000       1.166339        31.7377 
 175   0.0000       1.187259        32.3070 
 176   0.0000       1.233051        33.5530 
 177   0.0000       1.279351        34.8129 
 178   0.0000       1.285447        34.9788 
 179   0.0000       1.313563        35.7439 
 180   0.0000       1.322002        35.9735 
 181   0.0000       1.324604        36.0443 
 182   0.0000       1.328664        36.1548 
 183   0.0000       1.336607        36.3709 
 184   0.0000       1.356635        36.9159 
 185   0.0000       1.362802        37.0837 
 186   0.0000       1.369883        37.2764 
 187   0.0000       1.373799        37.3830 
 188   0.0000       1.401294        38.1311 
 189   0.0000       1.442415        39.2501 
 190   0.0000       1.444523        39.3075 
 191   0.0000       1.445344        39.3298 
 192   0.0000       1.464314        39.8460 
 193   0.0000       1.473907        40.1070 
 194   0.0000       1.481465        40.3127 
 195   0.0000       1.485392        40.4196 
 196   0.0000       1.502409        40.8826 
 197   0.0000       1.506437        40.9922 
 198   0.0000       1.518236        41.3133 
 199   0.0000       1.520925        41.3865 
 200   0.0000       1.540652        41.9233 
 201   0.0000       1.555146        42.3177 
 202   0.0000       1.559861        42.4460 
 203   0.0000       1.570127        42.7253 
 204   0.0000       1.574235        42.8371 
 205   0.0000       1.575236        42.8643 
 206   0.0000       1.588481        43.2248 
 207   0.0000       1.597741        43.4767 
 208   0.0000       1.608254        43.7628 
 209   0.0000       1.629965        44.3536 
 210   0.0000       1.647194        44.8224 
 211   0.0000       1.665889        45.3311 
 212   0.0000       1.706049        46.4240 
 213   0.0000       1.713537        46.6277 
 214   0.0000       1.762781        47.9677 
 215   0.0000       1.788922        48.6790 
 216   0.0000       1.800324        48.9893 
 217   0.0000       1.831933        49.8494 
 218   0.0000       1.851152        50.3724 
 219   0.0000       1.868596        50.8471 
 220   0.0000       1.889590        51.4184 
 221   0.0000       1.920300        52.2540 
 222   0.0000       1.932823        52.5948 
 223   0.0000       1.937841        52.7313 
 224   0.0000       1.939351        52.7724 
 225   0.0000       1.964686        53.4618 
 226   0.0000       1.979515        53.8654 
 227   0.0000       2.000503        54.4364 
 228   0.0000       2.010734        54.7148 
 229   0.0000       2.026080        55.1324 
 230   0.0000       2.028535        55.1992 
 231   0.0000       2.031531        55.2808 
 232   0.0000       2.041775        55.5595 
 233   0.0000       2.051608        55.8271 
 234   0.0000       2.070020        56.3281 
 235   0.0000       2.075403        56.4746 
 236   0.0000       2.084303        56.7168 
 237   0.0000       2.117458        57.6190 
 238   0.0000       2.136170        58.1281 
 239   0.0000       2.154537        58.6279 
 240   0.0000       2.166494        58.9533 
 241   0.0000       2.169710        59.0408 
 242   0.0000       2.177104        59.2420 
 243   0.0000       2.195118        59.7322 
 244   0.0000       2.200601        59.8814 
 245   0.0000       2.242254        61.0148 
 246   0.0000       2.260816        61.5199 
 247   0.0000       2.263204        61.5849 
 248   0.0000       2.275260        61.9130 
 249   0.0000       2.277414        61.9716 
 250   0.0000       2.284089        62.1532 
 251   0.0000       2.316111        63.0246 
 252   0.0000       2.319815        63.1254 
 253   0.0000       2.322662        63.2028 
 254   0.0000       2.332034        63.4579 
 255   0.0000       2.340420        63.6861 
 256   0.0000       2.360862        64.2423 
 257   0.0000       2.377267        64.6887 
 258   0.0000       2.383470        64.8575 
 259   0.0000       2.395387        65.1818 
 260   0.0000       2.397856        65.2490 
 261   0.0000       2.406293        65.4785 
 262   0.0000       2.445680        66.5503 
 263   0.0000       2.463415        67.0329 
 264   0.0000       2.479228        67.4632 
 265   0.0000       2.479713        67.4764 
 266   0.0000       2.496522        67.9338 
 267   0.0000       2.501383        68.0661 
 268   0.0000       2.590950        70.5033 
 269   0.0000       2.621058        71.3226 
 270   0.0000       2.626556        71.4722 
 271   0.0000       2.635795        71.7236 
 272   0.0000       2.641966        71.8915 
 273   0.0000       2.710920        73.7679 
 274   0.0000       2.759323        75.0850 
 275   0.0000       2.761495        75.1441 
 276   0.0000       2.768095        75.3237 
 277   0.0000       2.776427        75.5504 
 278   0.0000       2.787178        75.8430 
 279   0.0000       2.789397        75.9033 
 280   0.0000       2.790438        75.9317 
 281   0.0000       2.806056        76.3567 
 282   0.0000       2.819833        76.7315 
 283   0.0000       2.865362        77.9705 
 284   0.0000       2.899855        78.9091 
 285   0.0000       2.925970        79.6197 
 286   0.0000       2.946601        80.1811 
 287   0.0000       2.950389        80.2842 
 288   0.0000       2.983363        81.1814 
 289   0.0000       2.998627        81.5968 
 290   0.0000       3.031110        82.4807 
 291   0.0000       3.069058        83.5133 
 292   0.0000       3.092116        84.1408 
 293   0.0000       3.127189        85.0951 
 294   0.0000       3.178376        86.4880 
 295   0.0000       3.359574        91.4186 
 296   0.0000       3.406180        92.6869 
 297   0.0000       3.502521        95.3084 
 298   0.0000       3.527557        95.9897 
 299   0.0000       3.667379        99.7945 
 300   0.0000       9.184862       249.9328 
 301   0.0000       9.371258       255.0049 
 302   0.0000       9.427023       256.5223 
 303   0.0000       9.432441       256.6698 
 304   0.0000       9.469473       257.6774 
 305   0.0000       9.549618       259.8583 
 306   0.0000       9.661421       262.9006 
 307   0.0000       9.708702       264.1872 
 308   0.0000       9.847200       267.9559 
 309   0.0000       9.875747       268.7327 
 310   0.0000      19.053613       518.4752 
 311   0.0000      19.143387       520.9180 
 312   0.0000      19.180044       521.9155 
 313   0.0000      19.208643       522.6938 
 314   0.0000      19.259150       524.0681 
 315   0.0000      19.274454       524.4845 
 316   0.0000      19.330444       526.0081 
 317   0.0000      19.347338       526.4678 
 318   0.0000      19.497216       530.5462 
 319   0.0000      19.498859       530.5909 

                    ********************************
                    * MULLIKEN POPULATION ANALYSIS *
                    ********************************

-----------------------
MULLIKEN ATOMIC CHARGES
-----------------------
   0 B :    0.535985
   1 N :   -0.479824
   2 B :    0.511715
   3 N :   -0.680993
   4 B :    0.267967
   5 N :   -0.515173
   6 B :    0.528974
   7 N :   -0.509077
   8 B :    0.268446
   9 N :   -0.680996
  10 N :   -0.292154
  11 N :   -0.282669
  12 B :    0.518347
  13 N :   -0.689059
  14 B :    0.251310
  15 B :    0.324154
  16 B :    0.003317
  17 N :   -0.631731
  18 B :    0.233267
  19 N :   -0.674756
  20 H :    0.363307
  21 H :    0.039262
  22 H :    0.038633
  23 H :    0.360441
  24 H :    0.360576
  25 H :    0.038429
  26 H :    0.040356
  27 H :    0.361762
  28 H :    0.361337
  29 H :    0.028845
Sum of atomic charges:   -0.0000000

--------------------------------
MULLIKEN REDUCED ORBITAL CHARGES
--------------------------------
  0 B s       :     2.590109  s :     2.590109
      pz      :     0.478725  p :     1.789811
      px      :     0.668605
      py      :     0.642482
      dz2     :     0.006947  d :     0.084094
      dxz     :     0.012146
      dyz     :     0.010508
      dx2y2   :     0.026918
      dxy     :     0.027576
  1 N s       :     3.449999  s :     3.449999
      pz      :     1.527924  p :     4.016915
      px      :     1.285412
      py      :     1.203579
      dz2     :     0.001581  d :     0.012909
      dxz     :     0.001576
      dyz     :     0.001948
      dx2y2   :     0.002849
      dxy     :     0.004954
  2 B s       :     2.593769  s :     2.593769
      pz      :     0.445441  p :     1.814531
      px      :     0.654441
      py      :     0.714649
      dz2     :     0.006734  d :     0.079985
      dxz     :     0.012164
      dyz     :     0.009255
      dx2y2   :     0.030654
      dxy     :     0.021177
  3 N s       :     3.545774  s :     3.545774
      pz      :     1.623280  p :     4.120095
      px      :     1.260256
      py      :     1.236559
      dz2     :     0.002904  d :     0.015123
      dxz     :     0.000861
      dyz     :     0.000378
      dx2y2   :     0.008389
      dxy     :     0.002592
  4 B s       :     2.808301  s :     2.808301
      pz      :     0.364068  p :     1.866568
      px      :     0.806462
      py      :     0.696038
      dz2     :     0.005760  d :     0.057164
      dxz     :     0.004239
      dyz     :     0.008255
      dx2y2   :     0.018723
      dxy     :     0.020188
  5 N s       :     3.499475  s :     3.499475
      pz      :     1.518718  p :     4.002950
      px      :     1.275785
      py      :     1.208447
      dz2     :     0.001468  d :     0.012748
      dxz     :     0.001284
      dyz     :     0.001060
      dx2y2   :     0.004988
      dxy     :     0.003948
  6 B s       :     2.595504  s :     2.595504
      pz      :     0.475173  p :     1.792160
      px      :     0.672399
      py      :     0.644588
      dz2     :     0.006916  d :     0.083362
      dxz     :     0.012174
      dyz     :     0.009844
      dx2y2   :     0.027255
      dxy     :     0.027173
  7 N s       :     3.499679  s :     3.499679
      pz      :     1.512065  p :     3.996527
      px      :     1.276018
      py      :     1.208444
      dz2     :     0.001457  d :     0.012871
      dxz     :     0.001348
      dyz     :     0.001042
      dx2y2   :     0.004984
      dxy     :     0.004040
  8 B s       :     2.808606  s :     2.808606
      pz      :     0.363018  p :     1.865840
      px      :     0.800086
      py      :     0.702735
      dz2     :     0.005755  d :     0.057108
      dxz     :     0.004334
      dyz     :     0.008095
      dx2y2   :     0.018743
      dxy     :     0.020181
  9 N s       :     3.545995  s :     3.545995
      pz      :     1.622368  p :     4.119867
      px      :     1.261412
      py      :     1.236086
      dz2     :     0.002901  d :     0.015134
      dxz     :     0.000861
      dyz     :     0.000377
      dx2y2   :     0.008576
      dxy     :     0.002419
 10 N s       :     3.458065  s :     3.458065
      pz      :     1.583015  p :     3.795784
      px      :     0.961258
      py      :     1.251511
      dz2     :     0.003579  d :     0.038305
      dxz     :     0.009917
      dyz     :     0.001835
      dx2y2   :     0.013171
      dxy     :     0.009804
 11 N s       :     3.471129  s :     3.471129
      pz      :     1.550443  p :     3.771258
      px      :     0.961099
      py      :     1.259717
      dz2     :     0.003573  d :     0.040282
      dxz     :     0.009952
      dyz     :     0.001542
      dx2y2   :     0.015864
      dxy     :     0.009351
 12 B s       :     2.598273  s :     2.598273
      pz      :     0.472543  p :     1.805444
      px      :     0.639707
      py      :     0.693194
      dz2     :     0.006797  d :     0.077936
      dxz     :     0.010661
      dyz     :     0.011206
      dx2y2   :     0.019995
      dxy     :     0.029277
 13 N s       :     3.547295  s :     3.547295
      pz      :     1.629245  p :     4.126692
      px      :     1.240330
      py      :     1.257117
      dz2     :     0.002941  d :     0.015071
      dxz     :     0.000967
      dyz     :     0.000557
      dx2y2   :     0.001626
      dxy     :     0.008981
 14 B s       :     2.805619  s :     2.805619
      pz      :     0.375060  p :     1.885062
      px      :     0.885065
      py      :     0.624937
      dz2     :     0.005844  d :     0.058009
      dxz     :     0.003003
      dyz     :     0.009706
      dx2y2   :     0.019538
      dxy     :     0.019917
 15 B s       :     2.805121  s :     2.805121
      pz      :     0.416135  p :     1.815195
      px      :     0.632794
      py      :     0.766266
      dz2     :     0.005660  d :     0.055530
      dxz     :     0.008814
      dyz     :     0.004984
      dx2y2   :     0.013075
      dxy     :     0.022996
 16 B s       :     2.956116  s :     2.956116
      pz      :     0.293013  p :     2.004631
      px      :     0.696747
      py      :     1.014871
      dz2     :     0.004350  d :     0.035936
      dxz     :     0.006178
      dyz     :     0.000419
      dx2y2   :     0.015932
      dxy     :     0.009057
 17 N s       :     3.545092  s :     3.545092
      pz      :     1.573711  p :     4.069967
      px      :     1.262252
      py      :     1.234005
      dz2     :     0.002772  d :     0.016671
      dxz     :     0.000501
      dyz     :     0.000630
      dx2y2   :     0.002314
      dxy     :     0.010454
 18 B s       :     2.810114  s :     2.810114
      pz      :     0.379816  p :     1.898782
      px      :     0.885576
      py      :     0.633390
      dz2     :     0.005831  d :     0.057836
      dxz     :     0.003012
      dyz     :     0.009479
      dx2y2   :     0.019405
      dxy     :     0.020110
 19 N s       :     3.552781  s :     3.552781
      pz      :     1.599645  p :     4.106157
      px      :     1.254041
      py      :     1.252472
      dz2     :     0.002871  d :     0.015818
      dxz     :     0.000928
      dyz     :     0.000555
      dx2y2   :     0.001845
      dxy     :     0.009620
 20 H s       :     0.636693  s :     0.636693
 21 H s       :     0.960738  s :     0.960738
 22 H s       :     0.961367  s :     0.961367
 23 H s       :     0.639559  s :     0.639559
 24 H s       :     0.639424  s :     0.639424
 25 H s       :     0.961571  s :     0.961571
 26 H s       :     0.959644  s :     0.959644
 27 H s       :     0.638238  s :     0.638238
 28 H s       :     0.638663  s :     0.638663
 29 H s       :     0.971155  s :     0.971155


                     *******************************
                     * LOEWDIN POPULATION ANALYSIS *
                     *******************************

----------------------
LOEWDIN ATOMIC CHARGES
----------------------
   0 B :    0.092595
   1 N :   -0.141818
   2 B :    0.116999
   3 N :   -0.303379
   4 B :    0.090551
   5 N :   -0.187832
   6 B :    0.096067
   7 N :   -0.184533
   8 B :    0.091356
   9 N :   -0.302691
  10 N :   -0.040048
  11 N :   -0.019647
  12 B :    0.091398
  13 N :   -0.304111
  14 B :    0.075230
  15 B :   -0.006973
  16 B :   -0.041314
  17 N :   -0.260307
  18 B :    0.066861
  19 N :   -0.283686
  20 H :    0.269853
  21 H :    0.002421
  22 H :    0.003436
  23 H :    0.267586
  24 H :    0.267673
  25 H :    0.003278
  26 H :    0.003285
  27 H :    0.269201
  28 H :    0.265021
  29 H :    0.003529

-------------------------------
LOEWDIN REDUCED ORBITAL CHARGES
-------------------------------
  0 B s       :     2.578143  s :     2.578143
      pz      :     0.529493  p :     2.140603
      px      :     0.823617
      py      :     0.787493
      dz2     :     0.015510  d :     0.188659
      dxz     :     0.025262
      dyz     :     0.022587
      dx2y2   :     0.061293
      dxy     :     0.064007
  1 N s       :     3.059770  s :     3.059770
      pz      :     1.444804  p :     4.035207
      px      :     1.311005
      py      :     1.279398
      dz2     :     0.003419  d :     0.046841
      dxz     :     0.003804
      dyz     :     0.004407
      dx2y2   :     0.015456
      dxy     :     0.019755
  2 B s       :     2.606961  s :     2.606961
      pz      :     0.501841  p :     2.099976
      px      :     0.810201
      py      :     0.787934
      dz2     :     0.014608  d :     0.176063
      dxz     :     0.024957
      dyz     :     0.019595
      dx2y2   :     0.069575
      dxy     :     0.047328
  3 N s       :     3.148163  s :     3.148163
      pz      :     1.562458  p :     4.117522
      px      :     1.319428
      py      :     1.235635
      dz2     :     0.003575  d :     0.037695
      dxz     :     0.002107
      dyz     :     0.000744
      dx2y2   :     0.020131
      dxy     :     0.011138
  4 B s       :     2.716236  s :     2.716236
      pz      :     0.412802  p :     2.076724
      px      :     0.873086
      py      :     0.790836
      dz2     :     0.010838  d :     0.116490
      dxz     :     0.007911
      dyz     :     0.017009
      dx2y2   :     0.038339
      dxy     :     0.042394
  5 N s       :     3.095679  s :     3.095679
      pz      :     1.435380  p :     4.053117
      px      :     1.331375
      py      :     1.286362
      dz2     :     0.002556  d :     0.039037
      dxz     :     0.002964
      dyz     :     0.002262
      dx2y2   :     0.016200
      dxy     :     0.015055
  6 B s       :     2.580367  s :     2.580367
      pz      :     0.525651  p :     2.136457
      px      :     0.825273
      py      :     0.785533
      dz2     :     0.015478  d :     0.187109
      dxz     :     0.025332
      dyz     :     0.020982
      dx2y2   :     0.062182
      dxy     :     0.063134
  7 N s       :     3.096528  s :     3.096528
      pz      :     1.428900  p :     4.048750
      px      :     1.332412
      py      :     1.287438
      dz2     :     0.002561  d :     0.039255
      dxz     :     0.003044
      dyz     :     0.002227
      dx2y2   :     0.016354
      dxy     :     0.015070
  8 B s       :     2.716545  s :     2.716545
      pz      :     0.411653  p :     2.075784
      px      :     0.869821
      py      :     0.794310
      dz2     :     0.010827  d :     0.116315
      dxz     :     0.008129
      dyz     :     0.016618
      dx2y2   :     0.038233
      dxy     :     0.042508
  9 N s       :     3.148213  s :     3.148213
      pz      :     1.561488  p :     4.116753
      px      :     1.320455
      py      :     1.234810
      dz2     :     0.003579  d :     0.037725
      dxz     :     0.002107
      dyz     :     0.000744
      dx2y2   :     0.020472
      dxy     :     0.010825
 10 N s       :     3.043423  s :     3.043423
      pz      :     1.512096  p :     3.900155
      px      :     1.078964
      py      :     1.309096
      dz2     :     0.006906  d :     0.096469
      dxz     :     0.021630
      dyz     :     0.004001
      dx2y2   :     0.036327
      dxy     :     0.027605
 11 N s       :     3.049746  s :     3.049746
      pz      :     1.473569  p :     3.869890
      px      :     1.076839
      py      :     1.319482
      dz2     :     0.006909  d :     0.100011
      dxz     :     0.021935
      dyz     :     0.003411
      dx2y2   :     0.041524
      dxy     :     0.026232
 12 B s       :     2.615539  s :     2.615539
      pz      :     0.530468  p :     2.121227
      px      :     0.793075
      py      :     0.797684
      dz2     :     0.014680  d :     0.171836
      dxz     :     0.022199
      dyz     :     0.023177
      dx2y2   :     0.046085
      dxy     :     0.065695
 13 N s       :     3.146351  s :     3.146351
      pz      :     1.568024  p :     4.120496
      px      :     1.268706
      py      :     1.283767
      dz2     :     0.003537  d :     0.037264
      dxz     :     0.002294
      dyz     :     0.001255
      dx2y2   :     0.009219
      dxy     :     0.020959
 14 B s       :     2.715365  s :     2.715365
      pz      :     0.424255  p :     2.090533
      px      :     0.902895
      py      :     0.763383
      dz2     :     0.011012  d :     0.118872
      dxz     :     0.005176
      dyz     :     0.020259
      dx2y2   :     0.041884
      dxy     :     0.040540
 15 B s       :     2.710568  s :     2.710568
      pz      :     0.464839  p :     2.174855
      px      :     0.782399
      py      :     0.927617
      dz2     :     0.011614  d :     0.121551
      dxz     :     0.018834
      dyz     :     0.009223
      dx2y2   :     0.030811
      dxy     :     0.051069
 16 B s       :     2.804221  s :     2.804221
      pz      :     0.327731  p :     2.164639
      px      :     0.833820
      py      :     1.003087
      dz2     :     0.007795  d :     0.072454
      dxz     :     0.012004
      dyz     :     0.000687
      dx2y2   :     0.031803
      dxy     :     0.020165
 17 N s       :     3.145555  s :     3.145555
      pz      :     1.507088  p :     4.073850
      px      :     1.310783
      py      :     1.255980
      dz2     :     0.003376  d :     0.040902
      dxz     :     0.001117
      dyz     :     0.001559
      dx2y2   :     0.010655
      dxy     :     0.024196
 18 B s       :     2.717505  s :     2.717505
      pz      :     0.428225  p :     2.097109
      px      :     0.900878
      py      :     0.768006
      dz2     :     0.010987  d :     0.118524
      dxz     :     0.005216
      dyz     :     0.019628
      dx2y2   :     0.041485
      dxy     :     0.041208
 19 N s       :     3.147824  s :     3.147824
      pz      :     1.539444  p :     4.097133
      px      :     1.275073
      py      :     1.282616
      dz2     :     0.003446  d :     0.038729
      dxz     :     0.002149
      dyz     :     0.001248
      dx2y2   :     0.009671
      dxy     :     0.022216
 20 H s       :     0.730147  s :     0.730147
 21 H s       :     0.997579  s :     0.997579
 22 H s       :     0.996564  s :     0.996564
 23 H s       :     0.732414  s :     0.732414
 24 H s       :     0.732327  s :     0.732327
 25 H s       :     0.996722  s :     0.996722
 26 H s       :     0.996715  s :     0.996715
 27 H s       :     0.730799  s :     0.730799
 28 H s       :     0.734979  s :     0.734979
 29 H s       :     0.996471  s :     0.996471


                      *****************************
                      * MAYER POPULATION ANALYSIS *
                      *****************************

  NA   - Mulliken gross atomic population
  ZA   - Total nuclear charge
  QA   - Mulliken gross atomic charge
  VA   - Mayer's total valence
  BVA  - Mayer's bonded valence
  FA   - Mayer's free valence

  ATOM       NA         ZA         QA         VA         BVA        FA
  0 B      4.4640     5.0000     0.5360     3.3423     3.3423    -0.0000
  1 N      7.4798     7.0000    -0.4798     3.3354     3.3354    -0.0000
  2 B      4.4883     5.0000     0.5117     3.4241     3.4241    -0.0000
  3 N      7.6810     7.0000    -0.6810     3.1559     3.1559    -0.0000
  4 B      4.7320     5.0000     0.2680     3.3795     3.3795    -0.0000
  5 N      7.5152     7.0000    -0.5152     3.3220     3.3220    -0.0000
  6 B      4.4710     5.0000     0.5290     3.3683     3.3683    -0.0000
  7 N      7.5091     7.0000    -0.5091     3.3279     3.3279    -0.0000
  8 B      4.7316     5.0000     0.2684     3.3788     3.3788    -0.0000
  9 N      7.6810     7.0000    -0.6810     3.1567     3.1567    -0.0000
 10 N      7.2922     7.0000    -0.2922     3.3303     3.3303    -0.0000
 11 N      7.2827     7.0000    -0.2827     3.3532     3.3532    -0.0000
 12 B      4.4817     5.0000     0.5183     3.3649     3.3649    -0.0000
 13 N      7.6891     7.0000    -0.6891     3.1491     3.1491    -0.0000
 14 B      4.7487     5.0000     0.2513     3.3964     3.3964    -0.0000
 15 B      4.6758     5.0000     0.3242     3.4042     3.4042     0.0000
 16 B      4.9967     5.0000     0.0033     3.3207     3.3207    -0.0000
 17 N      7.6317     7.0000    -0.6317     3.2285     3.2285     0.0000
 18 B      4.7667     5.0000     0.2333     3.4205     3.4205    -0.0000
 19 N      7.6748     7.0000    -0.6748     3.1799     3.1799    -0.0000
 20 H      0.6367     1.0000     0.3633     0.8363     0.8363    -0.0000
 21 H      0.9607     1.0000     0.0393     0.9791     0.9791    -0.0000
 22 H      0.9614     1.0000     0.0386     0.9793     0.9793    -0.0000
 23 H      0.6396     1.0000     0.3604     0.8393     0.8393    -0.0000
 24 H      0.6394     1.0000     0.3606     0.8393     0.8393     0.0000
 25 H      0.9616     1.0000     0.0384     0.9792     0.9792     0.0000
 26 H      0.9596     1.0000     0.0404     0.9795     0.9795    -0.0000
 27 H      0.6382     1.0000     0.3618     0.8394     0.8394     0.0000
 28 H      0.6387     1.0000     0.3613     0.8344     0.8344    -0.0000
 29 H      0.9712     1.0000     0.0288     0.9762     0.9762    -0.0000

  Mayer bond orders larger than 0.100000
B(  0-B ,  1-N ) :   1.0796 B(  0-B ,  5-N ) :   1.0466 B(  0-B , 10-N ) :   1.0489 
B(  1-N ,  2-B ) :   1.1098 B(  1-N ,  6-B ) :   1.0806 B(  2-B ,  3-N ) :   1.0865 
B(  2-B ,  9-N ) :   1.0914 B(  3-N ,  4-B ) :   1.1868 B(  3-N , 24-H ) :   0.8264 
B(  4-B ,  5-N ) :   1.1017 B(  4-B , 25-H ) :   0.9662 B(  5-N , 14-B ) :   1.1079 
B(  6-B ,  7-N ) :   1.0684 B(  6-B , 11-N ) :   1.0332 B(  7-N ,  8-B ) :   1.1040 
B(  7-N , 18-B ) :   1.0939 B(  8-B ,  9-N ) :   1.1831 B(  8-B , 22-H ) :   0.9660 
B(  9-N , 23-H ) :   0.8267 B( 10-N , 11-N ) :   1.0414 B( 10-N , 12-B ) :   1.1524 
B( 11-N , 15-B ) :   1.2037 B( 12-B , 13-N ) :   1.0647 B( 12-B , 17-N ) :   1.0619 
B( 13-N , 14-B ) :   1.2030 B( 13-N , 27-H ) :   0.8275 B( 14-B , 26-H ) :   0.9634 
B( 15-B , 16-B ) :   1.0011 B( 15-B , 19-N ) :   1.0873 B( 16-B , 17-N ) :   1.3072 
B( 16-B , 29-H ) :   0.9639 B( 17-N , 28-H ) :   0.8195 B( 18-B , 19-N ) :   1.2277 
B( 18-B , 21-H ) :   0.9628 B( 19-N , 20-H ) :   0.8302 

-------
TIMINGS
-------

Total SCF time: 0 days 0 hours 4 min 51 sec 

Total time                  ....     291.118 sec
Sum of individual times     ....     284.341 sec  ( 97.7%)

Fock matrix formation       ....     263.005 sec  ( 90.3%)
  Split-RI-J                ....      18.314 sec  (  7.0% of F)
  Chain of spheres X        ....     193.594 sec  ( 73.6% of F)
  XC integration            ....      39.780 sec  ( 15.1% of F)
    Basis function eval.    ....      11.776 sec  ( 29.6% of XC)
    Density eval.           ....       8.069 sec  ( 20.3% of XC)
    XC-Functional eval.     ....       2.759 sec  (  6.9% of XC)
    XC-Potential eval.      ....       5.835 sec  ( 14.7% of XC)
Diagonalization             ....       1.479 sec  (  0.5%)
Density matrix formation    ....       0.272 sec  (  0.1%)
Population analysis         ....       0.109 sec  (  0.0%)
Initial guess               ....       0.111 sec  (  0.0%)
Orbital Transformation      ....       0.000 sec  (  0.0%)
Orbital Orthonormalization  ....       0.000 sec  (  0.0%)
DIIS solution               ....       2.899 sec  (  1.0%)
SOSCF solution              ....       2.361 sec  (  0.8%)
Grid generation             ....      14.105 sec  (  4.8%)

Maximum memory used throughout the entire SCF-calculation: 96.8 MB


-------------------------------------------------------------------------------
                          DFT DISPERSION CORRECTION                            
                                                                               
                              DFTD3 V3.1  Rev 1                                
                          USING Becke-Johnson damping                          
-------------------------------------------------------------------------------
The PBEh-3c composite method is recognized
Using three-body term ABC
Active option DFTDOPT                   ...         4   

molecular C6(AA) [au] = 12699.435682 


            DFT-D V3
 parameters
 s6 scaling factor         :     1.0000 
 a1 scaling factor         :     0.4860 
 s8 scaling factor         :     0.0000 
 a2 scaling factor         :     4.5000 
 Damping factor alpha9(ATM):    16.0000 
 ad hoc parameters k1-k3   :    16.0000     1.3333    -4.0000 

 Edisp/kcal,au: -14.205333755608  -0.022637637880 
 E6   /kcal   : -14.187656718 
 E8   /kcal   :  -0.000000000 
 E6(ABC)      :  -0.017677038 
 % E8         :   0.000000000 
 % E6(ABC)    :   0.124439440 

-------------------------   ----------------
Dispersion correction           -0.022637638
-------------------------   ----------------

------------------   -----------------
gCP correction             0.048738980
------------------   -----------------

-------------------------   --------------------
FINAL SINGLE POINT ENERGY      -801.142225932907
-------------------------   --------------------


                            ***************************************
                            *     ORCA property calculations      *
                            ***************************************

                                    ---------------------
                                    Active property flags
                                    ---------------------
   (+) Dipole Moment


------------------------------------------------------------------------------
                       ORCA ELECTRIC PROPERTIES CALCULATION
------------------------------------------------------------------------------

Dipole Moment Calculation                       ... on
Quadrupole Moment Calculation                   ... off
Polarizability Calculation                      ... off
GBWName                                         ... pbeh-3c.gbw
Electron density                                ... pbeh-3c.scfp
The origin for moment calculation is the CENTER OF MASS  = (-0.001355,  0.007756 -0.000002)

-------------
DIPOLE MOMENT
-------------
                                X             Y             Z
Electronic contribution:     -0.33056      -0.28850      -0.00003
Nuclear contribution   :      0.83629       0.34617       0.00004
                        -----------------------------------------
Total Dipole Moment    :      0.50572       0.05767       0.00001
                        -----------------------------------------
Magnitude (a.u.)       :      0.50900
Magnitude (Debye)      :      1.29378



--------------------
Rotational spectrum 
--------------------
 
Rotational constants in cm-1:     0.015939     0.015193     0.007778 
Rotational constants in MHz :   477.826296   455.471337   233.190543 

 Dipole components along the rotational axes: 
x,y,z [a.u.] :    -0.159999     0.483199     0.000010 
x,y,z [Debye]:    -0.406684     1.228195     0.000026 

 

Timings for individual modules:

Sum of individual times         ...      295.867 sec (=   4.931 min)
GTO integral calculation        ...        3.898 sec (=   0.065 min)   1.3 %
SCF iterations                  ...      291.968 sec (=   4.866 min)  98.7 %
                             ****ORCA TERMINATED NORMALLY****
TOTAL RUN TIME: 0 days 0 hours 4 minutes 57 seconds 350 msec
