
                                 *****************
                                 * O   R   C   A *
                                 *****************

                                            #,                                       
                                            ###                                      
                                            ####                                     
                                            #####                                    
                                            ######                                   
                                           ########,                                 
                                     ,,################,,,,,                         
                               ,,#################################,,                 
                          ,,##########################################,,             
                       ,#########################################, ''#####,          
                    ,#############################################,,   '####,        
                  ,##################################################,,,,####,       
                ,###########''''           ''''###############################       
              ,#####''   ,,,,##########,,,,          '''####'''          '####       
            ,##' ,,,,###########################,,,                        '##       
           ' ,,###''''                  '''############,,,                           
         ,,##''                                '''############,,,,        ,,,,,,###''
      ,#''                                            '''#######################'''  
     '                                                          ''''####''''         
             ,#######,   #######,   ,#######,      ##                                
            ,#'     '#,  ##    ##  ,#'     '#,    #''#        ######   ,####,        
            ##       ##  ##   ,#'  ##            #'  '#       #        #'  '#        
            ##       ##  #######   ##           ,######,      #####,   #    #        
            '#,     ,#'  ##    ##  '#,     ,#' ,#      #,         ##   #,  ,#        
             '#######'   ##     ##  '#######'  #'      '#     #####' # '####'        



                  #######################################################
                  #                        -***-                        #
                  #          Department of theory and spectroscopy      #
                  #    Directorship and core code : Frank Neese         #
                  #        Max Planck Institute fuer Kohlenforschung    #
                  #                Kaiser Wilhelm Platz 1               #
                  #                 D-45470 Muelheim/Ruhr               #
                  #                      Germany                        #
                  #                                                     #
                  #                  All rights reserved                #
                  #                        -***-                        #
                  #######################################################


                         Program Version 5.0.3 -  RELEASE  -


 With contributions from (in alphabetic order):
   Daniel Aravena         : Magnetic Suceptibility
   Michael Atanasov       : Ab Initio Ligand Field Theory (pilot matlab implementation)
   Alexander A. Auer      : GIAO ZORA, VPT2 properties, NMR spectrum
   Ute Becker             : Parallelization
   Giovanni Bistoni       : ED, misc. LED, open-shell LED, HFLD
   Martin Brehm           : Molecular dynamics
   Dmytro Bykov           : SCF Hessian
   Vijay G. Chilkuri      : MRCI spin determinant printing, contributions to CSF-ICE
   Dipayan Datta          : RHF DLPNO-CCSD density
   Achintya Kumar Dutta   : EOM-CC, STEOM-CC
   Dmitry Ganyushin       : Spin-Orbit,Spin-Spin,Magnetic field MRCI
   Miquel Garcia          : C-PCM and meta-GGA Hessian, CC/C-PCM, Gaussian charge scheme
   Yang Guo               : DLPNO-NEVPT2, F12-NEVPT2, CIM, IAO-localization
   Andreas Hansen         : Spin unrestricted coupled pair/coupled cluster methods
   Benjamin Helmich-Paris : MC-RPA, TRAH-SCF, COSX integrals
   Lee Huntington         : MR-EOM, pCC
   Robert Izsak           : Overlap fitted RIJCOSX, COSX-SCS-MP3, EOM
   Marcus Kettner         : VPT2
   Christian Kollmar      : KDIIS, OOCD, Brueckner-CCSD(T), CCSD density, CASPT2, CASPT2-K
   Simone Kossmann        : Meta GGA functionals, TD-DFT gradient, OOMP2, MP2 Hessian
   Martin Krupicka        : Initial AUTO-CI
   Lucas Lang             : DCDCAS
   Marvin Lechner         : AUTO-CI (C++ implementation), FIC-MRCC
   Dagmar Lenk            : GEPOL surface, SMD
   Dimitrios Liakos       : Extrapolation schemes; Compound Job, initial MDCI parallelization
   Dimitrios Manganas     : Further ROCIS development; embedding schemes
   Dimitrios Pantazis     : SARC Basis sets
   Anastasios Papadopoulos: AUTO-CI, single reference methods and gradients
   Taras Petrenko         : DFT Hessian,TD-DFT gradient, ASA, ECA, R-Raman, ABS, FL, XAS/XES, NRVS
   Peter Pinski           : DLPNO-MP2, DLPNO-MP2 Gradient
   Christoph Reimann      : Effective Core Potentials
   Marius Retegan         : Local ZFS, SOC
   Christoph Riplinger    : Optimizer, TS searches, QM/MM, DLPNO-CCSD(T), (RO)-DLPNO pert. Triples
   Tobias Risthaus        : Range-separated hybrids, TD-DFT gradient, RPA, STAB
   Michael Roemelt        : Original ROCIS implementation
   Masaaki Saitow         : Open-shell DLPNO-CCSD energy and density
   Barbara Sandhoefer     : DKH picture change effects
   Avijit Sen             : IP-ROCIS
   Kantharuban Sivalingam : CASSCF convergence, NEVPT2, FIC-MRCI
   Bernardo de Souza      : ESD, SOC TD-DFT
   Georgi Stoychev        : AutoAux, RI-MP2 NMR, DLPNO-MP2 response
   Willem Van den Heuvel  : Paramagnetic NMR
   Boris Wezisla          : Elementary symmetry handling
   Frank Wennmohs         : Technical directorship


 We gratefully acknowledge several colleagues who have allowed us to
 interface, adapt or use parts of their codes:
   Stefan Grimme, W. Hujo, H. Kruse, P. Pracht,  : VdW corrections, initial TS optimization,
                  C. Bannwarth, S. Ehlert          DFT functionals, gCP, sTDA/sTD-DF
   Ed Valeev, F. Pavosevic, A. Kumar             : LibInt (2-el integral package), F12 methods
   Garnet Chan, S. Sharma, J. Yang, R. Olivares  : DMRG
   Ulf Ekstrom                                   : XCFun DFT Library
   Mihaly Kallay                                 : mrcc  (arbitrary order and MRCC methods)
   Jiri Pittner, Ondrej Demel                    : Mk-CCSD
   Frank Weinhold                                : gennbo (NPA and NBO analysis)
   Christopher J. Cramer and Donald G. Truhlar   : smd solvation model
   Lars Goerigk                                  : TD-DFT with DH, B97 family of functionals
   V. Asgeirsson, H. Jonsson                     : NEB implementation
   FAccTs GmbH                                   : IRC, NEB, NEB-TS, DLPNO-Multilevel, CI-OPT
                                                   MM, QMMM, 2- and 3-layer-ONIOM, Crystal-QMMM,
                                                   LR-CPCM, SF, NACMEs, symmetry and pop. for TD-DFT,
                                                   nearIR, NL-DFT gradient (VV10), updates on ESD,
                                                   ML-optimized integration grids
   S Lehtola, MJT Oliveira, MAL Marques          : LibXC Library
   Liviu Ungur et al                             : ANISO software


 Your calculation uses the libint2 library for the computation of 2-el integrals
 For citations please refer to: http://libint.valeyev.net

 Your ORCA version has been built with support for libXC version: 5.1.0
 For citations please refer to: https://tddft.org/programs/libxc/

 This ORCA versions uses:
   CBLAS   interface :  Fast vector & matrix operations
   LAPACKE interface :  Fast linear algebra routines
   SCALAPACK package :  Parallel linear algebra routines
   Shared memory     :  Shared parallel matrices
   BLAS/LAPACK       :  OpenBLAS 0.3.15  USE64BITINT DYNAMIC_ARCH NO_AFFINITY Haswell SINGLE_THREADED
        Core in use  :  Haswell
   Copyright (c) 2011-2014, The OpenBLAS Project




***************************************
The coordinates will be read from file: i4e.xyz
***************************************


Your calculation utilizes the geometrical counterpoise correction gCP
Please cite in your paper:
H.Kruse, S. Grimme J.Chem.Phys., 136, (2012), 154101 
   

Your calculation utilizes the atom-pairwise dispersion correction
with the Becke-Johnson damping scheme (D3BJ)
Cite in your paper:
S.Grimme, S.Ehrlich, L.Goerigk, J Comput Chem, (2011), 32, 1456–1465 
S.Grimme, J.Antony, S.Ehrlich and H.Krieg, J.Chem.Phys., 132, (2010), 154104 
   

Your calculation employs the composite approach PBEh-3c.
Please cite in your paper:
S. Grimme, J. G. Brandenburg, C. Bannwarth, A. Hansen J.Chem.Phys., 143, (2015), 054107 
   

================================================================================

----- Orbital basis set information -----
Your calculation utilizes the basis: def2-mSVP

----- AuxJ basis set information -----
Your calculation utilizes the auxiliary basis: def2/J
   F. Weigend, Phys. Chem. Chem. Phys. 8, 1057 (2006).

================================================================================
                                        WARNINGS
                       Please study these warnings very carefully!
================================================================================


INFO   : the flag for use of the SHARK integral package has been found!

================================================================================
                                       INPUT FILE
================================================================================
NAME = pbeh-3c.inp
|  1> ! PBEh-3c def2/J TightSCF DefGrid3
|  2> 
|  3> %maxcore 60000
|  4> 
|  5> %pal
|  6> nprocs 4
|  7> end
|  8> 
|  9> *xyzfile 0 1 i4e.xyz
| 10> 
| 11>                          ****END OF INPUT****
================================================================================

                       ****************************
                       * Single Point Calculation *
                       ****************************

---------------------------------
CARTESIAN COORDINATES (ANGSTROEM)
---------------------------------
  C     -4.643277    2.475877    0.489083
  C     -5.812316    1.506915    0.389638
  C     -5.443460    0.313873   -0.568011
  C     -3.889930    0.101341   -0.648661
  C     -3.095473    0.360189    0.667532
  C     -3.360260    1.852189    1.084974
  C     -3.489516   -1.237228   -1.274668
  C     -2.015200   -1.197761   -1.679812
  C     -1.124179   -0.579630   -0.629687
  C     -1.588408    0.128437    0.422538
  C     -6.214778   -0.960296   -0.174003
  C     -5.918280    0.725944   -1.980327
  C     -0.659610    0.662010    1.515270
  C      0.865010    0.438025    1.328162
  C      1.127954   -0.820001    0.506112
  C      0.375258   -0.687527   -0.859604
  C      2.586221   -1.041674    0.045455
  C      2.435057   -1.989952   -1.189647
  C      0.937964   -1.905563   -1.633857
  C      3.610435   -1.439183    1.145132
  C      4.966914   -0.744676    0.891604
  C      4.950779    0.762481    1.231681
  C      6.200399    1.475926    0.782830
  C      6.406358    2.028018   -0.424118
  C      3.826680   -2.951286    1.323531
  C      7.717225    2.688969   -0.775774
  C      5.380134    2.038225   -1.531962
  O     -6.175929    1.137996    1.737394
  C      0.763652    0.582813   -1.674323
  C      0.628986   -2.045088    1.309643
  H      3.219511   -1.048254    2.097918
  H     -3.525718    0.877237   -1.341341
  C     -3.534419   -0.589085    1.811863
  H     -4.940198    3.350066    1.081690
  H     -4.436558    2.831376   -0.528964
  H     -6.675905    2.030043   -0.055494
  H     -3.393497    1.920507    2.178390
  H     -2.524696    2.479647    0.752310
  H     -4.110574   -1.456949   -2.152353
  H     -3.654775   -2.050262   -0.557010
  H     -1.659847   -2.213726   -1.901092
  H     -1.904773   -0.633416   -2.622232
  H     -5.893450   -1.358628    0.791866
  H     -7.293770   -0.746367   -0.125217
  H     -6.075083   -1.740643   -0.930382
  H     -5.487430    1.694645   -2.267038
  H     -5.613542   -0.016893   -2.727629
  H     -7.012978    0.813226   -2.009019
  H     -0.962629    0.185307    2.458332
  H     -0.837899    1.732886    1.672221
  H      1.320277    1.300914    0.827425
  H      1.341890    0.361117    2.315399
  H      2.919273   -0.071271   -0.338492
  H      3.109794   -1.682668   -1.997394
  H      2.691384   -3.022953   -0.937291
  H      0.406608   -2.820951   -1.350472
  H      0.830514   -1.789263   -2.718924
  H      5.244526   -0.874039   -0.164952
  H      5.755316   -1.231345    1.484202
  H      4.064209    1.226203    0.781531
  H      4.832125    0.868773    2.319780
  H      7.025273    1.504608    1.498680
  H      4.438918   -3.135074    2.216518
  H      4.360570   -3.372819    0.461156
  H      2.881966   -3.493369    1.436099
  H      8.423469    2.657310    0.062950
  H      8.183860    2.196226   -1.643517
  H      7.560500    3.741786   -1.059704
  H      4.452987    1.523183   -1.261200
  H      5.789338    1.552509   -2.431437
  H      5.132039    3.071764   -1.820413
  H     -6.957070    0.572828    1.678918
  H      0.540411    1.500846   -1.122140
  H      0.167875    0.593948   -2.596330
  H      1.820935    0.587225   -1.966737
  H     -0.441927   -1.970713    1.519692
  H      1.169029   -2.094860    2.262985
  H      0.806266   -2.983559    0.774915
  H     -4.561630   -0.381002    2.115457
  H     -2.898724   -0.437052    2.691831
  H     -3.440177   -1.638384    1.508517

----------------------------
CARTESIAN COORDINATES (A.U.)
----------------------------
  NO LB      ZA    FRAG     MASS         X           Y           Z
   0 C     6.0000    0    12.011   -8.774522    4.678729    0.924232
   1 C     6.0000    0    12.011  -10.983686    2.847657    0.736310
   2 C     6.0000    0    12.011  -10.286649    0.593134   -1.073386
   3 C     6.0000    0    12.011   -7.350903    0.191507   -1.225792
   4 C     6.0000    0    12.011   -5.849597    0.680658    1.261452
   5 C     6.0000    0    12.011   -6.349971    3.500130    2.050305
   6 C     6.0000    0    12.011   -6.594229   -2.338022   -2.408774
   7 C     6.0000    0    12.011   -3.808177   -2.263440   -3.174384
   8 C     6.0000    0    12.011   -2.124391   -1.095342   -1.189937
   9 C     6.0000    0    12.011   -3.001656    0.242711    0.798482
  10 C     6.0000    0    12.011  -11.744229   -1.814696   -0.328818
  11 C     6.0000    0    12.011  -11.183929    1.371836   -3.742275
  12 C     6.0000    0    12.011   -1.246483    1.251018    2.863445
  13 C     6.0000    0    12.011    1.634632    0.827747    2.509863
  14 C     6.0000    0    12.011    2.131525   -1.549577    0.956413
  15 C     6.0000    0    12.011    0.709135   -1.299238   -1.624417
  16 C     6.0000    0    12.011    4.887250   -1.968478    0.085898
  17 C     6.0000    0    12.011    4.601590   -3.760465   -2.248108
  18 C     6.0000    0    12.011    1.772494   -3.600992   -3.087543
  19 C     6.0000    0    12.011    6.822733   -2.719661    2.163986
  20 C     6.0000    0    12.011    9.386106   -1.407234    1.684888
  21 C     6.0000    0    12.011    9.355616    1.440880    2.327540
  22 C     6.0000    0    12.011   11.717055    2.789095    1.479335
  23 C     6.0000    0    12.011   12.106262    3.832398   -0.801467
  24 C     6.0000    0    12.011    7.231376   -5.577122    2.501111
  25 C     6.0000    0    12.011   14.583441    5.081414   -1.466000
  26 C     6.0000    0    12.011   10.166980    3.851688   -2.894988
  27 O     8.0000    0    15.999  -11.670815    2.150501    3.283199
  28 C     6.0000    0    12.011    1.443093    1.101356   -3.164011
  29 C     6.0000    0    12.011    1.188611   -3.864656    2.474866
  30 H     1.0000    0     1.008    6.083995   -1.980914    3.964491
  31 H     1.0000    0     1.008   -6.662641    1.657738   -2.534768
  32 C     6.0000    0    12.011   -6.679083   -1.113209    3.423924
  33 H     1.0000    0     1.008   -9.335621    6.330707    2.044098
  34 H     1.0000    0     1.008   -8.383880    5.350526   -0.999597
  35 H     1.0000    0     1.008  -12.615631    3.836225   -0.104868
  36 H     1.0000    0     1.008   -6.412779    3.629232    4.116561
  37 H     1.0000    0     1.008   -4.770985    4.685853    1.421659
  38 H     1.0000    0     1.008   -7.767858   -2.753235   -4.067358
  39 H     1.0000    0     1.008   -6.906523   -3.874433   -1.052597
  40 H     1.0000    0     1.008   -3.136657   -4.183336   -3.592543
  41 H     1.0000    0     1.008   -3.599500   -1.196983   -4.955301
  42 H     1.0000    0     1.008  -11.137007   -2.567435    1.496411
  43 H     1.0000    0     1.008  -13.783227   -1.410428   -0.236625
  44 H     1.0000    0     1.008  -11.480244   -3.289339   -1.758167
  45 H     1.0000    0     1.008  -10.369739    3.202415   -4.284081
  46 H     1.0000    0     1.008  -10.608057   -0.031924   -5.154473
  47 H     1.0000    0     1.008  -13.252609    1.536775   -3.796496
  48 H     1.0000    0     1.008   -1.819106    0.350180    4.645574
  49 H     1.0000    0     1.008   -1.583400    3.274681    3.160040
  50 H     1.0000    0     1.008    2.494963    2.458372    1.563606
  51 H     1.0000    0     1.008    2.535805    0.682412    4.375470
  52 H     1.0000    0     1.008    5.516626   -0.134682   -0.639656
  53 H     1.0000    0     1.008    5.876658   -3.179781   -3.774529
  54 H     1.0000    0     1.008    5.085978   -5.712553   -1.771223
  55 H     1.0000    0     1.008    0.768377   -5.330825   -2.552022
  56 H     1.0000    0     1.008    1.569444   -3.381216   -5.138022
  57 H     1.0000    0     1.008    9.910718   -1.651695   -0.311714
  58 H     1.0000    0     1.008   10.875972   -2.326906    2.804735
  59 H     1.0000    0     1.008    7.680243    2.317187    1.476880
  60 H     1.0000    0     1.008    9.131393    1.641743    4.383750
  61 H     1.0000    0     1.008   13.275843    2.843296    2.832095
  62 H     1.0000    0     1.008    8.388340   -5.924431    4.188612
  63 H     1.0000    0     1.008    8.240283   -6.373704    0.871459
  64 H     1.0000    0     1.008    5.446126   -6.601511    2.713834
  65 H     1.0000    0     1.008   15.918049    5.021588    0.118959
  66 H     1.0000    0     1.008   15.465254    4.150266   -3.105798
  67 H     1.0000    0     1.008   14.287274    7.070952   -2.002550
  68 H     1.0000    0     1.008    8.414926    2.878399   -2.383323
  69 H     1.0000    0     1.008   10.940264    2.933818   -4.594750
  70 H     1.0000    0     1.008    9.698149    5.804793   -3.440081
  71 H     1.0000    0     1.008  -13.146958    1.082489    3.172695
  72 H     1.0000    0     1.008    1.021229    2.836187   -2.120537
  73 H     1.0000    0     1.008    0.317237    1.122398   -4.906353
  74 H     1.0000    0     1.008    3.441069    1.109695   -3.716594
  75 H     1.0000    0     1.008   -0.835121   -3.724107    2.871802
  76 H     1.0000    0     1.008    2.209146   -3.958712    4.276422
  77 H     1.0000    0     1.008    1.523622   -5.638109    1.464378
  78 H     1.0000    0     1.008   -8.620232   -0.719989    3.997635
  79 H     1.0000    0     1.008   -5.477795   -0.825909    5.086823
  80 H     1.0000    0     1.008   -6.500993   -3.096097    2.850684

--------------------------------
INTERNAL COORDINATES (ANGSTROEM)
--------------------------------
 C      0   0   0     0.000000000000     0.00000000     0.00000000
 C      1   0   0     1.521653371695     0.00000000     0.00000000
 C      2   1   0     1.573688978635   110.02632269     0.00000000
 C      3   2   1     1.570073344607   111.45685340    24.46823700
 C      4   3   2     1.559014673095   116.00047029    35.55429506
 C      1   2   3     1.546029315593   113.94587432   298.12624472
 C      4   3   2     1.531007136870   113.46156769   165.70436350
 C      7   4   3     1.529478827869   109.74609500   163.86533787
 C      8   7   4     1.509558038957   113.28219660    44.02789463
 C      9   8   7     1.350572658647   123.62601996   346.28605494
 C      3   2   1     1.540675483897   110.73271369   151.65073162
 C      3   2   1     1.545927352016   106.37206133   268.13046936
 C     10   9   8     1.530172451818   122.04234374   175.93506818
 C     13  10   9     1.552303242081   117.37241346     3.81167932
 C     14  13  10     1.525626457196   110.68371035   331.49826167
 C      9   8   7     1.520794298491   116.59892265   171.17993133
 C     15  14  13     1.545278354810   116.20375384   170.35349940
 C     17  15  14     1.564468439813   103.36268031   202.49818358
 C     16   9   8     1.549101768580   119.30722411   329.87713141
 C     17  15  14     1.554450227419   116.58870537    71.51443828
 C     20  17  15     1.544878839929   110.33330183   218.35915188
 C     21  20  17     1.545132262355   113.15480067    74.02709847
 C     22  21  20     1.507322273362   112.79837089   188.98394318
 C     23  22  21     1.343111950736   126.10590784    87.94009203
 C     20  17  15     1.537869905098   115.22365549    93.43165120
 C     24  23  22     1.509599038216   121.49747053   181.60879883
 C     24  23  22     1.510151641271   123.90372747     1.18223185
 O      2   1   3     1.443870364560   107.16802986   126.53801923
 C     16   9   8     1.558325547753   105.48239159    89.84702821
 C     15  14  13     1.547730234337   108.50534818   295.15504169
 H     20  17  15     1.101565846682   106.69701031   334.36744424
 H      4   3   2     1.102030718895   105.30704866   280.94047409
 C      5   4   3     1.550253746825   112.16231611    61.23500246
 H      1   2   3     1.097064757367   109.55949012   174.75225662
 H      1   2   3     1.097967076721   106.87151490    59.05728237
 H      2   1   3     1.103444818712   109.01065137   242.59072662
 H      6   1   2     1.096051841673   109.52367054   273.59769978
 H      6   1   2     1.096601528520   106.53380673   158.36463477
 H      7   4   3     1.097415554879   110.73564273    42.47751279
 H      7   4   3     1.096981079149   109.94384208   284.65360256
 H      8   7   4     1.098829467725   109.95081338   166.42919189
 H      8   7   4     1.104008640722   109.61668847   282.05443488
 H     11   3   2     1.093080104930   112.34492641   292.22120409
 H     11   3   2     1.101075690120   109.95264746    53.35077104
 H     11   3   2     1.095702937445   110.40335509   171.29597163
 H     12   3   2     1.098278778309   110.67740887    54.80316999
 H     12   3   2     1.096875007684   110.88960816   174.75364652
 H     12   3   2     1.098546904921   110.55496546   294.80370570
 H     13  10   9     1.099287149575   107.10388447   242.04905062
 H     13  10   9     1.096902931565   110.11769198   128.61173720
 H     14  13  10     1.096624429424   110.44148029    92.73569271
 H     14  13  10     1.099074595692   109.14630253   209.57301425
 H     17  15  14     1.095454862039   105.32647628   314.44554981
 H     18  17  15     1.096425731034   110.62643896   138.19464810
 H     18  17  15     1.093836385066   111.57037258   257.04292315
 H     19  16   9     1.095710787672   110.57702079   320.50727595
 H     19  16   9     1.096559086781   112.06033756    80.14056290
 H     21  20  17     1.100052182619   109.04679702   312.29870989
 H     21  20  17     1.099817255488   110.00343227   195.80770995
 H     22  21  20     1.097122828752   109.29399620   312.12816542
 H     22  21  20     1.099698346114   108.25104975    67.31121491
 H     23  22  21     1.092557281185   116.31037367   270.68068075
 H     25  20  17     1.098198762394   109.71055633   188.79142551
 H     25  20  17     1.098371427886   110.77011859    70.08307754
 H     25  20  17     1.094993293324   112.17101759   309.24124766
 H     26  24  23     1.096923073953   111.61272342   359.39064225
 H     26  24  23     1.101600189248   110.82327018   120.39390254
 H     26  24  23     1.101637296996   110.78919463   238.44246574
 H     27  24  23     1.094614716222   113.01317107   358.45183643
 H     27  24  23     1.101101130029   110.10502151   237.56750449
 H     27  24  23     1.101343382272   110.58260745   120.16740532
 H     28   2   1     0.965927003460   107.25620408   176.05416570
 H     29  16   9     1.094315858726   111.66765791    60.90510341
 H     29  16   9     1.097803693343   108.18598414   302.51491544
 H     29  16   9     1.096983588963   112.51096383   184.02607339
 H     30  15  14     1.093849565736   111.19246731    59.93020601
 H     30  15  14     1.096807177868   109.17424093   300.18249973
 H     30  15  14     1.094572958909   111.88912144   180.91930565
 H     33   5   4     1.091160599460   110.80306933   293.63925758
 H     33   5   4     1.096159507851   110.08671000   175.19927658
 H     33   5   4     1.096325196270   110.94590859    56.00784696

---------------------------
INTERNAL COORDINATES (A.U.)
---------------------------
 C      0   0   0     0.000000000000     0.00000000     0.00000000
 C      1   0   0     2.875508143261     0.00000000     0.00000000
 C      2   1   0     2.973841189590   110.02632269     0.00000000
 C      3   2   1     2.967008631477   111.45685340    24.46823700
 C      4   3   2     2.946110770915   116.00047029    35.55429506
 C      1   2   3     2.921572001484   113.94587432   298.12624472
 C      4   3   2     2.893184197762   113.46156769   165.70436350
 C      7   4   3     2.890296112304   109.74609500   163.86533787
 C      8   7   4     2.852651276889   113.28219660    44.02789463
 C      9   8   7     2.552212448804   123.62601996   346.28605494
 C      3   2   1     2.911454725812   110.73271369   151.65073162
 C      3   2   1     2.921379318249   106.37206133   268.13046936
 C     10   9   8     2.891606871607   122.04234374   175.93506818
 C     13  10   9     2.933428004331   117.37241346     3.81167932
 C     14  13  10     2.883016186765   110.68371035   331.49826167
 C      9   8   7     2.873884730176   116.59892265   171.17993133
 C     15  14  13     2.920152891267   116.20375384   170.35349940
 C     17  15  14     2.956416896409   103.36268031   202.49818358
 C     16   9   8     2.927378096189   119.30722411   329.87713141
 C     17  15  14     2.937485218634   116.58870537    71.51443828
 C     20  17  15     2.919397917556   110.33330183   218.35915188
 C     21  20  17     2.919876816537   113.15480067    74.02709847
 C     22  21  20     2.848426292214   112.79837089   188.98394318
 C     23  22  21     2.538113754088   126.10590784    87.94009203
 C     20  17  15     2.906152950235   115.22365549    93.43165120
 C     24  23  22     2.852728754260   121.49747053   181.60879883
 C     24  23  22     2.853773022694   123.90372747     1.18223185
 O      2   1   3     2.728519561903   107.16802986   126.53801923
 C     16   9   8     2.944808512745   105.48239159    89.84702821
 C     15  14  13     2.924786272087   108.50534818   295.15504169
 H     20  17  15     2.081657768710   106.69701031   334.36744424
 H      4   3   2     2.082536249881   105.30704866   280.94047409
 C      5   4   3     2.929555019584   112.16231611    61.23500246
 H      1   2   3     2.073151942600   109.55949012   174.75225662
 H      1   2   3     2.074857079066   106.87151490    59.05728237
 H      2   1   3     2.085208511260   109.01065137   242.59072662
 H      6   1   2     2.071237809342   109.52367054   273.59769978
 H      6   1   2     2.072276566942   106.53380673   158.36463477
 H      7   4   3     2.073814853827   110.73564273    42.47751279
 H      7   4   3     2.072993813685   109.94384208   284.65360256
 H      8   7   4     2.076486761882   109.95081338   166.42919189
 H      8   7   4     2.086273980448   109.61668847   282.05443488
 H     11   3   2     2.065622040756   112.34492641   292.22120409
 H     11   3   2     2.080731507046   109.95264746    53.35077104
 H     11   3   2     2.070578475904   110.40335509   171.29597163
 H     12   3   2     2.075446109701   110.67740887    54.80316999
 H     12   3   2     2.072793367665   110.88960816   174.75364652
 H     12   3   2     2.075952795567   110.55496546   294.80370570
 H     13  10   9     2.077351655235   107.10388447   242.04905062
 H     13  10   9     2.072846136153   110.11769198   128.61173720
 H     14  13  10     2.072319843379   110.44148029    92.73569271
 H     14  13  10     2.076949986609   109.14630253   209.57301425
 H     17  15  14     2.070109681326   105.32647628   314.44554981
 H     18  17  15     2.071944357839   110.62643896   138.19464810
 H     18  17  15     2.067051203092   111.57037258   257.04292315
 H     19  16   9     2.070593310684   110.57702079   320.50727595
 H     19  16   9     2.072196363679   112.06033756    80.14056290
 H     21  20  17     2.078797358173   109.04679702   312.29870989
 H     21  20  17     2.078353410234   110.00343227   195.80770995
 H     22  21  20     2.073261681615   109.29399620   312.12816542
 H     22  21  20     2.078128704081   108.25104975    67.31121491
 H     23  22  21     2.064634047060   116.31037367   270.68068075
 H     25  20  17     2.075294901536   109.71055633   188.79142551
 H     25  20  17     2.075621192029   110.77011859    70.08307754
 H     25  20  17     2.069237442863   112.17101759   309.24124766
 H     26  24  23     2.072884199750   111.61272342   359.39064225
 H     26  24  23     2.081722666754   110.82327018   120.39390254
 H     26  24  23     2.081792790236   110.78919463   238.44246574
 H     27  24  23     2.068522035820   113.01317107   358.45183643
 H     27  24  23     2.080779581506   110.10502151   237.56750449
 H     27  24  23     2.081237371901   110.58260745   120.16740532
 H     28   2   1     1.825337501899   107.25620408   176.05416570
 H     29  16   9     2.067957276999   111.66765791    60.90510341
 H     29  16   9     2.074548329226   108.18598414   302.51491544
 H     29  16   9     2.072998556547   112.51096383   184.02607339
 H     30  15  14     2.067076110950   111.19246731    59.93020601
 H     30  15  14     2.072665187890   109.17424093   300.18249973
 H     30  15  14     2.068443125934   111.88912144   180.91930565
 H     33   5   4     2.061994701105   110.80306933   293.63925758
 H     33   5   4     2.071441268933   110.08671000   175.19927658
 H     33   5   4     2.071754374668   110.94590859    56.00784696

---------------------
BASIS SET INFORMATION
---------------------
There are 3 groups of distinct atoms

 Group   1 Type C   : 8s4p1d contracted to 4s2p1d pattern {5111/31/1}
 Group   2 Type O   : 8s4p1d contracted to 4s2p1d pattern {5111/31/1}
 Group   3 Type H   : 4s contracted to 2s pattern {31}

Atom   0C    basis set group =>   1
Atom   1C    basis set group =>   1
Atom   2C    basis set group =>   1
Atom   3C    basis set group =>   1
Atom   4C    basis set group =>   1
Atom   5C    basis set group =>   1
Atom   6C    basis set group =>   1
Atom   7C    basis set group =>   1
Atom   8C    basis set group =>   1
Atom   9C    basis set group =>   1
Atom  10C    basis set group =>   1
Atom  11C    basis set group =>   1
Atom  12C    basis set group =>   1
Atom  13C    basis set group =>   1
Atom  14C    basis set group =>   1
Atom  15C    basis set group =>   1
Atom  16C    basis set group =>   1
Atom  17C    basis set group =>   1
Atom  18C    basis set group =>   1
Atom  19C    basis set group =>   1
Atom  20C    basis set group =>   1
Atom  21C    basis set group =>   1
Atom  22C    basis set group =>   1
Atom  23C    basis set group =>   1
Atom  24C    basis set group =>   1
Atom  25C    basis set group =>   1
Atom  26C    basis set group =>   1
Atom  27O    basis set group =>   2
Atom  28C    basis set group =>   1
Atom  29C    basis set group =>   1
Atom  30H    basis set group =>   3
Atom  31H    basis set group =>   3
Atom  32C    basis set group =>   1
Atom  33H    basis set group =>   3
Atom  34H    basis set group =>   3
Atom  35H    basis set group =>   3
Atom  36H    basis set group =>   3
Atom  37H    basis set group =>   3
Atom  38H    basis set group =>   3
Atom  39H    basis set group =>   3
Atom  40H    basis set group =>   3
Atom  41H    basis set group =>   3
Atom  42H    basis set group =>   3
Atom  43H    basis set group =>   3
Atom  44H    basis set group =>   3
Atom  45H    basis set group =>   3
Atom  46H    basis set group =>   3
Atom  47H    basis set group =>   3
Atom  48H    basis set group =>   3
Atom  49H    basis set group =>   3
Atom  50H    basis set group =>   3
Atom  51H    basis set group =>   3
Atom  52H    basis set group =>   3
Atom  53H    basis set group =>   3
Atom  54H    basis set group =>   3
Atom  55H    basis set group =>   3
Atom  56H    basis set group =>   3
Atom  57H    basis set group =>   3
Atom  58H    basis set group =>   3
Atom  59H    basis set group =>   3
Atom  60H    basis set group =>   3
Atom  61H    basis set group =>   3
Atom  62H    basis set group =>   3
Atom  63H    basis set group =>   3
Atom  64H    basis set group =>   3
Atom  65H    basis set group =>   3
Atom  66H    basis set group =>   3
Atom  67H    basis set group =>   3
Atom  68H    basis set group =>   3
Atom  69H    basis set group =>   3
Atom  70H    basis set group =>   3
Atom  71H    basis set group =>   3
Atom  72H    basis set group =>   3
Atom  73H    basis set group =>   3
Atom  74H    basis set group =>   3
Atom  75H    basis set group =>   3
Atom  76H    basis set group =>   3
Atom  77H    basis set group =>   3
Atom  78H    basis set group =>   3
Atom  79H    basis set group =>   3
Atom  80H    basis set group =>   3
---------------------------------
AUXILIARY/J BASIS SET INFORMATION
---------------------------------
There are 3 groups of distinct atoms

 Group   1 Type C   : 12s5p4d2f1g contracted to 6s4p3d1f1g pattern {711111/2111/211/2/1}
 Group   2 Type O   : 12s5p4d2f1g contracted to 6s4p3d1f1g pattern {711111/2111/211/2/1}
 Group   3 Type H   : 5s2p1d contracted to 3s1p1d pattern {311/2/1}

Atom   0C    basis set group =>   1
Atom   1C    basis set group =>   1
Atom   2C    basis set group =>   1
Atom   3C    basis set group =>   1
Atom   4C    basis set group =>   1
Atom   5C    basis set group =>   1
Atom   6C    basis set group =>   1
Atom   7C    basis set group =>   1
Atom   8C    basis set group =>   1
Atom   9C    basis set group =>   1
Atom  10C    basis set group =>   1
Atom  11C    basis set group =>   1
Atom  12C    basis set group =>   1
Atom  13C    basis set group =>   1
Atom  14C    basis set group =>   1
Atom  15C    basis set group =>   1
Atom  16C    basis set group =>   1
Atom  17C    basis set group =>   1
Atom  18C    basis set group =>   1
Atom  19C    basis set group =>   1
Atom  20C    basis set group =>   1
Atom  21C    basis set group =>   1
Atom  22C    basis set group =>   1
Atom  23C    basis set group =>   1
Atom  24C    basis set group =>   1
Atom  25C    basis set group =>   1
Atom  26C    basis set group =>   1
Atom  27O    basis set group =>   2
Atom  28C    basis set group =>   1
Atom  29C    basis set group =>   1
Atom  30H    basis set group =>   3
Atom  31H    basis set group =>   3
Atom  32C    basis set group =>   1
Atom  33H    basis set group =>   3
Atom  34H    basis set group =>   3
Atom  35H    basis set group =>   3
Atom  36H    basis set group =>   3
Atom  37H    basis set group =>   3
Atom  38H    basis set group =>   3
Atom  39H    basis set group =>   3
Atom  40H    basis set group =>   3
Atom  41H    basis set group =>   3
Atom  42H    basis set group =>   3
Atom  43H    basis set group =>   3
Atom  44H    basis set group =>   3
Atom  45H    basis set group =>   3
Atom  46H    basis set group =>   3
Atom  47H    basis set group =>   3
Atom  48H    basis set group =>   3
Atom  49H    basis set group =>   3
Atom  50H    basis set group =>   3
Atom  51H    basis set group =>   3
Atom  52H    basis set group =>   3
Atom  53H    basis set group =>   3
Atom  54H    basis set group =>   3
Atom  55H    basis set group =>   3
Atom  56H    basis set group =>   3
Atom  57H    basis set group =>   3
Atom  58H    basis set group =>   3
Atom  59H    basis set group =>   3
Atom  60H    basis set group =>   3
Atom  61H    basis set group =>   3
Atom  62H    basis set group =>   3
Atom  63H    basis set group =>   3
Atom  64H    basis set group =>   3
Atom  65H    basis set group =>   3
Atom  66H    basis set group =>   3
Atom  67H    basis set group =>   3
Atom  68H    basis set group =>   3
Atom  69H    basis set group =>   3
Atom  70H    basis set group =>   3
Atom  71H    basis set group =>   3
Atom  72H    basis set group =>   3
Atom  73H    basis set group =>   3
Atom  74H    basis set group =>   3
Atom  75H    basis set group =>   3
Atom  76H    basis set group =>   3
Atom  77H    basis set group =>   3
Atom  78H    basis set group =>   3
Atom  79H    basis set group =>   3
Atom  80H    basis set group =>   3


           ************************************************************
           *        Program running with 4 parallel MPI-processes     *
           *              working on a common directory               *
           ************************************************************
------------------------------------------------------------------------------
                           ORCA GTO INTEGRAL CALCULATION
                           -- RI-GTO INTEGRALS CHOSEN --
------------------------------------------------------------------------------
------------------------------------------------------------------------------
                   ___                                                        
                  /   \      - P O W E R E D   B Y -                         
                 /     \                                                     
                 |  |  |   _    _      __       _____    __    __             
                 |  |  |  | |  | |    /  \     |  _  \  |  |  /  |          
                  \  \/   | |  | |   /    \    | | | |  |  | /  /          
                 / \  \   | |__| |  /  /\  \   | |_| |  |  |/  /          
                |  |  |   |  __  | /  /__\  \  |    /   |      \           
                |  |  |   | |  | | |   __   |  |    \   |  |\   \          
                \     /   | |  | | |  |  |  |  | |\  \  |  | \   \       
                 \___/    |_|  |_| |__|  |__|  |_| \__\ |__|  \__/        
                                                                              
                      - O R C A' S   B I G   F R I E N D -                    
                                      &                                       
                       - I N T E G R A L  F E E D E R -                       
                                                                              
 v1 FN, 2020, v2 2021                                                         
------------------------------------------------------------------------------


Reading SHARK input file pbeh-3c.SHARKINP.tmp ... ok
----------------------
SHARK INTEGRAL PACKAGE
----------------------

Number of atoms                             ...     81
Number of basis functions                   ...    565
Number of shells                            ...    317
Maximum angular momentum                    ...      2
Integral batch strategy                     ... SHARK/LIBINT Hybrid
RI-J (if used) integral strategy            ... SPLIT-RIJ (Revised 2003 algorithm where possible)
Printlevel                                  ...      1
Contraction scheme used                     ... SEGMENTED contraction
Coulomb Range Separation                    ... NOT USED
Exchange Range Separation                   ... NOT USED
Finite Nucleus Model                        ... NOT USED
Auxiliary Coulomb fitting basis             ... AVAILABLE
   # of basis functions in Aux-J            ...   2069
   # of shells in Aux-J                     ...    715
   Maximum angular momentum in Aux-J        ...      4
Auxiliary J/K fitting basis                 ... NOT available
Auxiliary Correlation fitting basis         ... NOT available
Auxiliary 'external' fitting basis          ... NOT available
Integral threshold                          ...     2.500000e-11
Primitive cut-off                           ...     2.500000e-12
Primitive pair pre-selection threshold      ...     2.500000e-12

Calculating pre-screening integrals         ... done (  0.1 sec) Dimension = 317
Organizing shell pair data                  ... done (  0.7 sec)
Shell pair information
Total number of shell pairs                 ...     50403
Shell pairs after pre-screening             ...     28692
Total number of primitive shell pairs       ...    182659
Primitive shell pairs kept                  ...     62791
          la=0 lb=0:  13065 shell pairs
          la=1 lb=0:   9132 shell pairs
          la=1 lb=1:   1501 shell pairs
          la=2 lb=0:   3486 shell pairs
          la=2 lb=1:   1265 shell pairs
          la=2 lb=2:    243 shell pairs

Calculating one electron integrals          ... done (  0.2 sec)
Calculating RI/J V-Matrix + Cholesky decomp.... done (  2.1 sec)
Calculating Nuclear repulsion               ... done (  0.2 sec) ENN=   3407.481190874352 Eh

SHARK setup successfully completed in   4.6 seconds

Maximum memory used throughout the entire GTOINT-calculation: 58.6 MB


           ************************************************************
           *        Program running with 4 parallel MPI-processes     *
           *              working on a common directory               *
           ************************************************************
-------------------------------------------------------------------------------
                                 ORCA SCF
-------------------------------------------------------------------------------

------------
SCF SETTINGS
------------
Hamiltonian:
 Density Functional     Method          .... DFT(GTOs)
 Exchange Functional    Exchange        .... PBE
   PBE kappa parameter   XKappa         ....  1.024500
   PBE mue parameter    XMuePBE         ....  0.123457
 Correlation Functional Correlation     .... PBE
   PBE beta parameter  CBetaPBE         ....  0.030000
 LDA part of GGA corr.  LDAOpt          .... PW91-LDA
 Gradients option       PostSCFGGA      .... off
 Hybrid DFT is turned on
   Fraction HF Exchange ScalHFX         ....  0.420000
   Scaling of DF-GGA-X  ScalDFX         ....  0.580000
   Scaling of DF-GGA-C  ScalDFC         ....  1.000000
   Scaling of DF-LDA-C  ScalLDAC        ....  1.000000
   Perturbative correction              ....  0.000000
   Density functional embedding theory  .... OFF
 RI-approximation to the Coulomb term is turned on
   Number of AuxJ basis functions       .... 2069
   RIJ-ON(X) (HFX calculated with O(N)) .... on
   Number of AuxJ basis functions       .... 2069
   RIJ-COSX (HFX calculated with COS-X)).... on


General Settings:
 Integral files         IntName         .... pbeh-3c
 Hartree-Fock type      HFTyp           .... RHF
 Total Charge           Charge          ....    0
 Multiplicity           Mult            ....    1
 Number of Electrons    NEL             ....  238
 Basis Dimension        Dim             ....  565
 Nuclear Repulsion      ENuc            ....   3407.4811908744 Eh

Convergence Acceleration:
 DIIS                   CNVDIIS         .... on
   Start iteration      DIISMaxIt       ....    12
   Startup error        DIISStart       ....  0.200000
   # of expansion vecs  DIISMaxEq       ....     5
   Bias factor          DIISBfac        ....   1.050
   Max. coefficient     DIISMaxC        ....  10.000
 Trust-Rad. Augm. Hess. CNVTRAH         .... auto
   Auto Start mean grad. ratio tolernc. ....  1.125000
   Auto Start start iteration           ....    20
   Auto Start num. interpolation iter.  ....    10
   Max. Number of Micro iterations      ....    16
   Max. Number of Macro iterations      .... Maxiter - #DIIS iter
   Number of Davidson start vectors     ....     2
   Converg. threshold I  (grad. norm)   ....   1.000e-05
   Converg. threshold II (energy diff.) ....   1.000e-08
   Grad. Scal. Fac. for Micro threshold ....   0.100
   Minimum threshold for Micro iter.    ....   0.010
   NR start threshold (gradient norm)   ....   0.001
   Initial trust radius                 ....   0.400
   Minimum AH scaling param. (alpha)    ....   1.000
   Maximum AH scaling param. (alpha)    .... 1000.000
   Orbital update algorithm             .... Taylor
   White noise on init. David. guess    .... on
   Maximum white noise                  ....   0.010
   Quad. conv. algorithm                .... NR
   COSX micro iterations for RIJONX calc.... off
 SOSCF                  CNVSOSCF        .... on
   Start iteration      SOSCFMaxIt      ....   150
   Startup grad/error   SOSCFStart      ....  0.003300
 Level Shifting         CNVShift        .... on
   Level shift para.    LevelShift      ....    0.2500
   Turn off err/grad.   ShiftErr        ....    0.0010
 Zerner damping         CNVZerner       .... off
 Static damping         CNVDamp         .... on
   Fraction old density DampFac         ....    0.7000
   Max. Damping (<1)    DampMax         ....    0.9800
   Min. Damping (>=0)   DampMin         ....    0.0000
   Turn off err/grad.   DampErr         ....    0.1000
 Fernandez-Rico         CNVRico         .... off

SCF Procedure:
 Maximum # iterations   MaxIter         ....   125
 SCF integral mode      SCFMode         .... Direct
   Integral package                     .... SHARK and LIBINT hybrid scheme
 Reset frequency        DirectResetFreq ....    20
 Integral Threshold     Thresh          ....  2.500e-11 Eh
 Primitive CutOff       TCut            ....  2.500e-12 Eh

Convergence Tolerance:
 Convergence Check Mode ConvCheckMode   .... Total+1el-Energy
 Convergence forced     ConvForced      .... 0
 Energy Change          TolE            ....  1.000e-08 Eh
 1-El. energy change                    ....  1.000e-05 Eh
 Orbital Gradient       TolG            ....  1.000e-05
 Orbital Rotation angle TolX            ....  1.000e-05
 DIIS Error             TolErr          ....  5.000e-07


Diagonalization of the overlap matrix:
Smallest eigenvalue                        ... 1.043e-03
Time for diagonalization                   ...    0.137 sec
Threshold for overlap eigenvalues          ... 1.000e-08
Number of eigenvalues below threshold      ... 0
Time for construction of square roots      ...    0.311 sec
Total time needed                          ...    0.450 sec

--------------------------------
INITIAL GUESS: MINIMAL BASIS EHT
--------------------------------
The minimal basis has 205 functions
EHT matrix was diagonalized
Basis set overlap was calculated now projecting the orbitals
Using GuessMode=FMatrix for the initial guess
C*T matrix was formed
Effective Fockian was calculated
Effective Fockian was diagonalized
Initial density was built
                      ------------------
                      INITIAL GUESS DONE
                      ------------------
-------------------
DFT GRID GENERATION
-------------------

General Integration Accuracy     IntAcc      ... 4.959
Radial Grid Type                 RadialGrid  ... OptM3 with GC (2021)
Angular Grid (max. ang.)         AngularGrid ... 6 (Lebedev-590)
Angular grid pruning method      GridPruning ... 4 (adaptive)
Weight generation scheme         WeightScheme... Becke
Basis function cutoff            BFCut       ... 1.0000e-11
Integration weight cutoff        WCut        ... 1.0000e-14
Angular grids for H and He will be reduced by one unit
Partially contracted basis set               ... off
Rotationally invariant grid construction     ... off

Total number of grid points                  ...   845729
Total number of batches                      ...    13255
Average number of points per batch           ...       63
Average number of grid points per atom       ...    10441
Time for grid setup =   23.032 sec

--------------------
COSX GRID GENERATION
--------------------

GRIDX 1
-------
General Integration Accuracy     IntAcc      ... 4.020
Radial Grid Type                 RadialGrid  ... OptM3 with GC (2021)
Angular Grid (max. ang.)         AngularGrid ... 2 (Lebedev-110)
Angular grid pruning method      GridPruning ... 4 (adaptive)
Weight generation scheme         WeightScheme... Becke
Basis function cutoff            BFCut       ... 1.0000e-11
Integration weight cutoff        WCut        ... 1.0000e-14
Angular grids for H and He will be reduced by one unit
Partially contracted basis set               ... on
Rotationally invariant grid construction     ... off

Total number of grid points                  ...    87975
Total number of batches                      ...     1414
Average number of points per batch           ...       62
Average number of grid points per atom       ...     1086
UseSFitting                                  ... on

GRIDX 2
-------
General Integration Accuracy     IntAcc      ... 4.338
Radial Grid Type                 RadialGrid  ... OptM3 with GC (2021)
Angular Grid (max. ang.)         AngularGrid ... 3 (Lebedev-194)
Angular grid pruning method      GridPruning ... 4 (adaptive)
Weight generation scheme         WeightScheme... Becke
Basis function cutoff            BFCut       ... 1.0000e-11
Integration weight cutoff        WCut        ... 1.0000e-14
Angular grids for H and He will be reduced by one unit
Partially contracted basis set               ... on
Rotationally invariant grid construction     ... off

Total number of grid points                  ...   189949
Total number of batches                      ...     3012
Average number of points per batch           ...       63
Average number of grid points per atom       ...     2345
UseSFitting                                  ... on

GRIDX 3
-------
General Integration Accuracy     IntAcc      ... 4.871
Radial Grid Type                 RadialGrid  ... OptM3 with GC (2021)
Angular Grid (max. ang.)         AngularGrid ... 4 (Lebedev-302)
Angular grid pruning method      GridPruning ... 4 (adaptive)
Weight generation scheme         WeightScheme... Becke
Basis function cutoff            BFCut       ... 1.0000e-11
Integration weight cutoff        WCut        ... 1.0000e-14
Angular grids for H and He will be reduced by one unit
Partially contracted basis set               ... on
Rotationally invariant grid construction     ... off

Total number of grid points                  ...   367963
Total number of batches                      ...     5788
Average number of points per batch           ...       63
Average number of grid points per atom       ...     4543
UseSFitting                                  ... on

Time for X-Grid setup             =   20.014 sec

--------------
SCF ITERATIONS
--------------
ITER       Energy         Delta-E        Max-DP      RMS-DP      [F,P]     Damp
               ***  Starting incremental Fock matrix formation  ***
  0  -1243.4716034285   0.000000000000 0.14311457  0.00193546  0.4356554 0.7000
  1  -1244.2031776888  -0.731574260287 0.07864202  0.00136150  0.2832086 0.7000
                               ***Turning on DIIS***
  2  -1244.7008441736  -0.497666484803 0.04764192  0.00096781  0.1999397 0.7000
  3  -1245.0524096316  -0.351565457978 0.03896946  0.00074127  0.1409902 0.7000
  4  -1245.3016381605  -0.249228528957 0.08828133  0.00184445  0.0987624 0.0000
  5  -1245.8961202533  -0.594482092765 0.00615553  0.00008352  0.0055884 0.0000
  6  -1245.8963741166  -0.000253863298 0.00233514  0.00003119  0.0037829 0.0000
                      *** Initiating the SOSCF procedure ***
                           *** Shutting down DIIS ***
                      *** Re-Reading the Fockian *** 
                      *** Removing any level shift *** 
ITER      Energy       Delta-E        Grad      Rot      Max-DP    RMS-DP
  7  -1245.89642840  -0.0000542820  0.000232  0.000232  0.001313  0.000016
               *** Restarting incremental Fock matrix formation ***
  8  -1245.89644044  -0.0000120370  0.000090  0.000183  0.000425  0.000009
  9  -1245.89644176  -0.0000013210  0.000022  0.000068  0.000224  0.000004
 10  -1245.89644197  -0.0000002084  0.000018  0.000036  0.000105  0.000002
 11  -1245.89644200  -0.0000000383  0.000009  0.000021  0.000024  0.000000
 12  -1245.89644203  -0.0000000250  0.000007  0.000010  0.000012  0.000000
                  ***Gradient check signals convergence***
              ***Rediagonalizing the Fockian in SOSCF/NRSCF***

               *****************************************************
               *                     SUCCESS                       *
               *           SCF CONVERGED AFTER  13 CYCLES          *
               *****************************************************

Old exchange energy                            =    -76.252934731 Eh
New exchange energy                            =    -76.252964061 Eh
Exchange energy change after final integration =     -0.000029331 Eh
Total energy after final integration           =  -1245.896471342 Eh
Final COS-X integration done in                =   163.589 sec

----------------
TOTAL SCF ENERGY
----------------

Total Energy       :        -1245.89647134 Eh          -33902.56656 eV

Components:
Nuclear Repulsion  :         3407.48119087 Eh           92722.27711 eV
Electronic Energy  :        -4653.37766222 Eh         -126624.84367 eV
One Electron Energy:        -8467.97925639 Eh         -230425.43017 eV
Two Electron Energy:         3814.60159417 Eh          103800.58650 eV
Max COSX asymmetry :            0.00000178 Eh               0.00005 eV

Virial components:
Potential Energy   :        -2480.36274238 Eh          -67494.10155 eV
Kinetic Energy     :         1234.46627104 Eh           33591.53500 eV
Virial Ratio       :            2.00925922


DFT components:
N(Alpha)           :      119.000021126719 electrons
N(Beta)            :      119.000021126719 electrons
N(Total)           :      238.000042253437 electrons
E(X)               :     -101.092093899705 Eh       
E(C)               :      -10.285854811351 Eh       
E(XC)              :     -111.377948711055 Eh       
DFET-embed. en.    :        0.000000000000 Eh       

---------------
SCF CONVERGENCE
---------------

  Last Energy change         ...    1.7050e-08  Tolerance :   1.0000e-08
  Last MAX-Density change    ...    2.6645e-15  Tolerance :   1.0000e-07
  Last RMS-Density change    ...    2.8399e-17  Tolerance :   5.0000e-09
  Last Orbital Gradient      ...    1.0697e-06  Tolerance :   1.0000e-05
  Last Orbital Rotation      ...    2.7944e-06  Tolerance :   1.0000e-05

             **** THE GBW FILE WAS UPDATED (pbeh-3c.gbw) ****
             **** DENSITY pbeh-3c.scfp WAS UPDATED ****
             **** ENERGY FILE WAS UPDATED (pbeh-3c.en.tmp) ****
             **** THE GBW FILE WAS UPDATED (pbeh-3c.gbw) ****
             **** DENSITY pbeh-3c.scfp WAS UPDATED ****
----------------
ORBITAL ENERGIES
----------------

  NO   OCC          E(Eh)            E(eV) 
   0   2.0000     -19.486340      -530.2503 
   1   2.0000     -10.486739      -285.3587 
   2   2.0000     -10.455115      -284.4982 
   3   2.0000     -10.449950      -284.3576 
   4   2.0000     -10.445327      -284.2318 
   5   2.0000     -10.444688      -284.2144 
   6   2.0000     -10.439669      -284.0778 
   7   2.0000     -10.437244      -284.0119 
   8   2.0000     -10.436557      -283.9932 
   9   2.0000     -10.434571      -283.9391 
  10   2.0000     -10.432439      -283.8811 
  11   2.0000     -10.431567      -283.8574 
  12   2.0000     -10.431545      -283.8568 
  13   2.0000     -10.431118      -283.8451 
  14   2.0000     -10.430809      -283.8367 
  15   2.0000     -10.429722      -283.8072 
  16   2.0000     -10.429582      -283.8033 
  17   2.0000     -10.428805      -283.7822 
  18   2.0000     -10.428667      -283.7785 
  19   2.0000     -10.428397      -283.7711 
  20   2.0000     -10.428388      -283.7709 
  21   2.0000     -10.427865      -283.7566 
  22   2.0000     -10.427711      -283.7524 
  23   2.0000     -10.427589      -283.7491 
  24   2.0000     -10.427112      -283.7361 
  25   2.0000     -10.426523      -283.7201 
  26   2.0000     -10.426350      -283.7154 
  27   2.0000     -10.421023      -283.5704 
  28   2.0000     -10.419107      -283.5183 
  29   2.0000     -10.413751      -283.3726 
  30   2.0000     -10.408736      -283.2361 
  31   2.0000      -1.117689       -30.4139 
  32   2.0000      -0.963154       -26.2088 
  33   2.0000      -0.941115       -25.6090 
  34   2.0000      -0.909361       -24.7450 
  35   2.0000      -0.898264       -24.4430 
  36   2.0000      -0.880345       -23.9554 
  37   2.0000      -0.873795       -23.7772 
  38   2.0000      -0.858547       -23.3622 
  39   2.0000      -0.838255       -22.8101 
  40   2.0000      -0.824281       -22.4298 
  41   2.0000      -0.815675       -22.1956 
  42   2.0000      -0.792195       -21.5567 
  43   2.0000      -0.780740       -21.2450 
  44   2.0000      -0.768815       -20.9205 
  45   2.0000      -0.766665       -20.8620 
  46   2.0000      -0.757387       -20.6095 
  47   2.0000      -0.747736       -20.3469 
  48   2.0000      -0.745372       -20.2826 
  49   2.0000      -0.743976       -20.2446 
  50   2.0000      -0.718282       -19.5454 
  51   2.0000      -0.688342       -18.7307 
  52   2.0000      -0.686301       -18.6752 
  53   2.0000      -0.671949       -18.2846 
  54   2.0000      -0.656748       -17.8710 
  55   2.0000      -0.652485       -17.7550 
  56   2.0000      -0.630718       -17.1627 
  57   2.0000      -0.603091       -16.4109 
  58   2.0000      -0.586665       -15.9640 
  59   2.0000      -0.577617       -15.7178 
  60   2.0000      -0.573301       -15.6003 
  61   2.0000      -0.560304       -15.2466 
  62   2.0000      -0.543238       -14.7823 
  63   2.0000      -0.539352       -14.6765 
  64   2.0000      -0.535042       -14.5592 
  65   2.0000      -0.530548       -14.4370 
  66   2.0000      -0.524505       -14.2725 
  67   2.0000      -0.514290       -13.9946 
  68   2.0000      -0.506627       -13.7860 
  69   2.0000      -0.502843       -13.6831 
  70   2.0000      -0.497731       -13.5439 
  71   2.0000      -0.494253       -13.4493 
  72   2.0000      -0.486848       -13.2478 
  73   2.0000      -0.484607       -13.1868 
  74   2.0000      -0.480252       -13.0683 
  75   2.0000      -0.477134       -12.9835 
  76   2.0000      -0.475276       -12.9329 
  77   2.0000      -0.466137       -12.6842 
  78   2.0000      -0.457232       -12.4419 
  79   2.0000      -0.455799       -12.4029 
  80   2.0000      -0.449534       -12.2324 
  81   2.0000      -0.449275       -12.2254 
  82   2.0000      -0.445178       -12.1139 
  83   2.0000      -0.440281       -11.9806 
  84   2.0000      -0.436089       -11.8666 
  85   2.0000      -0.434210       -11.8155 
  86   2.0000      -0.433312       -11.7910 
  87   2.0000      -0.431987       -11.7550 
  88   2.0000      -0.424697       -11.5566 
  89   2.0000      -0.423840       -11.5333 
  90   2.0000      -0.419537       -11.4162 
  91   2.0000      -0.416293       -11.3279 
  92   2.0000      -0.414378       -11.2758 
  93   2.0000      -0.411944       -11.2096 
  94   2.0000      -0.410376       -11.1669 
  95   2.0000      -0.405409       -11.0317 
  96   2.0000      -0.403983       -10.9929 
  97   2.0000      -0.402286       -10.9468 
  98   2.0000      -0.395571       -10.7640 
  99   2.0000      -0.391181       -10.6446 
 100   2.0000      -0.384118       -10.4524 
 101   2.0000      -0.382012       -10.3951 
 102   2.0000      -0.381723       -10.3872 
 103   2.0000      -0.379654       -10.3309 
 104   2.0000      -0.378133       -10.2895 
 105   2.0000      -0.371137       -10.0991 
 106   2.0000      -0.366726        -9.9791 
 107   2.0000      -0.362629        -9.8676 
 108   2.0000      -0.353293        -9.6136 
 109   2.0000      -0.345314        -9.3965 
 110   2.0000      -0.341200        -9.2845 
 111   2.0000      -0.339442        -9.2367 
 112   2.0000      -0.336879        -9.1669 
 113   2.0000      -0.331559        -9.0222 
 114   2.0000      -0.326387        -8.8814 
 115   2.0000      -0.307673        -8.3722 
 116   2.0000      -0.301893        -8.2149 
 117   2.0000      -0.267568        -7.2809 
 118   2.0000      -0.252505        -6.8710 
 119   0.0000       0.056558         1.5390 
 120   0.0000       0.057758         1.5717 
 121   0.0000       0.096836         2.6350 
 122   0.0000       0.105133         2.8608 
 123   0.0000       0.125814         3.4236 
 124   0.0000       0.133215         3.6250 
 125   0.0000       0.138968         3.7815 
 126   0.0000       0.142691         3.8828 
 127   0.0000       0.145115         3.9488 
 128   0.0000       0.149972         4.0809 
 129   0.0000       0.153648         4.1810 
 130   0.0000       0.159841         4.3495 
 131   0.0000       0.161326         4.3899 
 132   0.0000       0.168543         4.5863 
 133   0.0000       0.170490         4.6393 
 134   0.0000       0.172225         4.6865 
 135   0.0000       0.174077         4.7369 
 136   0.0000       0.176884         4.8133 
 137   0.0000       0.176973         4.8157 
 138   0.0000       0.185150         5.0382 
 139   0.0000       0.186586         5.0773 
 140   0.0000       0.190220         5.1761 
 141   0.0000       0.191967         5.2237 
 142   0.0000       0.196505         5.3472 
 143   0.0000       0.198411         5.3990 
 144   0.0000       0.201732         5.4894 
 145   0.0000       0.204964         5.5774 
 146   0.0000       0.207114         5.6359 
 147   0.0000       0.207917         5.6577 
 148   0.0000       0.211921         5.7667 
 149   0.0000       0.215571         5.8660 
 150   0.0000       0.216889         5.9019 
 151   0.0000       0.219546         5.9741 
 152   0.0000       0.220885         6.0106 
 153   0.0000       0.223323         6.0769 
 154   0.0000       0.226072         6.1517 
 155   0.0000       0.229243         6.2380 
 156   0.0000       0.231254         6.2927 
 157   0.0000       0.232403         6.3240 
 158   0.0000       0.237594         6.4653 
 159   0.0000       0.239982         6.5302 
 160   0.0000       0.241007         6.5581 
 161   0.0000       0.241926         6.5831 
 162   0.0000       0.244781         6.6608 
 163   0.0000       0.245614         6.6835 
 164   0.0000       0.253388         6.8950 
 165   0.0000       0.254329         6.9206 
 166   0.0000       0.256610         6.9827 
 167   0.0000       0.258207         7.0262 
 168   0.0000       0.262206         7.1350 
 169   0.0000       0.264572         7.1994 
 170   0.0000       0.267655         7.2833 
 171   0.0000       0.268060         7.2943 
 172   0.0000       0.276252         7.5172 
 173   0.0000       0.277233         7.5439 
 174   0.0000       0.280999         7.6464 
 175   0.0000       0.283935         7.7263 
 176   0.0000       0.290613         7.9080 
 177   0.0000       0.291694         7.9374 
 178   0.0000       0.294577         8.0158 
 179   0.0000       0.298402         8.1199 
 180   0.0000       0.299324         8.1450 
 181   0.0000       0.303437         8.2569 
 182   0.0000       0.306633         8.3439 
 183   0.0000       0.312588         8.5059 
 184   0.0000       0.317385         8.6365 
 185   0.0000       0.319686         8.6991 
 186   0.0000       0.322069         8.7639 
 187   0.0000       0.327646         8.9157 
 188   0.0000       0.330971         9.0062 
 189   0.0000       0.339833         9.2473 
 190   0.0000       0.344225         9.3668 
 191   0.0000       0.349070         9.4987 
 192   0.0000       0.354353         9.6424 
 193   0.0000       0.355241         9.6666 
 194   0.0000       0.366098         9.9620 
 195   0.0000       0.367743        10.0068 
 196   0.0000       0.377296        10.2667 
 197   0.0000       0.377949        10.2845 
 198   0.0000       0.382336        10.4039 
 199   0.0000       0.390728        10.6323 
 200   0.0000       0.399791        10.8789 
 201   0.0000       0.407707        11.0943 
 202   0.0000       0.417206        11.3527 
 203   0.0000       0.440040        11.9741 
 204   0.0000       0.474730        12.9181 
 205   0.0000       0.499369        13.5885 
 206   0.0000       0.505388        13.7523 
 207   0.0000       0.509262        13.8577 
 208   0.0000       0.511549        13.9200 
 209   0.0000       0.518330        14.1045 
 210   0.0000       0.525054        14.2875 
 211   0.0000       0.525813        14.3081 
 212   0.0000       0.529340        14.4041 
 213   0.0000       0.533573        14.5193 
 214   0.0000       0.535597        14.5743 
 215   0.0000       0.545453        14.8425 
 216   0.0000       0.558255        15.1909 
 217   0.0000       0.562448        15.3050 
 218   0.0000       0.568863        15.4796 
 219   0.0000       0.571715        15.5572 
 220   0.0000       0.577320        15.7097 
 221   0.0000       0.579675        15.7738 
 222   0.0000       0.586355        15.9555 
 223   0.0000       0.587398        15.9839 
 224   0.0000       0.593495        16.1498 
 225   0.0000       0.596785        16.2393 
 226   0.0000       0.601395        16.3648 
 227   0.0000       0.602882        16.4053 
 228   0.0000       0.609655        16.5896 
 229   0.0000       0.616913        16.7871 
 230   0.0000       0.621423        16.9098 
 231   0.0000       0.628910        17.1135 
 232   0.0000       0.635520        17.2934 
 233   0.0000       0.638619        17.3777 
 234   0.0000       0.643806        17.5189 
 235   0.0000       0.652220        17.7478 
 236   0.0000       0.656349        17.8602 
 237   0.0000       0.664524        18.0826 
 238   0.0000       0.667787        18.1714 
 239   0.0000       0.673758        18.3339 
 240   0.0000       0.676457        18.4073 
 241   0.0000       0.679773        18.4976 
 242   0.0000       0.685032        18.6407 
 243   0.0000       0.686447        18.6792 
 244   0.0000       0.698225        18.9997 
 245   0.0000       0.702185        19.1074 
 246   0.0000       0.706101        19.2140 
 247   0.0000       0.707001        19.2385 
 248   0.0000       0.712246        19.3812 
 249   0.0000       0.715689        19.4749 
 250   0.0000       0.721762        19.6401 
 251   0.0000       0.725357        19.7380 
 252   0.0000       0.727591        19.7987 
 253   0.0000       0.731706        19.9107 
 254   0.0000       0.734474        19.9861 
 255   0.0000       0.740021        20.1370 
 256   0.0000       0.747012        20.3272 
 257   0.0000       0.756055        20.5733 
 258   0.0000       0.759157        20.6577 
 259   0.0000       0.765335        20.8258 
 260   0.0000       0.774111        21.0646 
 261   0.0000       0.774664        21.0797 
 262   0.0000       0.782052        21.2807 
 263   0.0000       0.789012        21.4701 
 264   0.0000       0.798555        21.7298 
 265   0.0000       0.815876        22.2011 
 266   0.0000       0.818820        22.2812 
 267   0.0000       0.822028        22.3685 
 268   0.0000       0.827747        22.5241 
 269   0.0000       0.836377        22.7590 
 270   0.0000       0.854941        23.2641 
 271   0.0000       0.862242        23.4628 
 272   0.0000       0.872228        23.7345 
 273   0.0000       0.874819        23.8050 
 274   0.0000       0.889258        24.1979 
 275   0.0000       0.896643        24.3989 
 276   0.0000       0.905321        24.6350 
 277   0.0000       0.907959        24.7068 
 278   0.0000       0.909210        24.7409 
 279   0.0000       0.921462        25.0743 
 280   0.0000       0.928406        25.2632 
 281   0.0000       0.939800        25.5732 
 282   0.0000       0.941799        25.6277 
 283   0.0000       0.952069        25.9071 
 284   0.0000       0.958874        26.0923 
 285   0.0000       0.964774        26.2528 
 286   0.0000       0.969908        26.3925 
 287   0.0000       0.973309        26.4851 
 288   0.0000       0.976348        26.5678 
 289   0.0000       0.988063        26.8866 
 290   0.0000       0.991627        26.9835 
 291   0.0000       0.995305        27.0836 
 292   0.0000       1.000827        27.2339 
 293   0.0000       1.002151        27.2699 
 294   0.0000       1.005707        27.3667 
 295   0.0000       1.008405        27.4401 
 296   0.0000       1.012408        27.5490 
 297   0.0000       1.017281        27.6816 
 298   0.0000       1.024920        27.8895 
 299   0.0000       1.029430        28.0122 
 300   0.0000       1.031132        28.0585 
 301   0.0000       1.032137        28.0859 
 302   0.0000       1.032389        28.0927 
 303   0.0000       1.038519        28.2595 
 304   0.0000       1.044210        28.4144 
 305   0.0000       1.045892        28.4602 
 306   0.0000       1.049635        28.5620 
 307   0.0000       1.050804        28.5938 
 308   0.0000       1.051712        28.6185 
 309   0.0000       1.054349        28.6903 
 310   0.0000       1.062627        28.9156 
 311   0.0000       1.066173        29.0120 
 312   0.0000       1.066559        29.0226 
 313   0.0000       1.072415        29.1819 
 314   0.0000       1.078553        29.3489 
 315   0.0000       1.084794        29.5187 
 316   0.0000       1.089820        29.6555 
 317   0.0000       1.091704        29.7068 
 318   0.0000       1.094990        29.7962 
 319   0.0000       1.101978        29.9863 
 320   0.0000       1.105196        30.0739 
 321   0.0000       1.105996        30.0957 
 322   0.0000       1.110398        30.2155 
 323   0.0000       1.113653        30.3041 
 324   0.0000       1.117244        30.4018 
 325   0.0000       1.126667        30.6582 
 326   0.0000       1.128167        30.6990 
 327   0.0000       1.132689        30.8220 
 328   0.0000       1.139538        31.0084 
 329   0.0000       1.143939        31.1282 
 330   0.0000       1.152031        31.3484 
 331   0.0000       1.156386        31.4669 
 332   0.0000       1.160558        31.5804 
 333   0.0000       1.169910        31.8349 
 334   0.0000       1.174065        31.9479 
 335   0.0000       1.181004        32.1367 
 336   0.0000       1.188007        32.3273 
 337   0.0000       1.191328        32.4177 
 338   0.0000       1.196291        32.5527 
 339   0.0000       1.199858        32.6498 
 340   0.0000       1.207239        32.8506 
 341   0.0000       1.219523        33.1849 
 342   0.0000       1.230208        33.4757 
 343   0.0000       1.236004        33.6334 
 344   0.0000       1.239512        33.7288 
 345   0.0000       1.257591        34.2208 
 346   0.0000       1.269478        34.5443 
 347   0.0000       1.275413        34.7057 
 348   0.0000       1.291608        35.1464 
 349   0.0000       1.297972        35.3196 
 350   0.0000       1.320819        35.9413 
 351   0.0000       1.324704        36.0470 
 352   0.0000       1.344347        36.5815 
 353   0.0000       1.355531        36.8859 
 354   0.0000       1.365898        37.1680 
 355   0.0000       1.372594        37.3502 
 356   0.0000       1.392831        37.9009 
 357   0.0000       1.405312        38.2405 
 358   0.0000       1.406860        38.2826 
 359   0.0000       1.420414        38.6514 
 360   0.0000       1.444676        39.3116 
 361   0.0000       1.444918        39.3182 
 362   0.0000       1.461728        39.7756 
 363   0.0000       1.468944        39.9720 
 364   0.0000       1.484742        40.4019 
 365   0.0000       1.496271        40.7156 
 366   0.0000       1.500248        40.8238 
 367   0.0000       1.514684        41.2166 
 368   0.0000       1.527527        41.5661 
 369   0.0000       1.530356        41.6431 
 370   0.0000       1.530998        41.6606 
 371   0.0000       1.543256        41.9941 
 372   0.0000       1.553007        42.2595 
 373   0.0000       1.583859        43.0990 
 374   0.0000       1.586566        43.1727 
 375   0.0000       1.593703        43.3669 
 376   0.0000       1.603862        43.6433 
 377   0.0000       1.610827        43.8328 
 378   0.0000       1.629121        44.3306 
 379   0.0000       1.645994        44.7898 
 380   0.0000       1.649512        44.8855 
 381   0.0000       1.660118        45.1741 
 382   0.0000       1.682916        45.7945 
 383   0.0000       1.684700        45.8430 
 384   0.0000       1.691421        46.0259 
 385   0.0000       1.711393        46.5694 
 386   0.0000       1.720217        46.8095 
 387   0.0000       1.735061        47.2134 
 388   0.0000       1.742131        47.4058 
 389   0.0000       1.750690        47.6387 
 390   0.0000       1.763479        47.9867 
 391   0.0000       1.764387        48.0114 
 392   0.0000       1.772977        48.2451 
 393   0.0000       1.799256        48.9603 
 394   0.0000       1.808837        49.2210 
 395   0.0000       1.818633        49.4875 
 396   0.0000       1.830276        49.8043 
 397   0.0000       1.834704        49.9248 
 398   0.0000       1.840591        50.0850 
 399   0.0000       1.845139        50.2088 
 400   0.0000       1.853510        50.4366 
 401   0.0000       1.860426        50.6248 
 402   0.0000       1.864990        50.7489 
 403   0.0000       1.870321        50.8940 
 404   0.0000       1.873804        50.9888 
 405   0.0000       1.882277        51.2194 
 406   0.0000       1.886726        51.3404 
 407   0.0000       1.900119        51.7049 
 408   0.0000       1.905106        51.8406 
 409   0.0000       1.908339        51.9285 
 410   0.0000       1.917358        52.1740 
 411   0.0000       1.925286        52.3897 
 412   0.0000       1.936448        52.6934 
 413   0.0000       1.938376        52.7459 
 414   0.0000       1.945233        52.9325 
 415   0.0000       1.949864        53.0585 
 416   0.0000       1.954597        53.1873 
 417   0.0000       1.966290        53.5055 
 418   0.0000       1.971959        53.6597 
 419   0.0000       1.976894        53.7940 
 420   0.0000       1.984430        53.9991 
 421   0.0000       1.994489        54.2728 
 422   0.0000       2.000911        54.4476 
 423   0.0000       2.008566        54.6558 
 424   0.0000       2.010791        54.7164 
 425   0.0000       2.018244        54.9192 
 426   0.0000       2.025347        55.1125 
 427   0.0000       2.035416        55.3865 
 428   0.0000       2.042980        55.5923 
 429   0.0000       2.046785        55.6958 
 430   0.0000       2.051252        55.8174 
 431   0.0000       2.053839        55.8878 
 432   0.0000       2.059842        56.0512 
 433   0.0000       2.070857        56.3509 
 434   0.0000       2.076296        56.4989 
 435   0.0000       2.086667        56.7811 
 436   0.0000       2.092714        56.9456 
 437   0.0000       2.102558        57.2135 
 438   0.0000       2.114208        57.5305 
 439   0.0000       2.119757        57.6815 
 440   0.0000       2.132712        58.0341 
 441   0.0000       2.137978        58.1773 
 442   0.0000       2.141520        58.2737 
 443   0.0000       2.148204        58.4556 
 444   0.0000       2.151858        58.5550 
 445   0.0000       2.155168        58.6451 
 446   0.0000       2.165186        58.9177 
 447   0.0000       2.170587        59.0647 
 448   0.0000       2.184528        59.4440 
 449   0.0000       2.187164        59.5157 
 450   0.0000       2.196263        59.7633 
 451   0.0000       2.207285        60.0633 
 452   0.0000       2.211036        60.1653 
 453   0.0000       2.217912        60.3525 
 454   0.0000       2.227017        60.6002 
 455   0.0000       2.250497        61.2391 
 456   0.0000       2.253450        61.3195 
 457   0.0000       2.259847        61.4936 
 458   0.0000       2.268332        61.7244 
 459   0.0000       2.275899        61.9304 
 460   0.0000       2.290574        62.3297 
 461   0.0000       2.297569        62.5200 
 462   0.0000       2.307559        62.7919 
 463   0.0000       2.313894        62.9643 
 464   0.0000       2.328536        63.3627 
 465   0.0000       2.330814        63.4247 
 466   0.0000       2.336990        63.5927 
 467   0.0000       2.345565        63.8261 
 468   0.0000       2.347442        63.8772 
 469   0.0000       2.353766        64.0492 
 470   0.0000       2.357564        64.1526 
 471   0.0000       2.361602        64.2624 
 472   0.0000       2.371491        64.5315 
 473   0.0000       2.382477        64.8305 
 474   0.0000       2.391032        65.0633 
 475   0.0000       2.396719        65.2180 
 476   0.0000       2.402846        65.3848 
 477   0.0000       2.404691        65.4350 
 478   0.0000       2.411483        65.6198 
 479   0.0000       2.414907        65.7130 
 480   0.0000       2.432901        66.2026 
 481   0.0000       2.437879        66.3381 
 482   0.0000       2.439638        66.3859 
 483   0.0000       2.452869        66.7460 
 484   0.0000       2.465518        67.0902 
 485   0.0000       2.472014        67.2669 
 486   0.0000       2.489213        67.7349 
 487   0.0000       2.499692        68.0201 
 488   0.0000       2.502514        68.0969 
 489   0.0000       2.506388        68.2023 
 490   0.0000       2.508981        68.2729 
 491   0.0000       2.521467        68.6126 
 492   0.0000       2.527687        68.7819 
 493   0.0000       2.548657        69.3525 
 494   0.0000       2.557565        69.5949 
 495   0.0000       2.558980        69.6334 
 496   0.0000       2.570561        69.9485 
 497   0.0000       2.581031        70.2334 
 498   0.0000       2.585221        70.3475 
 499   0.0000       2.603736        70.8512 
 500   0.0000       2.610750        71.0421 
 501   0.0000       2.627949        71.5101 
 502   0.0000       2.633567        71.6630 
 503   0.0000       2.648220        72.0617 
 504   0.0000       2.650926        72.1354 
 505   0.0000       2.667128        72.5762 
 506   0.0000       2.674903        72.7878 
 507   0.0000       2.686209        73.0955 
 508   0.0000       2.701006        73.4981 
 509   0.0000       2.713000        73.8245 
 510   0.0000       2.723410        74.1077 
 511   0.0000       2.760051        75.1048 
 512   0.0000       2.773908        75.4819 
 513   0.0000       2.779343        75.6298 
 514   0.0000       2.795517        76.0699 
 515   0.0000       2.803279        76.2811 
 516   0.0000       2.806306        76.3635 
 517   0.0000       2.820602        76.7525 
 518   0.0000       2.829131        76.9846 
 519   0.0000       2.844102        77.3919 
 520   0.0000       2.859944        77.8230 
 521   0.0000       2.874894        78.2298 
 522   0.0000       2.891945        78.6938 
 523   0.0000       2.901896        78.9646 
 524   0.0000       2.931618        79.7734 
 525   0.0000       2.940965        80.0277 
 526   0.0000       2.945295        80.1455 
 527   0.0000       2.956703        80.4560 
 528   0.0000       2.962009        80.6004 
 529   0.0000       3.026787        82.3631 
 530   0.0000       3.054209        83.1092 
 531   0.0000       3.114648        84.7539 
 532   0.0000       3.147107        85.6371 
 533   0.0000       3.237269        88.0906 
 534   0.0000      13.389671       364.3515 
 535   0.0000      13.423788       365.2799 
 536   0.0000      13.561839       369.0364 
 537   0.0000      13.658993       371.6801 
 538   0.0000      13.702424       372.8619 
 539   0.0000      13.750486       374.1697 
 540   0.0000      13.786133       375.1398 
 541   0.0000      13.801201       375.5498 
 542   0.0000      13.835484       376.4827 
 543   0.0000      13.851630       376.9220 
 544   0.0000      13.876067       377.5870 
 545   0.0000      13.901568       378.2809 
 546   0.0000      13.904600       378.3634 
[...]
      pz      :     1.069570  p :     3.165072
      px      :     1.046642
      py      :     1.048859
      dz2     :     0.019894  d :     0.103274
      dxz     :     0.022201
      dyz     :     0.015936
      dx2y2   :     0.024762
      dxy     :     0.020481
 20 C s       :     2.920633  s :     2.920633
      pz      :     1.107741  p :     3.216514
      px      :     1.067540
      py      :     1.041233
      dz2     :     0.019816  d :     0.086618
      dxz     :     0.015229
      dyz     :     0.010632
      dx2y2   :     0.020616
      dxy     :     0.020326
 21 C s       :     2.906327  s :     2.906327
      pz      :     1.102763  p :     3.246722
      px      :     1.085787
      py      :     1.058172
      dz2     :     0.023150  d :     0.088237
      dxz     :     0.011376
      dyz     :     0.010064
      dx2y2   :     0.022132
      dxy     :     0.021514
 22 C s       :     2.906639  s :     2.906639
      pz      :     1.085560  p :     3.173263
      px      :     1.055357
      py      :     1.032346
      dz2     :     0.020083  d :     0.086678
      dxz     :     0.030727
      dyz     :     0.012913
      dx2y2   :     0.012494
      dxy     :     0.010461
 23 C s       :     2.868575  s :     2.868575
      pz      :     1.079538  p :     3.095694
      px      :     1.028982
      py      :     0.987174
      dz2     :     0.028060  d :     0.107275
      dxz     :     0.033627
      dyz     :     0.017584
      dx2y2   :     0.014055
      dxy     :     0.013949
 24 C s       :     2.955396  s :     2.955396
      pz      :     1.127111  p :     3.331590
      px      :     1.128108
      py      :     1.076372
      dz2     :     0.011966  d :     0.068544
      dxz     :     0.014802
      dyz     :     0.011514
      dx2y2   :     0.013357
      dxy     :     0.016906
 25 C s       :     2.951264  s :     2.951264
      pz      :     1.126191  p :     3.326011
      px      :     1.082868
      py      :     1.116953
      dz2     :     0.010105  d :     0.068910
      dxz     :     0.020997
      dyz     :     0.008661
      dx2y2   :     0.018438
      dxy     :     0.010708
 26 C s       :     2.948700  s :     2.948700
      pz      :     1.098543  p :     3.335643
      px      :     1.106003
      py      :     1.131096
      dz2     :     0.013959  d :     0.068168
      dxz     :     0.017194
      dyz     :     0.012028
      dx2y2   :     0.013137
      dxy     :     0.011851
 27 O s       :     3.533620  s :     3.533620
      pz      :     1.534416  p :     4.816916
      px      :     1.567673
      py      :     1.714827
      dz2     :     0.020139  d :     0.049856
      dxz     :     0.007480
      dyz     :     0.007301
      dx2y2   :     0.002641
      dxy     :     0.012295
 28 C s       :     2.958195  s :     2.958195
      pz      :     1.110463  p :     3.308062
      px      :     1.116427
      py      :     1.081172
      dz2     :     0.010523  d :     0.068594
      dxz     :     0.014258
      dyz     :     0.016210
      dx2y2   :     0.021909
      dxy     :     0.005694
 29 C s       :     2.950324  s :     2.950324
      pz      :     1.105205  p :     3.323334
      px      :     1.130901
      py      :     1.087228
      dz2     :     0.012280  d :     0.067821
      dxz     :     0.012198
      dyz     :     0.015921
      dx2y2   :     0.021581
      dxy     :     0.005840
 30 H s       :     0.881674  s :     0.881674
 31 H s       :     0.874990  s :     0.874990
 32 C s       :     2.956660  s :     2.956660
      pz      :     1.089195  p :     3.328853
      px      :     1.141797
      py      :     1.097860
      dz2     :     0.013183  d :     0.067823
      dxz     :     0.017094
      dyz     :     0.012491
      dx2y2   :     0.021160
      dxy     :     0.003895
 33 H s       :     0.864864  s :     0.864864
 34 H s       :     0.876553  s :     0.876553
 35 H s       :     0.894707  s :     0.894707
 36 H s       :     0.868385  s :     0.868385
 37 H s       :     0.873480  s :     0.873480
 38 H s       :     0.880262  s :     0.880262
 39 H s       :     0.876209  s :     0.876209
 40 H s       :     0.869372  s :     0.869372
 41 H s       :     0.873961  s :     0.873961
 42 H s       :     0.867391  s :     0.867391
 43 H s       :     0.882698  s :     0.882698
 44 H s       :     0.867247  s :     0.867247
 45 H s       :     0.875827  s :     0.875827
 46 H s       :     0.874300  s :     0.874300
 47 H s       :     0.877101  s :     0.877101
 48 H s       :     0.869600  s :     0.869600
 49 H s       :     0.866444  s :     0.866444
 50 H s       :     0.879395  s :     0.879395
 51 H s       :     0.877001  s :     0.877001
 52 H s       :     0.880729  s :     0.880729
 53 H s       :     0.875301  s :     0.875301
 54 H s       :     0.871898  s :     0.871898
 55 H s       :     0.878523  s :     0.878523
 56 H s       :     0.876389  s :     0.876389
 57 H s       :     0.876410  s :     0.876410
 58 H s       :     0.877921  s :     0.877921
 59 H s       :     0.875623  s :     0.875623
 60 H s       :     0.872604  s :     0.872604
 61 H s       :     0.874363  s :     0.874363
 62 H s       :     0.874234  s :     0.874234
 63 H s       :     0.876562  s :     0.876562
 64 H s       :     0.874326  s :     0.874326
 65 H s       :     0.868418  s :     0.868418
 66 H s       :     0.870335  s :     0.870335
 67 H s       :     0.869859  s :     0.869859
 68 H s       :     0.871314  s :     0.871314
 69 H s       :     0.866343  s :     0.866343
 70 H s       :     0.866007  s :     0.866007
 71 H s       :     0.691381  s :     0.691381
 72 H s       :     0.872008  s :     0.872008
 73 H s       :     0.872633  s :     0.872633
 74 H s       :     0.879175  s :     0.879175
 75 H s       :     0.863186  s :     0.863186
 76 H s       :     0.874683  s :     0.874683
 77 H s       :     0.876744  s :     0.876744
 78 H s       :     0.863354  s :     0.863354
 79 H s       :     0.877671  s :     0.877671
 80 H s       :     0.880633  s :     0.880633


                      *****************************
                      * MAYER POPULATION ANALYSIS *
                      *****************************

  NA   - Mulliken gross atomic population
  ZA   - Total nuclear charge
  QA   - Mulliken gross atomic charge
  VA   - Mayer's total valence
  BVA  - Mayer's bonded valence
  FA   - Mayer's free valence

  ATOM       NA         ZA         QA         VA         BVA        FA
  0 C      6.4513     6.0000    -0.4513     3.7370     3.7370     0.0000
  1 C      5.9296     6.0000     0.0704     3.7161     3.7161    -0.0000
  2 C      6.0885     6.0000    -0.0885     3.6959     3.6959    -0.0000
  3 C      6.1913     6.0000    -0.1913     3.6392     3.6392    -0.0000
  4 C      6.0844     6.0000    -0.0844     3.7274     3.7274     0.0000
  5 C      6.4152     6.0000    -0.4152     3.6905     3.6905    -0.0000
  6 C      6.4295     6.0000    -0.4295     3.7363     3.7363     0.0000
  7 C      6.4843     6.0000    -0.4843     3.7316     3.7316     0.0000
  8 C      5.9263     6.0000     0.0737     3.7226     3.7226    -0.0000
  9 C      5.9019     6.0000     0.0981     3.6971     3.6971    -0.0000
 10 C      6.6706     6.0000    -0.6706     3.7071     3.7071     0.0000
 11 C      6.6373     6.0000    -0.6373     3.7038     3.7038    -0.0000
 12 C      6.4959     6.0000    -0.4959     3.7111     3.7111    -0.0000
 13 C      6.4081     6.0000    -0.4081     3.7087     3.7087    -0.0000
 14 C      6.0564     6.0000    -0.0564     3.7400     3.7400     0.0000
 15 C      6.0888     6.0000    -0.0888     3.6906     3.6906    -0.0000
 16 C      6.2042     6.0000    -0.2042     3.6459     3.6459    -0.0000
 17 C      6.4273     6.0000    -0.4273     3.7215     3.7215    -0.0000
 18 C      6.4360     6.0000    -0.4360     3.7026     3.7026     0.0000
 19 C      6.2144     6.0000    -0.2144     3.7065     3.7065    -0.0000
 20 C      6.4036     6.0000    -0.4036     3.6888     3.6888     0.0000
 21 C      6.4941     6.0000    -0.4941     3.7478     3.7478    -0.0000
 22 C      6.2235     6.0000    -0.2235     3.8062     3.8062    -0.0000
 23 C      5.8956     6.0000     0.1044     3.7434     3.7434     0.0000
 24 C      6.6591     6.0000    -0.6591     3.7345     3.7345     0.0000
 25 C      6.6770     6.0000    -0.6770     3.7271     3.7271     0.0000
 26 C      6.7025     6.0000    -0.7025     3.7126     3.7126    -0.0000
 27 O      8.6327     8.0000    -0.6327     1.8681     1.8681    -0.0000
 28 C      6.6331     6.0000    -0.6331     3.6920     3.6920     0.0000
 29 C      6.6487     6.0000    -0.6487     3.6739     3.6739    -0.0000
 30 H      0.7921     1.0000     0.2079     0.9079     0.9079    -0.0000
 31 H      0.7867     1.0000     0.2133     0.9006     0.9006     0.0000
 32 C      6.6647     6.0000    -0.6647     3.6587     3.6587    -0.0000
 33 H      0.7634     1.0000     0.2366     0.9081     0.9081     0.0000
 34 H      0.7908     1.0000     0.2092     0.9109     0.9109     0.0000
 35 H      0.8068     1.0000     0.1932     0.9049     0.9049     0.0000
 36 H      0.7698     1.0000     0.2302     0.9054     0.9054     0.0000
 37 H      0.7825     1.0000     0.2175     0.9107     0.9107    -0.0000
 38 H      0.7881     1.0000     0.2119     0.9158     0.9158     0.0000
 39 H      0.7822     1.0000     0.2178     0.9093     0.9093     0.0000
 40 H      0.7711     1.0000     0.2289     0.9057     0.9057     0.0000
 41 H      0.7862     1.0000     0.2138     0.9078     0.9078     0.0000
 42 H      0.7603     1.0000     0.2397     0.9115     0.9115    -0.0000
 43 H      0.8007     1.0000     0.1993     0.9207     0.9207     0.0000
 44 H      0.7680     1.0000     0.2320     0.9142     0.9142    -0.0000
 45 H      0.7830     1.0000     0.2170     0.9181     0.9181     0.0000
 46 H      0.7793     1.0000     0.2207     0.9183     0.9183    -0.0000
 47 H      0.7871     1.0000     0.2129     0.9193     0.9193     0.0000
 48 H      0.7755     1.0000     0.2245     0.9054     0.9054    -0.0000
 49 H      0.7649     1.0000     0.2351     0.9058     0.9058     0.0000
 50 H      0.7876     1.0000     0.2124     0.9168     0.9168     0.0000
 51 H      0.7841     1.0000     0.2159     0.9158     0.9158    -0.0000
 52 H      0.7820     1.0000     0.2180     0.9064     0.9064    -0.0000
 53 H      0.7824     1.0000     0.2176     0.9142     0.9142    -0.0000
 54 H      0.7749     1.0000     0.2251     0.9112     0.9112     0.0000
 55 H      0.7804     1.0000     0.2196     0.9138     0.9138    -0.0000
 56 H      0.7802     1.0000     0.2198     0.9153     0.9153     0.0000
 57 H      0.7839     1.0000     0.2161     0.9085     0.9085     0.0000
 58 H      0.7876     1.0000     0.2124     0.9138     0.9138    -0.0000
 59 H      0.7775     1.0000     0.2225     0.9118     0.9118    -0.0000
 60 H      0.7800     1.0000     0.2200     0.9086     0.9086    -0.0000
 61 H      0.8015     1.0000     0.1985     0.9242     0.9242     0.0000
 62 H      0.7816     1.0000     0.2184     0.9150     0.9150     0.0000
 63 H      0.7902     1.0000     0.2098     0.9151     0.9151     0.0000
 64 H      0.7747     1.0000     0.2253     0.9140     0.9140     0.0000
 65 H      0.7768     1.0000     0.2232     0.9178     0.9178     0.0000
 66 H      0.7849     1.0000     0.2151     0.9095     0.9095     0.0000
 67 H      0.7842     1.0000     0.2158     0.9092     0.9092     0.0000
 68 H      0.7698     1.0000     0.2302     0.9157     0.9157    -0.0000
 69 H      0.7800     1.0000     0.2200     0.9091     0.9091     0.0000
 70 H      0.7776     1.0000     0.2224     0.9079     0.9079    -0.0000
 71 H      0.5805     1.0000     0.4195     0.8031     0.8031     0.0000
 72 H      0.7739     1.0000     0.2261     0.9151     0.9151    -0.0000
 73 H      0.7805     1.0000     0.2195     0.9157     0.9157     0.0000
 74 H      0.7844     1.0000     0.2156     0.9161     0.9161     0.0000
 75 H      0.7521     1.0000     0.2479     0.9059     0.9059     0.0000
 76 H      0.7842     1.0000     0.2158     0.9160     0.9160    -0.0000
 77 H      0.7848     1.0000     0.2152     0.9183     0.9183    -0.0000
 78 H      0.7467     1.0000     0.2533     0.9219     0.9219    -0.0000
 79 H      0.7848     1.0000     0.2152     0.9195     0.9195    -0.0000
 80 H      0.7922     1.0000     0.2078     0.9212     0.9212    -0.0000

  Mayer bond orders larger than 0.100000
B(  0-C ,  1-C ) :   0.9777 B(  0-C ,  5-C ) :   0.9804 B(  0-C , 33-H ) :   0.9176 
B(  0-C , 34-H ) :   0.9173 B(  1-C ,  2-C ) :   0.9077 B(  1-C , 27-O ) :   0.9981 
B(  1-C , 35-H ) :   0.9094 B(  2-C ,  3-C ) :   0.9385 B(  2-C , 10-C ) :   0.9737 
B(  2-C , 11-C ) :   0.9790 B(  3-C ,  4-C ) :   0.9628 B(  3-C ,  6-C ) :   0.9681 
B(  3-C , 31-H ) :   0.9072 B(  4-C ,  5-C ) :   0.9341 B(  4-C ,  9-C ) :   0.9584 
B(  4-C , 32-C ) :   0.9763 B(  5-C , 36-H ) :   0.9161 B(  5-C , 37-H ) :   0.9192 
B(  6-C ,  7-C ) :   0.9937 B(  6-C , 38-H ) :   0.9184 B(  6-C , 39-H ) :   0.9094 
B(  7-C ,  8-C ) :   0.9684 B(  7-C , 40-H ) :   0.9082 B(  7-C , 41-H ) :   0.9097 
B(  8-C ,  9-C ) :   1.8411 B(  8-C , 15-C ) :   0.9733 B(  9-C , 12-C ) :   0.9655 
B( 10-C , 42-H ) :   0.9121 B( 10-C , 43-H ) :   0.9269 B( 10-C , 44-H ) :   0.9184 
B( 11-C , 45-H ) :   0.9229 B( 11-C , 46-H ) :   0.9187 B( 11-C , 47-H ) :   0.9247 
B( 12-C , 13-C ) :   0.9729 B( 12-C , 48-H ) :   0.9026 B( 12-C , 49-H ) :   0.9034 
B( 13-C , 14-C ) :   0.9848 B( 13-C , 50-H ) :   0.9190 B( 13-C , 51-H ) :   0.9202 
B( 14-C , 15-C ) :   0.9321 B( 14-C , 16-C ) :   0.9633 B( 14-C , 29-C ) :   0.9796 
B( 15-C , 18-C ) :   0.9578 B( 15-C , 28-C ) :   0.9721 B( 16-C , 17-C ) :   0.9696 
B( 16-C , 19-C ) :   0.9294 B( 16-C , 52-H ) :   0.8987 B( 17-C , 18-C ) :   0.9668 
B( 17-C , 53-H ) :   0.9286 B( 17-C , 54-H ) :   0.9177 B( 18-C , 55-H ) :   0.9229 
B( 18-C , 56-H ) :   0.9264 B( 19-C , 20-C ) :   0.9602 B( 19-C , 24-C ) :   0.9900 
B( 19-C , 30-H ) :   0.9118 B( 20-C , 21-C ) :   0.9555 B( 20-C , 57-H ) :   0.9179 
B( 20-C , 58-H ) :   0.9248 B( 21-C , 22-C ) :   1.0022 B( 21-C , 59-H ) :   0.9091 
B( 21-C , 60-H ) :   0.9188 B( 22-C , 23-C ) :   1.8697 B( 22-C , 61-H ) :   0.9228 
B( 23-C , 25-C ) :   0.9773 B( 23-C , 26-C ) :   0.9807 B( 24-C , 62-H ) :   0.9266 
B( 24-C , 63-H ) :   0.9235 B( 24-C , 64-H ) :   0.9185 B( 25-C , 65-H ) :   0.9319 
B( 25-C , 66-H ) :   0.9178 B( 25-C , 67-H ) :   0.9180 B( 26-C , 68-H ) :   0.9157 
B( 26-C , 69-H ) :   0.9173 B( 26-C , 70-H ) :   0.9167 B( 27-O , 71-H ) :   0.7824 
B( 28-C , 72-H ) :   0.9226 B( 28-C , 73-H ) :   0.9209 B( 28-C , 74-H ) :   0.9181 
B( 29-C , 75-H ) :   0.9084 B( 29-C , 76-H ) :   0.9192 B( 29-C , 77-H ) :   0.9228 
B( 32-C , 78-H ) :   0.8828 B( 32-C , 79-H ) :   0.9176 B( 32-C , 80-H ) :   0.9217 


-------
TIMINGS
-------

Total SCF time: 0 days 0 hours 16 min 11 sec 

Total time                  ....     971.881 sec
Sum of individual times     ....     960.503 sec  ( 98.8%)

Fock matrix formation       ....     904.720 sec  ( 93.1%)
  Split-RI-J                ....      56.378 sec  (  6.2% of F)
  Chain of spheres X        ....     741.543 sec  ( 82.0% of F)
  XC integration            ....      92.445 sec  ( 10.2% of F)
    Basis function eval.    ....      32.085 sec  ( 34.7% of XC)
    Density eval.           ....      22.444 sec  ( 24.3% of XC)
    XC-Functional eval.     ....       4.904 sec  (  5.3% of XC)
    XC-Potential eval.      ....      10.354 sec  ( 11.2% of XC)
Diagonalization             ....       4.098 sec  (  0.4%)
Density matrix formation    ....       0.188 sec  (  0.0%)
Population analysis         ....       1.235 sec  (  0.1%)
Initial guess               ....       0.492 sec  (  0.1%)
Orbital Transformation      ....       0.000 sec  (  0.0%)
Orbital Orthonormalization  ....       0.000 sec  (  0.0%)
DIIS solution               ....       5.100 sec  (  0.5%)
SOSCF solution              ....       1.624 sec  (  0.2%)
Grid generation             ....      43.046 sec  (  4.4%)

Maximum memory used throughout the entire SCF-calculation: 267.4 MB


-------------------------------------------------------------------------------
                          DFT DISPERSION CORRECTION                            
                                                                               
                              DFTD3 V3.1  Rev 1                                
                          USING Becke-Johnson damping                          
-------------------------------------------------------------------------------
The PBEh-3c composite method is recognized
Using three-body term ABC
Active option DFTDOPT                   ...         4   

molecular C6(AA) [au] = 49195.045797 


            DFT-D V3
 parameters
 s6 scaling factor         :     1.0000 
 a1 scaling factor         :     0.4860 
 s8 scaling factor         :     0.0000 
 a2 scaling factor         :     4.5000 
 Damping factor alpha9(ATM):    16.0000 
 ad hoc parameters k1-k3   :    16.0000     1.3333    -4.0000 

 Edisp/kcal,au: -41.967268897958  -0.066879092916 
 E6   /kcal   : -42.913050191 
 E8   /kcal   :  -0.000000000 
 E6(ABC)      :   0.945781293 
 % E8         :   0.000000000 
 % E6(ABC)    :  -2.253616493 

-------------------------   ----------------
Dispersion correction           -0.066879093
-------------------------   ----------------

------------------   -----------------
gCP correction             0.136886253
------------------   -----------------

-------------------------   --------------------
FINAL SINGLE POINT ENERGY     -1245.826464182163
-------------------------   --------------------


                            ***************************************
                            *     ORCA property calculations      *
                            ***************************************

                                    ---------------------
                                    Active property flags
                                    ---------------------
   (+) Dipole Moment


------------------------------------------------------------------------------
                       ORCA ELECTRIC PROPERTIES CALCULATION
------------------------------------------------------------------------------

Dipole Moment Calculation                       ... on
Quadrupole Moment Calculation                   ... off
Polarizability Calculation                      ... off
GBWName                                         ... pbeh-3c.gbw
Electron density                                ... pbeh-3c.scfp
The origin for moment calculation is the CENTER OF MASS  = (-0.313036,  0.073222  0.110495)

-------------
DIPOLE MOMENT
-------------
                                X             Y             Z
Electronic contribution:    -12.01078       2.70089       3.71189
Nuclear contribution   :     11.60885      -2.82422      -4.25473
                        -----------------------------------------
Total Dipole Moment    :     -0.40193      -0.12333      -0.54284
                        -----------------------------------------
Magnitude (a.u.)       :      0.68661
Magnitude (Debye)      :      1.74522



--------------------
Rotational spectrum 
--------------------
 
Rotational constants in cm-1:     0.010555     0.002074     0.001999 
Rotational constants in MHz :   316.421762    62.183427    59.940328 

 Dipole components along the rotational axes: 
x,y,z [a.u.] :     0.401929    -0.123323    -0.542839 
x,y,z [Debye]:     1.021622    -0.313463    -1.379786 

 

Timings for individual modules:

Sum of individual times         ...      977.952 sec (=  16.299 min)
GTO integral calculation        ...        5.599 sec (=   0.093 min)   0.6 %
SCF iterations                  ...      972.353 sec (=  16.206 min)  99.4 %
                             ****ORCA TERMINATED NORMALLY****
TOTAL RUN TIME: 0 days 0 hours 16 minutes 23 seconds 112 msec
