
                                 *****************
                                 * O   R   C   A *
                                 *****************

                                            #,                                       
                                            ###                                      
                                            ####                                     
                                            #####                                    
                                            ######                                   
                                           ########,                                 
                                     ,,################,,,,,                         
                               ,,#################################,,                 
                          ,,##########################################,,             
                       ,#########################################, ''#####,          
                    ,#############################################,,   '####,        
                  ,##################################################,,,,####,       
                ,###########''''           ''''###############################       
              ,#####''   ,,,,##########,,,,          '''####'''          '####       
            ,##' ,,,,###########################,,,                        '##       
           ' ,,###''''                  '''############,,,                           
         ,,##''                                '''############,,,,        ,,,,,,###''
      ,#''                                            '''#######################'''  
     '                                                          ''''####''''         
             ,#######,   #######,   ,#######,      ##                                
            ,#'     '#,  ##    ##  ,#'     '#,    #''#        ######   ,####,        
            ##       ##  ##   ,#'  ##            #'  '#       #        #'  '#        
            ##       ##  #######   ##           ,######,      #####,   #    #        
            '#,     ,#'  ##    ##  '#,     ,#' ,#      #,         ##   #,  ,#        
             '#######'   ##     ##  '#######'  #'      '#     #####' # '####'        



                  #######################################################
                  #                        -***-                        #
                  #          Department of theory and spectroscopy      #
                  #    Directorship and core code : Frank Neese         #
                  #        Max Planck Institute fuer Kohlenforschung    #
                  #                Kaiser Wilhelm Platz 1               #
                  #                 D-45470 Muelheim/Ruhr               #
                  #                      Germany                        #
                  #                                                     #
                  #                  All rights reserved                #
                  #                        -***-                        #
                  #######################################################


                         Program Version 5.0.3 -  RELEASE  -


 With contributions from (in alphabetic order):
   Daniel Aravena         : Magnetic Suceptibility
   Michael Atanasov       : Ab Initio Ligand Field Theory (pilot matlab implementation)
   Alexander A. Auer      : GIAO ZORA, VPT2 properties, NMR spectrum
   Ute Becker             : Parallelization
   Giovanni Bistoni       : ED, misc. LED, open-shell LED, HFLD
   Martin Brehm           : Molecular dynamics
   Dmytro Bykov           : SCF Hessian
   Vijay G. Chilkuri      : MRCI spin determinant printing, contributions to CSF-ICE
   Dipayan Datta          : RHF DLPNO-CCSD density
   Achintya Kumar Dutta   : EOM-CC, STEOM-CC
   Dmitry Ganyushin       : Spin-Orbit,Spin-Spin,Magnetic field MRCI
   Miquel Garcia          : C-PCM and meta-GGA Hessian, CC/C-PCM, Gaussian charge scheme
   Yang Guo               : DLPNO-NEVPT2, F12-NEVPT2, CIM, IAO-localization
   Andreas Hansen         : Spin unrestricted coupled pair/coupled cluster methods
   Benjamin Helmich-Paris : MC-RPA, TRAH-SCF, COSX integrals
   Lee Huntington         : MR-EOM, pCC
   Robert Izsak           : Overlap fitted RIJCOSX, COSX-SCS-MP3, EOM
   Marcus Kettner         : VPT2
   Christian Kollmar      : KDIIS, OOCD, Brueckner-CCSD(T), CCSD density, CASPT2, CASPT2-K
   Simone Kossmann        : Meta GGA functionals, TD-DFT gradient, OOMP2, MP2 Hessian
   Martin Krupicka        : Initial AUTO-CI
   Lucas Lang             : DCDCAS
   Marvin Lechner         : AUTO-CI (C++ implementation), FIC-MRCC
   Dagmar Lenk            : GEPOL surface, SMD
   Dimitrios Liakos       : Extrapolation schemes; Compound Job, initial MDCI parallelization
   Dimitrios Manganas     : Further ROCIS development; embedding schemes
   Dimitrios Pantazis     : SARC Basis sets
   Anastasios Papadopoulos: AUTO-CI, single reference methods and gradients
   Taras Petrenko         : DFT Hessian,TD-DFT gradient, ASA, ECA, R-Raman, ABS, FL, XAS/XES, NRVS
   Peter Pinski           : DLPNO-MP2, DLPNO-MP2 Gradient
   Christoph Reimann      : Effective Core Potentials
   Marius Retegan         : Local ZFS, SOC
   Christoph Riplinger    : Optimizer, TS searches, QM/MM, DLPNO-CCSD(T), (RO)-DLPNO pert. Triples
   Tobias Risthaus        : Range-separated hybrids, TD-DFT gradient, RPA, STAB
   Michael Roemelt        : Original ROCIS implementation
   Masaaki Saitow         : Open-shell DLPNO-CCSD energy and density
   Barbara Sandhoefer     : DKH picture change effects
   Avijit Sen             : IP-ROCIS
   Kantharuban Sivalingam : CASSCF convergence, NEVPT2, FIC-MRCI
   Bernardo de Souza      : ESD, SOC TD-DFT
   Georgi Stoychev        : AutoAux, RI-MP2 NMR, DLPNO-MP2 response
   Willem Van den Heuvel  : Paramagnetic NMR
   Boris Wezisla          : Elementary symmetry handling
   Frank Wennmohs         : Technical directorship


 We gratefully acknowledge several colleagues who have allowed us to
 interface, adapt or use parts of their codes:
   Stefan Grimme, W. Hujo, H. Kruse, P. Pracht,  : VdW corrections, initial TS optimization,
                  C. Bannwarth, S. Ehlert          DFT functionals, gCP, sTDA/sTD-DF
   Ed Valeev, F. Pavosevic, A. Kumar             : LibInt (2-el integral package), F12 methods
   Garnet Chan, S. Sharma, J. Yang, R. Olivares  : DMRG
   Ulf Ekstrom                                   : XCFun DFT Library
   Mihaly Kallay                                 : mrcc  (arbitrary order and MRCC methods)
   Jiri Pittner, Ondrej Demel                    : Mk-CCSD
   Frank Weinhold                                : gennbo (NPA and NBO analysis)
   Christopher J. Cramer and Donald G. Truhlar   : smd solvation model
   Lars Goerigk                                  : TD-DFT with DH, B97 family of functionals
   V. Asgeirsson, H. Jonsson                     : NEB implementation
   FAccTs GmbH                                   : IRC, NEB, NEB-TS, DLPNO-Multilevel, CI-OPT
                                                   MM, QMMM, 2- and 3-layer-ONIOM, Crystal-QMMM,
                                                   LR-CPCM, SF, NACMEs, symmetry and pop. for TD-DFT,
                                                   nearIR, NL-DFT gradient (VV10), updates on ESD,
                                                   ML-optimized integration grids
   S Lehtola, MJT Oliveira, MAL Marques          : LibXC Library
   Liviu Ungur et al                             : ANISO software


 Your calculation uses the libint2 library for the computation of 2-el integrals
 For citations please refer to: http://libint.valeyev.net

 Your ORCA version has been built with support for libXC version: 5.1.0
 For citations please refer to: https://tddft.org/programs/libxc/

 This ORCA versions uses:
   CBLAS   interface :  Fast vector & matrix operations
   LAPACKE interface :  Fast linear algebra routines
   SCALAPACK package :  Parallel linear algebra routines
   Shared memory     :  Shared parallel matrices
   BLAS/LAPACK       :  OpenBLAS 0.3.15  USE64BITINT DYNAMIC_ARCH NO_AFFINITY Haswell SINGLE_THREADED
        Core in use  :  Haswell
   Copyright (c) 2011-2014, The OpenBLAS Project




***************************************
The coordinates will be read from file: 49.xyz
***************************************


Your calculation utilizes the geometrical counterpoise correction gCP
Please cite in your paper:
H.Kruse, S. Grimme J.Chem.Phys., 136, (2012), 154101 
   

Your calculation utilizes the atom-pairwise dispersion correction
with the Becke-Johnson damping scheme (D3BJ)
Cite in your paper:
S.Grimme, S.Ehrlich, L.Goerigk, J Comput Chem, (2011), 32, 1456–1465 
S.Grimme, J.Antony, S.Ehrlich and H.Krieg, J.Chem.Phys., 132, (2010), 154104 
   

Your calculation employs the composite approach PBEh-3c.
Please cite in your paper:
S. Grimme, J. G. Brandenburg, C. Bannwarth, A. Hansen J.Chem.Phys., 143, (2015), 054107 
   

================================================================================

----- Orbital basis set information -----
Your calculation utilizes the basis: def2-mSVP

----- AuxJ basis set information -----
Your calculation utilizes the auxiliary basis: def2/J
   F. Weigend, Phys. Chem. Chem. Phys. 8, 1057 (2006).

================================================================================
                                        WARNINGS
                       Please study these warnings very carefully!
================================================================================


INFO   : the flag for use of the SHARK integral package has been found!

================================================================================
                                       INPUT FILE
================================================================================
NAME = pbeh-3c.inp
|  1> ! PBEh-3c def2/J TightSCF DefGrid3
|  2> 
|  3> %maxcore 60000
|  4> 
|  5> %pal
|  6> nprocs 4
|  7> end
|  8> 
|  9> *xyzfile 0 1 49.xyz
| 10> 
| 11>                          ****END OF INPUT****
================================================================================

                       ****************************
                       * Single Point Calculation *
                       ****************************

---------------------------------
CARTESIAN COORDINATES (ANGSTROEM)
---------------------------------
  C      0.849324    1.082070   -2.062135
  H      1.510653    1.927373   -1.928207
  C      1.379757   -0.193304   -2.250428
  H      2.451431   -0.337321   -2.258737
  C      0.528315   -1.282893   -2.428397
  H      0.939975   -2.271875   -2.576666
  C     -0.853468   -1.097312   -2.415205
  H     -1.514134   -1.942307   -2.553226
  C     -1.383798    0.177785   -2.223976
  H     -2.455470    0.321567   -2.211557
  C     -0.532366    1.267573   -2.048851
  H     -0.944677    2.256957   -1.904223
  N      0.027365    0.376176    4.012955
  C      0.182048    1.314137    3.068078
  H      0.323819    2.326663    3.425980
  C      0.167839    1.046847    1.701579
  H      0.298079    1.847873    0.987693
  C     -0.016499   -0.264782    1.276288
  H     -0.033066   -0.507901    0.222940
  C     -0.178348   -1.249817    2.245147
  H     -0.324891   -2.285027    1.970376
  C     -0.149146   -0.882483    3.588237
  H     -0.272742   -1.629997    4.362337

----------------------------
CARTESIAN COORDINATES (A.U.)
----------------------------
  NO LB      ZA    FRAG     MASS         X           Y           Z
   0 C     6.0000    0    12.011    1.604991    2.044815   -3.896870
   1 H     1.0000    0     1.008    2.854721    3.642207   -3.643783
   2 C     6.0000    0    12.011    2.607362   -0.365292   -4.252694
   3 H     1.0000    0     1.008    4.632533   -0.637445   -4.268395
   4 C     6.0000    0    12.011    0.998371   -2.424317   -4.589005
   5 H     1.0000    0     1.008    1.776294   -4.293222   -4.869194
   6 C     6.0000    0    12.011   -1.612822   -2.073620   -4.564077
   7 H     1.0000    0     1.008   -2.861298   -3.670428   -4.824898
   8 C     6.0000    0    12.011   -2.615000    0.335966   -4.202706
   9 H     1.0000    0     1.008   -4.640166    0.607673   -4.179237
  10 C     6.0000    0    12.011   -1.006026    2.395366   -3.871767
  11 H     1.0000    0     1.008   -1.785181    4.265031   -3.598460
  12 N     7.0000    0    14.007    0.051712    0.710869    7.583385
  13 C     6.0000    0    12.011    0.344022    2.483359    5.797827
  14 H     1.0000    0     1.008    0.611930    4.396756    6.474163
  15 C     6.0000    0    12.011    0.317170    1.978255    3.215518
  16 H     1.0000    0     1.008    0.563288    3.491974    1.866470
  17 C     6.0000    0    12.011   -0.031179   -0.500366    2.411835
  18 H     1.0000    0     1.008   -0.062485   -0.959794    0.421296
  19 C     6.0000    0    12.011   -0.337029   -2.361811    4.242713
  20 H     1.0000    0     1.008   -0.613955   -4.318076    3.723470
  21 C     6.0000    0    12.011   -0.281844   -1.667652    6.780784
  22 H     1.0000    0     1.008   -0.515407   -3.080248    8.243623

--------------------------------
INTERNAL COORDINATES (ANGSTROEM)
--------------------------------
 C      0   0   0     0.000000000000     0.00000000     0.00000000
 H      1   0   0     1.081586574794     0.00000000     0.00000000
 C      1   2   0     1.394055825770   119.93899018     0.00000000
 H      3   1   2     1.081339814153   119.99853790     0.23199873
 C      3   1   2     1.394212649005   119.99002281   180.25079945
 H      5   3   1     1.081449249198   119.98167671   179.86323461
 C      5   3   1     1.394252661815   120.00036166   359.86415082
 H      7   5   3     1.081454754495   120.01538064   180.00005288
 C      7   5   3     1.394163774742   120.00167982     0.00000000
 H      9   7   5     1.081345362616   120.01157010   180.13368398
 C      9   7   5     1.394002672701   119.99322417     0.13853554
 H     11   9   7     1.081572084483   119.94009531   179.77369510
 N     11   9   7     6.152509457237    93.78867342   274.31397243
 C     13  11   9     1.340332429154    38.23730636   199.84120229
 H     14  13  11     1.083236486076   115.86823184   167.98595468
 C     14  13  11     1.392467602795   123.80055149   347.98874388
 H     16  14  13     1.080850137642   120.31008286   179.99016974
 C     16  14  13     1.391123553382   118.83919665     0.00000000
 H     18  16  14     1.081167399774   120.79035964   179.98887004
 C     18  16  14     1.391105819299   118.04250248     0.00000000
 H     20  18  16     1.081034613479   121.11962806   180.00328089
 C     13  11   9     1.340061115566    79.15414524    30.76097976
 H     22  13  11     1.083182927639   115.89451279   187.53618432

---------------------------
INTERNAL COORDINATES (A.U.)
---------------------------
 C      0   0   0     0.000000000000     0.00000000     0.00000000
 H      1   0   0     2.043902416487     0.00000000     0.00000000
 C      1   2   0     2.634383726103   119.93899018     0.00000000
 H      3   1   2     2.043436106454   119.99853790     0.23199873
 C      3   1   2     2.634680079069   119.99002281   180.25079945
 H      5   3   1     2.043642908719   119.98167671   179.86323461
 C      5   3   1     2.634755692322   120.00036166   359.86415082
 H      7   5   3     2.043653312222   120.01538064   180.00005288
 C      7   5   3     2.634587720097   120.00167982     0.00000000
 H      9   7   5     2.043446591530   120.01157010   180.13368398
 C      9   7   5     2.634283281360   119.99322417     0.13853554
 H     11   9   7     2.043875033768   119.94009531   179.77369510
 N     11   9   7    11.626557910538    93.78867342   274.31397243
 C     13  11   9     2.532861219515    38.23730636   199.84120229
 H     14  13  11     2.047020296955   115.86823184   167.98595468
 C     14  13  11     2.631382419640   123.80055149   347.98874388
 H     16  14  13     2.042510751955   120.31008286   179.99016974
 C     16  14  13     2.628842534340   118.83919665     0.00000000
 H     18  16  14     2.043110290496   120.79035964   179.98887004
 C     18  16  14     2.628809021780   118.04250248     0.00000000
 H     20  18  16     2.042859360765   121.11962806   180.00328089
 C     13  11   9     2.532348511137    79.15414524    30.76097976
 H     22  13  11     2.046919086177   115.89451279   187.53618432

---------------------
BASIS SET INFORMATION
---------------------
There are 3 groups of distinct atoms

 Group   1 Type C   : 8s4p1d contracted to 4s2p1d pattern {5111/31/1}
 Group   2 Type H   : 4s contracted to 2s pattern {31}
 Group   3 Type N   : 8s4p1d contracted to 4s2p1d pattern {5111/31/1}

Atom   0C    basis set group =>   1
Atom   1H    basis set group =>   2
Atom   2C    basis set group =>   1
Atom   3H    basis set group =>   2
Atom   4C    basis set group =>   1
Atom   5H    basis set group =>   2
Atom   6C    basis set group =>   1
Atom   7H    basis set group =>   2
Atom   8C    basis set group =>   1
Atom   9H    basis set group =>   2
Atom  10C    basis set group =>   1
Atom  11H    basis set group =>   2
Atom  12N    basis set group =>   3
Atom  13C    basis set group =>   1
Atom  14H    basis set group =>   2
Atom  15C    basis set group =>   1
Atom  16H    basis set group =>   2
Atom  17C    basis set group =>   1
Atom  18H    basis set group =>   2
Atom  19C    basis set group =>   1
Atom  20H    basis set group =>   2
Atom  21C    basis set group =>   1
Atom  22H    basis set group =>   2
---------------------------------
AUXILIARY/J BASIS SET INFORMATION
---------------------------------
There are 3 groups of distinct atoms

 Group   1 Type C   : 12s5p4d2f1g contracted to 6s4p3d1f1g pattern {711111/2111/211/2/1}
 Group   2 Type H   : 5s2p1d contracted to 3s1p1d pattern {311/2/1}
 Group   3 Type N   : 12s5p4d2f1g contracted to 6s4p3d1f1g pattern {711111/2111/211/2/1}

Atom   0C    basis set group =>   1
Atom   1H    basis set group =>   2
Atom   2C    basis set group =>   1
Atom   3H    basis set group =>   2
Atom   4C    basis set group =>   1
Atom   5H    basis set group =>   2
Atom   6C    basis set group =>   1
Atom   7H    basis set group =>   2
Atom   8C    basis set group =>   1
Atom   9H    basis set group =>   2
Atom  10C    basis set group =>   1
Atom  11H    basis set group =>   2
Atom  12N    basis set group =>   3
Atom  13C    basis set group =>   1
Atom  14H    basis set group =>   2
Atom  15C    basis set group =>   1
Atom  16H    basis set group =>   2
Atom  17C    basis set group =>   1
Atom  18H    basis set group =>   2
Atom  19C    basis set group =>   1
Atom  20H    basis set group =>   2
Atom  21C    basis set group =>   1
Atom  22H    basis set group =>   2


           ************************************************************
           *        Program running with 4 parallel MPI-processes     *
           *              working on a common directory               *
           ************************************************************
------------------------------------------------------------------------------
                           ORCA GTO INTEGRAL CALCULATION
                           -- RI-GTO INTEGRALS CHOSEN --
------------------------------------------------------------------------------
------------------------------------------------------------------------------
                   ___                                                        
                  /   \      - P O W E R E D   B Y -                         
                 /     \                                                     
                 |  |  |   _    _      __       _____    __    __             
                 |  |  |  | |  | |    /  \     |  _  \  |  |  /  |          
                  \  \/   | |  | |   /    \    | | | |  |  | /  /          
                 / \  \   | |__| |  /  /\  \   | |_| |  |  |/  /          
                |  |  |   |  __  | /  /__\  \  |    /   |      \           
                |  |  |   | |  | | |   __   |  |    \   |  |\   \          
                \     /   | |  | | |  |  |  |  | |\  \  |  | \   \       
                 \___/    |_|  |_| |__|  |__|  |_| \__\ |__|  \__/        
                                                                              
                      - O R C A' S   B I G   F R I E N D -                    
                                      &                                       
                       - I N T E G R A L  F E E D E R -                       
                                                                              
 v1 FN, 2020, v2 2021                                                         
------------------------------------------------------------------------------


Reading SHARK input file pbeh-3c.SHARKINP.tmp ... ok
----------------------
SHARK INTEGRAL PACKAGE
----------------------

Number of atoms                             ...     23
Number of basis functions                   ...    202
Number of shells                            ...    106
Maximum angular momentum                    ...      2
Integral batch strategy                     ... SHARK/LIBINT Hybrid
RI-J (if used) integral strategy            ... SPLIT-RIJ (Revised 2003 algorithm where possible)
Printlevel                                  ...      1
Contraction scheme used                     ... SEGMENTED contraction
Coulomb Range Separation                    ... NOT USED
Exchange Range Separation                   ... NOT USED
Finite Nucleus Model                        ... NOT USED
Auxiliary Coulomb fitting basis             ... AVAILABLE
   # of basis functions in Aux-J            ...    709
   # of shells in Aux-J                     ...    235
   Maximum angular momentum in Aux-J        ...      4
Auxiliary J/K fitting basis                 ... NOT available
Auxiliary Correlation fitting basis         ... NOT available
Auxiliary 'external' fitting basis          ... NOT available
Integral threshold                          ...     2.500000e-11
Primitive cut-off                           ...     2.500000e-12
Primitive pair pre-selection threshold      ...     2.500000e-12

Calculating pre-screening integrals         ... done (  0.0 sec) Dimension = 106
Organizing shell pair data                  ... done (  0.3 sec)
Shell pair information
Total number of shell pairs                 ...      5671
Shell pairs after pre-screening             ...      4526
Total number of primitive shell pairs       ...     20289
Primitive shell pairs kept                  ...     10933
          la=0 lb=0:   1836 shell pairs
          la=1 lb=0:   1482 shell pairs
          la=1 lb=1:    284 shell pairs
          la=2 lb=0:    612 shell pairs
          la=2 lb=1:    256 shell pairs
          la=2 lb=2:     56 shell pairs

Calculating one electron integrals          ... done (  0.0 sec)
Calculating RI/J V-Matrix + Cholesky decomp.... done (  0.9 sec)
Calculating Nuclear repulsion               ... done (  0.1 sec) ENN=    596.546488021906 Eh

SHARK setup successfully completed in   2.3 seconds

Maximum memory used throughout the entire GTOINT-calculation: 13.0 MB


           ************************************************************
           *        Program running with 4 parallel MPI-processes     *
           *              working on a common directory               *
           ************************************************************
-------------------------------------------------------------------------------
                                 ORCA SCF
-------------------------------------------------------------------------------

------------
SCF SETTINGS
------------
Hamiltonian:
 Density Functional     Method          .... DFT(GTOs)
 Exchange Functional    Exchange        .... PBE
   PBE kappa parameter   XKappa         ....  1.024500
   PBE mue parameter    XMuePBE         ....  0.123457
 Correlation Functional Correlation     .... PBE
   PBE beta parameter  CBetaPBE         ....  0.030000
 LDA part of GGA corr.  LDAOpt          .... PW91-LDA
 Gradients option       PostSCFGGA      .... off
 Hybrid DFT is turned on
   Fraction HF Exchange ScalHFX         ....  0.420000
   Scaling of DF-GGA-X  ScalDFX         ....  0.580000
   Scaling of DF-GGA-C  ScalDFC         ....  1.000000
   Scaling of DF-LDA-C  ScalLDAC        ....  1.000000
   Perturbative correction              ....  0.000000
   Density functional embedding theory  .... OFF
 RI-approximation to the Coulomb term is turned on
   Number of AuxJ basis functions       .... 709
   RIJ-ON(X) (HFX calculated with O(N)) .... on
   Number of AuxJ basis functions       .... 709
   RIJ-COSX (HFX calculated with COS-X)).... on


General Settings:
 Integral files         IntName         .... pbeh-3c
 Hartree-Fock type      HFTyp           .... RHF
 Total Charge           Charge          ....    0
 Multiplicity           Mult            ....    1
 Number of Electrons    NEL             ....   84
 Basis Dimension        Dim             ....  202
 Nuclear Repulsion      ENuc            ....    596.5464880219 Eh

Convergence Acceleration:
 DIIS                   CNVDIIS         .... on
   Start iteration      DIISMaxIt       ....    12
   Startup error        DIISStart       ....  0.200000
   # of expansion vecs  DIISMaxEq       ....     5
   Bias factor          DIISBfac        ....   1.050
   Max. coefficient     DIISMaxC        ....  10.000
 Trust-Rad. Augm. Hess. CNVTRAH         .... auto
   Auto Start mean grad. ratio tolernc. ....  1.125000
   Auto Start start iteration           ....    20
   Auto Start num. interpolation iter.  ....    10
   Max. Number of Micro iterations      ....    16
   Max. Number of Macro iterations      .... Maxiter - #DIIS iter
   Number of Davidson start vectors     ....     2
   Converg. threshold I  (grad. norm)   ....   1.000e-05
   Converg. threshold II (energy diff.) ....   1.000e-08
   Grad. Scal. Fac. for Micro threshold ....   0.100
   Minimum threshold for Micro iter.    ....   0.010
   NR start threshold (gradient norm)   ....   0.001
   Initial trust radius                 ....   0.400
   Minimum AH scaling param. (alpha)    ....   1.000
   Maximum AH scaling param. (alpha)    .... 1000.000
   Orbital update algorithm             .... Taylor
   White noise on init. David. guess    .... on
   Maximum white noise                  ....   0.010
   Quad. conv. algorithm                .... NR
   COSX micro iterations for RIJONX calc.... off
 SOSCF                  CNVSOSCF        .... on
   Start iteration      SOSCFMaxIt      ....   150
   Startup grad/error   SOSCFStart      ....  0.003300
 Level Shifting         CNVShift        .... on
   Level shift para.    LevelShift      ....    0.2500
   Turn off err/grad.   ShiftErr        ....    0.0010
 Zerner damping         CNVZerner       .... off
 Static damping         CNVDamp         .... on
   Fraction old density DampFac         ....    0.7000
   Max. Damping (<1)    DampMax         ....    0.9800
   Min. Damping (>=0)   DampMin         ....    0.0000
   Turn off err/grad.   DampErr         ....    0.1000
 Fernandez-Rico         CNVRico         .... off

SCF Procedure:
 Maximum # iterations   MaxIter         ....   125
 SCF integral mode      SCFMode         .... Direct
   Integral package                     .... SHARK and LIBINT hybrid scheme
 Reset frequency        DirectResetFreq ....    20
 Integral Threshold     Thresh          ....  2.500e-11 Eh
 Primitive CutOff       TCut            ....  2.500e-12 Eh

Convergence Tolerance:
 Convergence Check Mode ConvCheckMode   .... Total+1el-Energy
 Convergence forced     ConvForced      .... 0
 Energy Change          TolE            ....  1.000e-08 Eh
 1-El. energy change                    ....  1.000e-05 Eh
 Orbital Gradient       TolG            ....  1.000e-05
 Orbital Rotation angle TolX            ....  1.000e-05
 DIIS Error             TolErr          ....  5.000e-07


Diagonalization of the overlap matrix:
Smallest eigenvalue                        ... 4.876e-04
Time for diagonalization                   ...    0.015 sec
Threshold for overlap eigenvalues          ... 1.000e-08
Number of eigenvalues below threshold      ... 0
Time for construction of square roots      ...    0.210 sec
Total time needed                          ...    0.226 sec

--------------------------------
INITIAL GUESS: MINIMAL BASIS EHT
--------------------------------
The minimal basis has 71 functions
EHT matrix was diagonalized
Basis set overlap was calculated now projecting the orbitals
Using GuessMode=FMatrix for the initial guess
C*T matrix was formed
Effective Fockian was calculated
Effective Fockian was diagonalized
Initial density was built
                      ------------------
                      INITIAL GUESS DONE
                      ------------------
-------------------
DFT GRID GENERATION
-------------------

General Integration Accuracy     IntAcc      ... 4.959
Radial Grid Type                 RadialGrid  ... OptM3 with GC (2021)
Angular Grid (max. ang.)         AngularGrid ... 6 (Lebedev-590)
Angular grid pruning method      GridPruning ... 4 (adaptive)
Weight generation scheme         WeightScheme... Becke
Basis function cutoff            BFCut       ... 1.0000e-11
Integration weight cutoff        WCut        ... 1.0000e-14
Angular grids for H and He will be reduced by one unit
Partially contracted basis set               ... off
Rotationally invariant grid construction     ... off

Total number of grid points                  ...   266234
Total number of batches                      ...     4170
Average number of points per batch           ...       63
Average number of grid points per atom       ...    11575
Time for grid setup =    6.606 sec

--------------------
COSX GRID GENERATION
--------------------

GRIDX 1
-------
General Integration Accuracy     IntAcc      ... 4.020
Radial Grid Type                 RadialGrid  ... OptM3 with GC (2021)
Angular Grid (max. ang.)         AngularGrid ... 2 (Lebedev-110)
Angular grid pruning method      GridPruning ... 4 (adaptive)
Weight generation scheme         WeightScheme... Becke
Basis function cutoff            BFCut       ... 1.0000e-11
Integration weight cutoff        WCut        ... 1.0000e-14
Angular grids for H and He will be reduced by one unit
Partially contracted basis set               ... on
Rotationally invariant grid construction     ... off

Total number of grid points                  ...    29674
Total number of batches                      ...      474
Average number of points per batch           ...       62
Average number of grid points per atom       ...     1290
UseSFitting                                  ... on

GRIDX 2
-------
General Integration Accuracy     IntAcc      ... 4.338
Radial Grid Type                 RadialGrid  ... OptM3 with GC (2021)
Angular Grid (max. ang.)         AngularGrid ... 3 (Lebedev-194)
Angular grid pruning method      GridPruning ... 4 (adaptive)
Weight generation scheme         WeightScheme... Becke
Basis function cutoff            BFCut       ... 1.0000e-11
Integration weight cutoff        WCut        ... 1.0000e-14
Angular grids for H and He will be reduced by one unit
Partially contracted basis set               ... on
Rotationally invariant grid construction     ... off

Total number of grid points                  ...    65035
Total number of batches                      ...     1027
Average number of points per batch           ...       63
Average number of grid points per atom       ...     2828
UseSFitting                                  ... on

GRIDX 3
-------
General Integration Accuracy     IntAcc      ... 4.871
Radial Grid Type                 RadialGrid  ... OptM3 with GC (2021)
Angular Grid (max. ang.)         AngularGrid ... 4 (Lebedev-302)
Angular grid pruning method      GridPruning ... 4 (adaptive)
Weight generation scheme         WeightScheme... Becke
Basis function cutoff            BFCut       ... 1.0000e-11
Integration weight cutoff        WCut        ... 1.0000e-14
Angular grids for H and He will be reduced by one unit
Partially contracted basis set               ... on
Rotationally invariant grid construction     ... off

Total number of grid points                  ...   123231
Total number of batches                      ...     1938
Average number of points per batch           ...       63
Average number of grid points per atom       ...     5358
UseSFitting                                  ... on

Time for X-Grid setup             =    6.059 sec

--------------
SCF ITERATIONS
--------------
ITER       Energy         Delta-E        Max-DP      RMS-DP      [F,P]     Damp
               ***  Starting incremental Fock matrix formation  ***
  0   -478.1484516118   0.000000000000 0.16971465  0.00392413  0.4123479 0.7000
  1   -478.5664828312  -0.418031219429 0.10409305  0.00264035  0.2913771 0.7000
  2   -478.8345430832  -0.268060251943 0.05480237  0.00179773  0.2046366 0.7000
                               ***Turning on DIIS***
  3   -479.0219322785  -0.187389195386 0.03265396  0.00130655  0.1443996 0.7000
  4   -479.1558918016  -0.133959523091 0.02776572  0.00103161  0.1014663 0.7000
  5   -479.2510558672  -0.095164065557 0.06848517  0.00256197  0.0709788 0.0000
                      *** Initiating the SOSCF procedure ***
                           *** Shutting down DIIS ***
                      *** Re-Reading the Fockian *** 
                      *** Removing any level shift *** 
ITER      Energy       Delta-E        Grad      Rot      Max-DP    RMS-DP
  6   -479.47811837  -0.2270625043  0.001741  0.001741  0.002760  0.000101
               *** Restarting incremental Fock matrix formation ***
  7   -479.47822078  -0.0001024108  0.000691  0.000791  0.002216  0.000059
  8   -479.47823437  -0.0000135891  0.000365  0.000760  0.000965  0.000026
  9   -479.47823678  -0.0000024096  0.000144  0.000205  0.000393  0.000010
 10   -479.47823744  -0.0000006568  0.000037  0.000095  0.000097  0.000003
 11   -479.47823743   0.0000000073  0.000045  0.000069  0.000063  0.000002
 12   -479.47823746  -0.0000000291  0.000007  0.000020  0.000025  0.000000
 13   -479.47823746  -0.0000000041  0.000008  0.000010  0.000014  0.000000
                  ***Gradient check signals convergence***
              ***Rediagonalizing the Fockian in SOSCF/NRSCF***

               *****************************************************
               *                     SUCCESS                       *
               *           SCF CONVERGED AFTER  14 CYCLES          *
               *****************************************************

Old exchange energy                            =    -28.334852811 Eh
New exchange energy                            =    -28.334843300 Eh
Exchange energy change after final integration =      0.000009511 Eh
Total energy after final integration           =   -479.478227946 Eh
Final COS-X integration done in                =    10.141 sec

----------------
TOTAL SCF ENERGY
----------------

Total Energy       :         -479.47822795 Eh          -13047.26589 eV

Components:
Nuclear Repulsion  :          596.54648802 Eh           16232.85520 eV
Electronic Energy  :        -1076.02471597 Eh          -29280.12109 eV
One Electron Energy:        -1829.28903386 Eh          -49777.48525 eV
Two Electron Energy:          753.26431789 Eh           20497.36416 eV
Max COSX asymmetry :            0.00000223 Eh               0.00006 eV

Virial components:
Potential Energy   :         -955.05214726 Eh          -25988.29015 eV
Kinetic Energy     :          475.57391932 Eh           12941.02425 eV
Virial Ratio       :            2.00820968


DFT components:
N(Alpha)           :       42.000009871333 electrons
N(Beta)            :       42.000009871333 electrons
N(Total)           :       84.000019742667 electrons
E(X)               :      -37.629445082855 Eh       
E(C)               :       -3.623855201143 Eh       
E(XC)              :      -41.253300283998 Eh       
DFET-embed. en.    :        0.000000000000 Eh       

---------------
SCF CONVERGENCE
---------------

  Last Energy change         ...    6.4056e-09  Tolerance :   1.0000e-08
  Last MAX-Density change    ...    1.8874e-15  Tolerance :   1.0000e-07
  Last RMS-Density change    ...    3.7795e-17  Tolerance :   5.0000e-09
  Last Orbital Gradient      ...    3.7596e-07  Tolerance :   1.0000e-05
  Last Orbital Rotation      ...    8.9954e-07  Tolerance :   1.0000e-05

             **** THE GBW FILE WAS UPDATED (pbeh-3c.gbw) ****
             **** DENSITY pbeh-3c.scfp WAS UPDATED ****
             **** ENERGY FILE WAS UPDATED (pbeh-3c.en.tmp) ****
             **** THE GBW FILE WAS UPDATED (pbeh-3c.gbw) ****
             **** DENSITY pbeh-3c.scfp WAS UPDATED ****
----------------
ORBITAL ENERGIES
----------------

  NO   OCC          E(Eh)            E(eV) 
   0   2.0000     -14.632546      -398.1718 
   1   2.0000     -10.475351      -285.0488 
   2   2.0000     -10.475224      -285.0453 
   3   2.0000     -10.459996      -284.6310 
   4   2.0000     -10.459816      -284.6261 
   5   2.0000     -10.459632      -284.6211 
   6   2.0000     -10.459192      -284.6091 
   7   2.0000     -10.458985      -284.6035 
   8   2.0000     -10.458824      -284.5991 
   9   2.0000     -10.458443      -284.5887 
  10   2.0000     -10.450173      -284.3637 
  11   2.0000     -10.449458      -284.3442 
  12   2.0000      -1.038416       -28.2567 
  13   2.0000      -0.963886       -26.2287 
  14   2.0000      -0.892030       -24.2734 
  15   2.0000      -0.847019       -23.0486 
  16   2.0000      -0.846358       -23.0306 
  17   2.0000      -0.845845       -23.0166 
  18   2.0000      -0.700909       -19.0727 
  19   2.0000      -0.700106       -19.0509 
  20   2.0000      -0.689631       -18.7658 
  21   2.0000      -0.689497       -18.7622 
  22   2.0000      -0.602643       -16.3987 
  23   2.0000      -0.591870       -16.1056 
  24   2.0000      -0.538141       -14.6436 
  25   2.0000      -0.535863       -14.5816 
  26   2.0000      -0.528748       -14.3880 
  27   2.0000      -0.519265       -14.1299 
  28   2.0000      -0.492460       -13.4005 
  29   2.0000      -0.492018       -13.3885 
  30   2.0000      -0.483562       -13.1584 
  31   2.0000      -0.462969       -12.5980 
  32   2.0000      -0.448038       -12.1917 
  33   2.0000      -0.425357       -11.5746 
  34   2.0000      -0.412640       -11.2285 
  35   2.0000      -0.408716       -11.1217 
  36   2.0000      -0.408537       -11.1168 
  37   2.0000      -0.325072        -8.8456 
  38   2.0000      -0.308219        -8.3871 
  39   2.0000      -0.303343        -8.2544 
  40   2.0000      -0.303212        -8.2508 
  41   2.0000      -0.297797        -8.1035 
  42   0.0000       0.004520         0.1230 
  43   0.0000       0.005684         0.1547 
  44   0.0000       0.007302         0.1987 
  45   0.0000       0.018740         0.5099 
  46   0.0000       0.130061         3.5391 
  47   0.0000       0.155367         4.2278 
  48   0.0000       0.183247         4.9864 
  49   0.0000       0.188482         5.1289 
  50   0.0000       0.191944         5.2231 
  51   0.0000       0.194157         5.2833 
  52   0.0000       0.202187         5.5018 
  53   0.0000       0.212756         5.7894 
  54   0.0000       0.214476         5.8362 
  55   0.0000       0.216249         5.8844 
  56   0.0000       0.228809         6.2262 
  57   0.0000       0.243886         6.6365 
  58   0.0000       0.245850         6.6899 
  59   0.0000       0.278222         7.5708 
  60   0.0000       0.314753         8.5649 
  61   0.0000       0.317791         8.6475 
  62   0.0000       0.318739         8.6733 
  63   0.0000       0.322244         8.7687 
  64   0.0000       0.325095         8.8463 
  65   0.0000       0.339900         9.2491 
  66   0.0000       0.346909         9.4399 
  67   0.0000       0.428435        11.6583 
  68   0.0000       0.441278        12.0078 
  69   0.0000       0.486063        13.2264 
  70   0.0000       0.502541        13.6748 
  71   0.0000       0.525741        14.3061 
  72   0.0000       0.543118        14.7790 
  73   0.0000       0.543767        14.7967 
  74   0.0000       0.575452        15.6588 
  75   0.0000       0.579638        15.7728 
  76   0.0000       0.583441        15.8762 
  77   0.0000       0.591032        16.0828 
  78   0.0000       0.600807        16.3488 
  79   0.0000       0.603693        16.4273 
  80   0.0000       0.606461        16.5026 
  81   0.0000       0.610316        16.6075 
  82   0.0000       0.613227        16.6867 
  83   0.0000       0.622622        16.9424 
  84   0.0000       0.623877        16.9766 
  85   0.0000       0.632592        17.2137 
  86   0.0000       0.634235        17.2584 
  87   0.0000       0.649058        17.6618 
  88   0.0000       0.664740        18.0885 
  89   0.0000       0.666345        18.1322 
  90   0.0000       0.680065        18.5055 
  91   0.0000       0.712179        19.3794 
  92   0.0000       0.720647        19.6098 
  93   0.0000       0.730157        19.8686 
  94   0.0000       0.746002        20.2997 
  95   0.0000       0.758487        20.6395 
  96   0.0000       0.768880        20.9223 
  97   0.0000       0.848247        23.0820 
  98   0.0000       0.931273        25.3412 
  99   0.0000       0.933665        25.4063 
 100   0.0000       0.934884        25.4395 
 101   0.0000       0.950147        25.8548 
 102   0.0000       0.958230        26.0748 
 103   0.0000       0.958269        26.0758 
 104   0.0000       0.960264        26.1301 
 105   0.0000       0.967349        26.3229 
 106   0.0000       0.971289        26.4301 
 107   0.0000       0.986328        26.8394 
 108   0.0000       0.997155        27.1340 
 109   0.0000       1.031093        28.0575 
 110   0.0000       1.032608        28.0987 
 111   0.0000       1.040299        28.3080 
 112   0.0000       1.050354        28.5816 
 113   0.0000       1.073853        29.2210 
 114   0.0000       1.078156        29.3381 
 115   0.0000       1.080567        29.4037 
 116   0.0000       1.083202        29.4754 
 117   0.0000       1.087109        29.5817 
 118   0.0000       1.112759        30.2797 
 119   0.0000       1.129153        30.7258 
 120   0.0000       1.161261        31.5995 
 121   0.0000       1.175661        31.9914 
 122   0.0000       1.220443        33.2100 
 123   0.0000       1.246249        33.9121 
 124   0.0000       1.289735        35.0955 
 125   0.0000       1.291902        35.1544 
 126   0.0000       1.295872        35.2625 
 127   0.0000       1.304162        35.4881 
 128   0.0000       1.330147        36.1951 
 129   0.0000       1.352260        36.7969 
 130   0.0000       1.434618        39.0379 
 131   0.0000       1.478626        40.2355 
 132   0.0000       1.526372        41.5347 
 133   0.0000       1.526387        41.5351 
 134   0.0000       1.538410        41.8623 
 135   0.0000       1.539176        41.8831 
 136   0.0000       1.556755        42.3615 
 137   0.0000       1.562905        42.5288 
 138   0.0000       1.570322        42.7306 
 139   0.0000       1.575593        42.8741 
 140   0.0000       1.584699        43.1218 
 141   0.0000       1.743469        47.4422 
 142   0.0000       1.789748        48.7015 
 143   0.0000       1.806234        49.1501 
 144   0.0000       1.808867        49.2218 
 145   0.0000       1.890454        51.4419 
 146   0.0000       1.899468        51.6871 
 147   0.0000       1.939041        52.7640 
 148   0.0000       1.983003        53.9603 
 149   0.0000       2.049015        55.7565 
 150   0.0000       2.049973        55.7826 
 151   0.0000       2.065356        56.2012 
 152   0.0000       2.124296        57.8050 
 153   0.0000       2.126104        57.8542 
 154   0.0000       2.133381        58.0522 
 155   0.0000       2.184654        59.4475 
 156   0.0000       2.185961        59.4830 
 157   0.0000       2.193650        59.6923 
 158   0.0000       2.195252        59.7358 
 159   0.0000       2.198194        59.8159 
 160   0.0000       2.207925        60.0807 
 161   0.0000       2.248448        61.1834 
 162   0.0000       2.248806        61.1931 
 163   0.0000       2.257198        61.4215 
 164   0.0000       2.358509        64.1783 
 165   0.0000       2.362056        64.2748 
 166   0.0000       2.363738        64.3206 
 167   0.0000       2.366609        64.3987 
 168   0.0000       2.389263        65.0152 
 169   0.0000       2.455460        66.8165 
 170   0.0000       2.558201        69.6122 
 171   0.0000       2.571299        69.9686 
 172   0.0000       2.573287        70.0227 
 173   0.0000       2.617506        71.2259 
 174   0.0000       2.702628        73.5422 
 175   0.0000       2.718737        73.9806 
 176   0.0000       2.726975        74.2048 
 177   0.0000       2.732051        74.3429 
 178   0.0000       2.736647        74.4680 
 179   0.0000       2.771613        75.4194 
 180   0.0000       2.779102        75.6232 
 181   0.0000       2.779119        75.6237 
 182   0.0000       2.805168        76.3325 
 183   0.0000       2.828469        76.9666 
 184   0.0000       2.842849        77.3578 
 185   0.0000       2.864378        77.9437 
 186   0.0000       3.048492        82.9537 
 187   0.0000       3.094592        84.2081 
 188   0.0000       3.439848        93.6030 
 189   0.0000       3.469806        94.4182 
 190   0.0000      13.265591       360.9751 
 191   0.0000      13.361480       363.5843 
 192   0.0000      13.621142       370.6501 
 193   0.0000      13.625407       370.7662 
 194   0.0000      13.660360       371.7173 
 195   0.0000      13.876093       377.5877 
 196   0.0000      14.093357       383.4998 
 197   0.0000      14.097566       383.6143 
 198   0.0000      14.134657       384.6236 
 199   0.0000      14.324121       389.7792 
 200   0.0000      14.531594       395.4248 
 201   0.0000      19.449294       529.2422 

                    ********************************
                    * MULLIKEN POPULATION ANALYSIS *
                    ********************************

-----------------------
MULLIKEN ATOMIC CHARGES
-----------------------
   0 C :   -0.228135
   1 H :    0.226674
   2 C :   -0.222158
   3 H :    0.227389
   4 C :   -0.229467
   5 H :    0.226163
   6 C :   -0.228970
   7 H :    0.226174
   8 C :   -0.221524
   9 H :    0.227464
  10 C :   -0.227021
  11 H :    0.226780
  12 N :   -0.363195
  13 C :   -0.039575
  14 H :    0.227674
  15 C :   -0.303402
  16 H :    0.225027
  17 C :   -0.125769
  18 H :    0.266402
  19 C :   -0.304905
  20 H :    0.225697
  21 C :   -0.039944
  22 H :    0.228623
Sum of atomic charges:   -0.0000000

--------------------------------
MULLIKEN REDUCED ORBITAL CHARGES
--------------------------------
  0 C s       :     3.247587  s :     3.247587
      pz      :     0.991497  p :     2.940931
      px      :     0.953674
      py      :     0.995761
      dz2     :     0.003814  d :     0.039617
      dxz     :     0.005360
      dyz     :     0.004164
      dx2y2   :     0.011215
      dxy     :     0.015065
  1 H s       :     0.773326  s :     0.773326
  2 C s       :     3.247849  s :     3.247849
      pz      :     0.984361  p :     2.934717
      px      :     1.047533
      py      :     0.902824
      dz2     :     0.004076  d :     0.039592
      dxz     :     0.002582
      dyz     :     0.006644
      dx2y2   :     0.015074
      dxy     :     0.011216
  3 H s       :     0.772611  s :     0.772611
  4 C s       :     3.248380  s :     3.248380
      pz      :     0.992822  p :     2.941467
      px      :     0.920461
      py      :     1.028183
      dz2     :     0.003802  d :     0.039620
      dxz     :     0.006320
      dyz     :     0.003236
      dx2y2   :     0.013118
      dxy     :     0.013144
  5 H s       :     0.773837  s :     0.773837
  6 C s       :     3.248291  s :     3.248291
      pz      :     0.992122  p :     2.941060
      px      :     0.955079
      py      :     0.993859
      dz2     :     0.003838  d :     0.039619
      dxz     :     0.005359
      dyz     :     0.004154
      dx2y2   :     0.011206
      dxy     :     0.015062
  7 H s       :     0.773826  s :     0.773826
  8 C s       :     3.247972  s :     3.247972
      pz      :     0.983754  p :     2.933964
      px      :     1.047321
      py      :     0.902888
      dz2     :     0.004075  d :     0.039588
      dxz     :     0.002590
      dyz     :     0.006635
      dx2y2   :     0.015083
      dxy     :     0.011205
  9 H s       :     0.772536  s :     0.772536
 10 C s       :     3.247594  s :     3.247594
      pz      :     0.991106  p :     2.939808
      px      :     0.919497
      py      :     1.029206
      dz2     :     0.003778  d :     0.039618
      dxz     :     0.006307
      dyz     :     0.003262
      dx2y2   :     0.013115
      dxy     :     0.013157
 11 H s       :     0.773220  s :     0.773220
 12 N s       :     3.614671  s :     3.614671
      pz      :     1.541298  p :     3.706272
      px      :     1.112834
      py      :     1.052139
      dz2     :     0.007647  d :     0.042252
      dxz     :     0.007107
      dyz     :     0.014709
      dx2y2   :     0.005970
      dxy     :     0.006819
 13 C s       :     3.161909  s :     3.161909
      pz      :     0.904741  p :     2.818471
      px      :     0.938022
      py      :     0.975707
      dz2     :     0.018239  d :     0.059195
      dxz     :     0.008623
      dyz     :     0.018604
      dx2y2   :     0.009274
      dxy     :     0.004456
 14 H s       :     0.772326  s :     0.772326
 15 C s       :     3.272511  s :     3.272511
      pz      :     0.979441  p :     2.992610
      px      :     1.011137
      py      :     1.002032
      dz2     :     0.009463  d :     0.038281
      dxz     :     0.004371
      dyz     :     0.014483
      dx2y2   :     0.005751
      dxy     :     0.004214
 16 H s       :     0.774973  s :     0.774973
 17 C s       :     3.234434  s :     3.234434
      pz      :     1.022508  p :     2.850922
      px      :     0.921789
      py      :     0.906626
      dz2     :     0.012527  d :     0.040413
      dxz     :     0.003152
      dyz     :     0.012172
      dx2y2   :     0.005934
      dxy     :     0.006628
 18 H s       :     0.733598  s :     0.733598
 19 C s       :     3.270080  s :     3.270080
      pz      :     0.896233  p :     2.996564
      px      :     1.015940
      py      :     1.084392
      dz2     :     0.011354  d :     0.038260
      dxz     :     0.005538
      dyz     :     0.011432
      dx2y2   :     0.006836
      dxy     :     0.003100
 20 H s       :     0.774303  s :     0.774303
 21 C s       :     3.161839  s :     3.161839
      pz      :     0.969902  p :     2.818878
      px      :     0.936317
      py      :     0.912658
      dz2     :     0.012121  d :     0.059228
      dxz     :     0.005670
      dyz     :     0.024925
      dx2y2   :     0.009129
      dxy     :     0.007382
 22 H s       :     0.771377  s :     0.771377


                     *******************************
                     * LOEWDIN POPULATION ANALYSIS *
                     *******************************

----------------------
LOEWDIN ATOMIC CHARGES
----------------------
   0 C :   -0.138648
   1 H :    0.138103
   2 C :   -0.135598
   3 H :    0.139204
   4 C :   -0.139510
   5 H :    0.138384
   6 C :   -0.139265
   7 H :    0.138386
   8 C :   -0.135089
   9 H :    0.139267
  10 C :   -0.138052
  11 H :    0.138215
  12 N :   -0.144153
  13 C :   -0.060179
  14 H :    0.127595
  15 C :   -0.164872
  16 H :    0.139645
  17 C :   -0.096863
  18 H :    0.152528
  19 C :   -0.167169
  20 H :    0.139709
  21 C :   -0.059573
  22 H :    0.127936

-------------------------------
LOEWDIN REDUCED ORBITAL CHARGES
-------------------------------
  0 C s       :     2.895051  s :     2.895051
      pz      :     0.984558  p :     3.154162
      px      :     1.086575
      py      :     1.083029
      dz2     :     0.006321  d :     0.089434
      dxz     :     0.010697
      dyz     :     0.007759
      dx2y2   :     0.029002
      dxy     :     0.035655
  1 H s       :     0.861897  s :     0.861897
  2 C s       :     2.895074  s :     2.895074
      pz      :     0.981865  p :     3.151106
      px      :     1.082267
      py      :     1.086975
      dz2     :     0.006749  d :     0.089418
      dxz     :     0.004160
      dyz     :     0.014026
      dx2y2   :     0.035536
      dxy     :     0.028948
  3 H s       :     0.860796  s :     0.860796
  4 C s       :     2.895164  s :     2.895164
      pz      :     0.985547  p :     3.154901
      px      :     1.088783
      py      :     1.080571
      dz2     :     0.006310  d :     0.089445
      dxz     :     0.013065
      dyz     :     0.005455
      dx2y2   :     0.032308
      dxy     :     0.032307
  5 H s       :     0.861616  s :     0.861616
  6 C s       :     2.895152  s :     2.895152
      pz      :     0.985329  p :     3.154667
      px      :     1.086788
      py      :     1.082550
      dz2     :     0.006369  d :     0.089446
      dxz     :     0.010727
      dyz     :     0.007750
      dx2y2   :     0.028986
      dxy     :     0.035615
  7 H s       :     0.861614  s :     0.861614
  8 C s       :     2.895042  s :     2.895042
      pz      :     0.981411  p :     3.150635
      px      :     1.082262
      py      :     1.086962
      dz2     :     0.006747  d :     0.089412
      dxz     :     0.004167
      dyz     :     0.014010
      dx2y2   :     0.035537
      dxy     :     0.028950
  9 H s       :     0.860733  s :     0.860733
 10 C s       :     2.895039  s :     2.895039
      pz      :     0.983936  p :     3.153581
      px      :     1.088715
      py      :     1.080929
      dz2     :     0.006263  d :     0.089433
      dxz     :     0.013018
      dyz     :     0.005480
      dx2y2   :     0.032357
      dxy     :     0.032315
 11 H s       :     0.861785  s :     0.861785
 12 N s       :     3.214474  s :     3.214474
      pz      :     1.559900  p :     3.839370
      px      :     1.103457
      py      :     1.176013
      dz2     :     0.015534  d :     0.090309
      dxz     :     0.008605
      dyz     :     0.033941
      dx2y2   :     0.016652
      dxy     :     0.015578
 13 C s       :     2.888329  s :     2.888329
      pz      :     1.062122  p :     3.040562
      px      :     0.934128
      py      :     1.044312
      dz2     :     0.047406  d :     0.131288
      dxz     :     0.017444
      dyz     :     0.042317
      dx2y2   :     0.016938
      dxy     :     0.007183
 14 H s       :     0.872405  s :     0.872405
 15 C s       :     2.902597  s :     2.902597
      pz      :     1.090404  p :     3.174540
      px      :     0.998770
      py      :     1.085366
      dz2     :     0.024599  d :     0.087736
      dxz     :     0.008656
      dyz     :     0.034858
      dx2y2   :     0.011777
      dxy     :     0.007846
 16 H s       :     0.860355  s :     0.860355
 17 C s       :     2.898041  s :     2.898041
      pz      :     1.093442  p :     3.108283
      px      :     0.923725
      py      :     1.091117
      dz2     :     0.026229  d :     0.090538
      dxz     :     0.005079
      dyz     :     0.030621
      dx2y2   :     0.014664
      dxy     :     0.013946
 18 H s       :     0.847472  s :     0.847472
 19 C s       :     2.902824  s :     2.902824
      pz      :     1.093713  p :     3.176569
      px      :     1.001731
      py      :     1.081125
      dz2     :     0.029630  d :     0.087777
      dxz     :     0.011718
      dyz     :     0.029869
      dx2y2   :     0.011719
      dxy     :     0.004842
 20 H s       :     0.860291  s :     0.860291
 21 C s       :     2.888508  s :     2.888508
      pz      :     1.080528  p :     3.039747
      px      :     0.933347
      py      :     1.025871
      dz2     :     0.029573  d :     0.131318
      dxz     :     0.011150
      dyz     :     0.057870
      dx2y2   :     0.019163
      dxy     :     0.013561
 22 H s       :     0.872064  s :     0.872064


                      *****************************
                      * MAYER POPULATION ANALYSIS *
                      *****************************

  NA   - Mulliken gross atomic population
  ZA   - Total nuclear charge
  QA   - Mulliken gross atomic charge
  VA   - Mayer's total valence
  BVA  - Mayer's bonded valence
  FA   - Mayer's free valence

  ATOM       NA         ZA         QA         VA         BVA        FA
  0 C      6.2281     6.0000    -0.2281     3.8152     3.8152     0.0000
  1 H      0.7733     1.0000     0.2267     0.9098     0.9098     0.0000
  2 C      6.2222     6.0000    -0.2222     3.8188     3.8188     0.0000
  3 H      0.7726     1.0000     0.2274     0.9099     0.9099    -0.0000
  4 C      6.2295     6.0000    -0.2295     3.8162     3.8162    -0.0000
  5 H      0.7738     1.0000     0.2262     0.9104     0.9104    -0.0000
  6 C      6.2290     6.0000    -0.2290     3.8161     3.8161    -0.0000
  7 H      0.7738     1.0000     0.2262     0.9104     0.9104    -0.0000
  8 C      6.2215     6.0000    -0.2215     3.8188     3.8188    -0.0000
  9 H      0.7725     1.0000     0.2275     0.9098     0.9098     0.0000
 10 C      6.2270     6.0000    -0.2270     3.8150     3.8150    -0.0000
 11 H      0.7732     1.0000     0.2268     0.9098     0.9098    -0.0000
 12 N      7.3632     7.0000    -0.3632     3.1179     3.1179    -0.0000
 13 C      6.0396     6.0000    -0.0396     3.8436     3.8436     0.0000
 14 H      0.7723     1.0000     0.2277     0.9044     0.9044     0.0000
 15 C      6.3034     6.0000    -0.3034     3.8017     3.8017    -0.0000
 16 H      0.7750     1.0000     0.2250     0.9175     0.9175    -0.0000
 17 C      6.1258     6.0000    -0.1258     3.7400     3.7400    -0.0000
 18 H      0.7336     1.0000     0.2664     0.8844     0.8844     0.0000
 19 C      6.3049     6.0000    -0.3049     3.8002     3.8002    -0.0000
 20 H      0.7743     1.0000     0.2257     0.9156     0.9156     0.0000
 21 C      6.0399     6.0000    -0.0399     3.8457     3.8457    -0.0000
 22 H      0.7714     1.0000     0.2286     0.9040     0.9040    -0.0000

  Mayer bond orders larger than 0.100000
B(  0-C ,  1-H ) :   0.9180 B(  0-C ,  2-C ) :   1.4255 B(  0-C , 10-C ) :   1.4207 
B(  2-C ,  3-H ) :   0.9181 B(  2-C ,  4-C ) :   1.4243 B(  4-C ,  5-H ) :   0.9186 
B(  4-C ,  6-C ) :   1.4228 B(  6-C ,  7-H ) :   0.9186 B(  6-C ,  8-C ) :   1.4243 
B(  8-C ,  9-H ) :   0.9180 B(  8-C , 10-C ) :   1.4256 B( 10-C , 11-H ) :   0.9179 
B( 12-N , 13-C ) :   1.4966 B( 12-N , 21-C ) :   1.4985 B( 13-C , 14-H ) :   0.9197 
B( 13-C , 15-C ) :   1.3812 B( 15-C , 16-H ) :   0.9139 B( 15-C , 17-C ) :   1.4130 
B( 17-C , 18-H ) :   0.8974 B( 17-C , 19-C ) :   1.4120 B( 19-C , 20-H ) :   0.9157 
B( 19-C , 21-C ) :   1.3817 B( 21-C , 22-H ) :   0.9189 

-------
TIMINGS
-------

Total SCF time: 0 days 0 hours 2 min 30 sec 

Total time                  ....     150.413 sec
Sum of individual times     ....     142.158 sec  ( 94.5%)

Fock matrix formation       ....     124.150 sec  ( 82.5%)
  Split-RI-J                ....      11.135 sec  (  9.0% of F)
  Chain of spheres X        ....      66.424 sec  ( 53.5% of F)
  XC integration            ....      28.528 sec  ( 23.0% of F)
    Basis function eval.    ....       5.151 sec  ( 18.1% of XC)
    Density eval.           ....       3.273 sec  ( 11.5% of XC)
    XC-Functional eval.     ....       1.942 sec  (  6.8% of XC)
    XC-Potential eval.      ....       1.838 sec  (  6.4% of XC)
Diagonalization             ....       1.249 sec  (  0.8%)
Density matrix formation    ....       0.186 sec  (  0.1%)
Population analysis         ....       1.156 sec  (  0.8%)
Initial guess               ....       0.259 sec  (  0.2%)
Orbital Transformation      ....       0.000 sec  (  0.0%)
Orbital Orthonormalization  ....       0.000 sec  (  0.0%)
DIIS solution               ....       1.422 sec  (  0.9%)
SOSCF solution              ....       1.072 sec  (  0.7%)
Grid generation             ....      12.665 sec  (  8.4%)

Maximum memory used throughout the entire SCF-calculation: 64.5 MB


-------------------------------------------------------------------------------
                          DFT DISPERSION CORRECTION                            
                                                                               
                              DFTD3 V3.1  Rev 1                                
                          USING Becke-Johnson damping                          
-------------------------------------------------------------------------------
The PBEh-3c composite method is recognized
Using three-body term ABC
Active option DFTDOPT                   ...         4   

molecular C6(AA) [au] = 6242.327101 


            DFT-D V3
 parameters
 s6 scaling factor         :     1.0000 
 a1 scaling factor         :     0.4860 
 s8 scaling factor         :     0.0000 
 a2 scaling factor         :     4.5000 
 Damping factor alpha9(ATM):    16.0000 
 ad hoc parameters k1-k3   :    16.0000     1.3333    -4.0000 

 Edisp/kcal,au: -8.734223112907  -0.013918869025 
 E6   /kcal   :  -8.797248720 
 E8   /kcal   :  -0.000000000 
 E6(ABC)      :   0.063025607 
 % E8         :   0.000000000 
 % E6(ABC)    :  -0.721593735 

-------------------------   ----------------
Dispersion correction           -0.013918869
-------------------------   ----------------

------------------   -----------------
gCP correction             0.031565072
------------------   -----------------

-------------------------   --------------------
FINAL SINGLE POINT ENERGY      -479.460581743164
-------------------------   --------------------


                            ***************************************
                            *     ORCA property calculations      *
                            ***************************************

                                    ---------------------
                                    Active property flags
                                    ---------------------
   (+) Dipole Moment


------------------------------------------------------------------------------
                       ORCA ELECTRIC PROPERTIES CALCULATION
------------------------------------------------------------------------------

Dipole Moment Calculation                       ... on
Quadrupole Moment Calculation                   ... off
Polarizability Calculation                      ... off
GBWName                                         ... pbeh-3c.gbw
Electron density                                ... pbeh-3c.scfp
The origin for moment calculation is the CENTER OF MASS  = ( 0.003437,  0.047908  0.422061)

-------------
DIPOLE MOMENT
-------------
                                X             Y             Z
Electronic contribution:      0.01996       0.32124       3.52394
Nuclear contribution   :     -0.03835      -0.53552      -4.59504
                        -----------------------------------------
Total Dipole Moment    :     -0.01839      -0.21427      -1.07110
                        -----------------------------------------
Magnitude (a.u.)       :      1.09248
Magnitude (Debye)      :      2.77685



--------------------
Rotational spectrum 
--------------------
 
Rotational constants in cm-1:     0.065372     0.015064     0.014051 
Rotational constants in MHz :  1959.803732   451.605070   421.231791 

 Dipole components along the rotational axes: 
x,y,z [a.u.] :    -1.077298    -0.181198    -0.010010 
x,y,z [Debye]:    -2.738273    -0.460568    -0.025443 

 

Timings for individual modules:

Sum of individual times         ...      154.128 sec (=   2.569 min)
GTO integral calculation        ...        2.861 sec (=   0.048 min)   1.9 %
SCF iterations                  ...      151.266 sec (=   2.521 min)  98.1 %
                             ****ORCA TERMINATED NORMALLY****
TOTAL RUN TIME: 0 days 0 hours 2 minutes 39 seconds 297 msec
