
                                 *****************
                                 * O   R   C   A *
                                 *****************

                                            #,                                       
                                            ###                                      
                                            ####                                     
                                            #####                                    
                                            ######                                   
                                           ########,                                 
                                     ,,################,,,,,                         
                               ,,#################################,,                 
                          ,,##########################################,,             
                       ,#########################################, ''#####,          
                    ,#############################################,,   '####,        
                  ,##################################################,,,,####,       
                ,###########''''           ''''###############################       
              ,#####''   ,,,,##########,,,,          '''####'''          '####       
            ,##' ,,,,###########################,,,                        '##       
           ' ,,###''''                  '''############,,,                           
         ,,##''                                '''############,,,,        ,,,,,,###''
      ,#''                                            '''#######################'''  
     '                                                          ''''####''''         
             ,#######,   #######,   ,#######,      ##                                
            ,#'     '#,  ##    ##  ,#'     '#,    #''#        ######   ,####,        
            ##       ##  ##   ,#'  ##            #'  '#       #        #'  '#        
            ##       ##  #######   ##           ,######,      #####,   #    #        
            '#,     ,#'  ##    ##  '#,     ,#' ,#      #,         ##   #,  ,#        
             '#######'   ##     ##  '#######'  #'      '#     #####' # '####'        



                  #######################################################
                  #                        -***-                        #
                  #          Department of theory and spectroscopy      #
                  #    Directorship and core code : Frank Neese         #
                  #        Max Planck Institute fuer Kohlenforschung    #
                  #                Kaiser Wilhelm Platz 1               #
                  #                 D-45470 Muelheim/Ruhr               #
                  #                      Germany                        #
                  #                                                     #
                  #                  All rights reserved                #
                  #                        -***-                        #
                  #######################################################


                         Program Version 5.0.3 -  RELEASE  -


 With contributions from (in alphabetic order):
   Daniel Aravena         : Magnetic Suceptibility
   Michael Atanasov       : Ab Initio Ligand Field Theory (pilot matlab implementation)
   Alexander A. Auer      : GIAO ZORA, VPT2 properties, NMR spectrum
   Ute Becker             : Parallelization
   Giovanni Bistoni       : ED, misc. LED, open-shell LED, HFLD
   Martin Brehm           : Molecular dynamics
   Dmytro Bykov           : SCF Hessian
   Vijay G. Chilkuri      : MRCI spin determinant printing, contributions to CSF-ICE
   Dipayan Datta          : RHF DLPNO-CCSD density
   Achintya Kumar Dutta   : EOM-CC, STEOM-CC
   Dmitry Ganyushin       : Spin-Orbit,Spin-Spin,Magnetic field MRCI
   Miquel Garcia          : C-PCM and meta-GGA Hessian, CC/C-PCM, Gaussian charge scheme
   Yang Guo               : DLPNO-NEVPT2, F12-NEVPT2, CIM, IAO-localization
   Andreas Hansen         : Spin unrestricted coupled pair/coupled cluster methods
   Benjamin Helmich-Paris : MC-RPA, TRAH-SCF, COSX integrals
   Lee Huntington         : MR-EOM, pCC
   Robert Izsak           : Overlap fitted RIJCOSX, COSX-SCS-MP3, EOM
   Marcus Kettner         : VPT2
   Christian Kollmar      : KDIIS, OOCD, Brueckner-CCSD(T), CCSD density, CASPT2, CASPT2-K
   Simone Kossmann        : Meta GGA functionals, TD-DFT gradient, OOMP2, MP2 Hessian
   Martin Krupicka        : Initial AUTO-CI
   Lucas Lang             : DCDCAS
   Marvin Lechner         : AUTO-CI (C++ implementation), FIC-MRCC
   Dagmar Lenk            : GEPOL surface, SMD
   Dimitrios Liakos       : Extrapolation schemes; Compound Job, initial MDCI parallelization
   Dimitrios Manganas     : Further ROCIS development; embedding schemes
   Dimitrios Pantazis     : SARC Basis sets
   Anastasios Papadopoulos: AUTO-CI, single reference methods and gradients
   Taras Petrenko         : DFT Hessian,TD-DFT gradient, ASA, ECA, R-Raman, ABS, FL, XAS/XES, NRVS
   Peter Pinski           : DLPNO-MP2, DLPNO-MP2 Gradient
   Christoph Reimann      : Effective Core Potentials
   Marius Retegan         : Local ZFS, SOC
   Christoph Riplinger    : Optimizer, TS searches, QM/MM, DLPNO-CCSD(T), (RO)-DLPNO pert. Triples
   Tobias Risthaus        : Range-separated hybrids, TD-DFT gradient, RPA, STAB
   Michael Roemelt        : Original ROCIS implementation
   Masaaki Saitow         : Open-shell DLPNO-CCSD energy and density
   Barbara Sandhoefer     : DKH picture change effects
   Avijit Sen             : IP-ROCIS
   Kantharuban Sivalingam : CASSCF convergence, NEVPT2, FIC-MRCI
   Bernardo de Souza      : ESD, SOC TD-DFT
   Georgi Stoychev        : AutoAux, RI-MP2 NMR, DLPNO-MP2 response
   Willem Van den Heuvel  : Paramagnetic NMR
   Boris Wezisla          : Elementary symmetry handling
   Frank Wennmohs         : Technical directorship


 We gratefully acknowledge several colleagues who have allowed us to
 interface, adapt or use parts of their codes:
   Stefan Grimme, W. Hujo, H. Kruse, P. Pracht,  : VdW corrections, initial TS optimization,
                  C. Bannwarth, S. Ehlert          DFT functionals, gCP, sTDA/sTD-DF
   Ed Valeev, F. Pavosevic, A. Kumar             : LibInt (2-el integral package), F12 methods
   Garnet Chan, S. Sharma, J. Yang, R. Olivares  : DMRG
   Ulf Ekstrom                                   : XCFun DFT Library
   Mihaly Kallay                                 : mrcc  (arbitrary order and MRCC methods)
   Jiri Pittner, Ondrej Demel                    : Mk-CCSD
   Frank Weinhold                                : gennbo (NPA and NBO analysis)
   Christopher J. Cramer and Donald G. Truhlar   : smd solvation model
   Lars Goerigk                                  : TD-DFT with DH, B97 family of functionals
   V. Asgeirsson, H. Jonsson                     : NEB implementation
   FAccTs GmbH                                   : IRC, NEB, NEB-TS, DLPNO-Multilevel, CI-OPT
                                                   MM, QMMM, 2- and 3-layer-ONIOM, Crystal-QMMM,
                                                   LR-CPCM, SF, NACMEs, symmetry and pop. for TD-DFT,
                                                   nearIR, NL-DFT gradient (VV10), updates on ESD,
                                                   ML-optimized integration grids
   S Lehtola, MJT Oliveira, MAL Marques          : LibXC Library
   Liviu Ungur et al                             : ANISO software


 Your calculation uses the libint2 library for the computation of 2-el integrals
 For citations please refer to: http://libint.valeyev.net

 Your ORCA version has been built with support for libXC version: 5.1.0
 For citations please refer to: https://tddft.org/programs/libxc/

 This ORCA versions uses:
   CBLAS   interface :  Fast vector & matrix operations
   LAPACKE interface :  Fast linear algebra routines
   SCALAPACK package :  Parallel linear algebra routines
   Shared memory     :  Shared parallel matrices
   BLAS/LAPACK       :  OpenBLAS 0.3.15  USE64BITINT DYNAMIC_ARCH NO_AFFINITY Haswell SINGLE_THREADED
        Core in use  :  Haswell
   Copyright (c) 2011-2014, The OpenBLAS Project




***************************************
The coordinates will be read from file: 60.xyz
***************************************


Your calculation utilizes the geometrical counterpoise correction gCP
Please cite in your paper:
H.Kruse, S. Grimme J.Chem.Phys., 136, (2012), 154101 
   

Your calculation utilizes the atom-pairwise dispersion correction
with the Becke-Johnson damping scheme (D3BJ)
Cite in your paper:
S.Grimme, S.Ehrlich, L.Goerigk, J Comput Chem, (2011), 32, 1456–1465 
S.Grimme, J.Antony, S.Ehrlich and H.Krieg, J.Chem.Phys., 132, (2010), 154104 
   

Your calculation employs the composite approach PBEh-3c.
Please cite in your paper:
S. Grimme, J. G. Brandenburg, C. Bannwarth, A. Hansen J.Chem.Phys., 143, (2015), 054107 
   

================================================================================

----- Orbital basis set information -----
Your calculation utilizes the basis: def2-mSVP

----- AuxJ basis set information -----
Your calculation utilizes the auxiliary basis: def2/J
   F. Weigend, Phys. Chem. Chem. Phys. 8, 1057 (2006).

================================================================================
                                        WARNINGS
                       Please study these warnings very carefully!
================================================================================


INFO   : the flag for use of the SHARK integral package has been found!

================================================================================
                                       INPUT FILE
================================================================================
NAME = pbeh-3c.inp
|  1> ! PBEh-3c def2/J TightSCF DefGrid3
|  2> 
|  3> %maxcore 60000
|  4> 
|  5> %pal
|  6> nprocs 4
|  7> end
|  8> 
|  9> *xyzfile 0 1 60.xyz
| 10> 
| 11>                          ****END OF INPUT****
================================================================================

                       ****************************
                       * Single Point Calculation *
                       ****************************

---------------------------------
CARTESIAN COORDINATES (ANGSTROEM)
---------------------------------
  C     -2.459218    0.916788   -0.670798
  H     -1.741270    1.550721   -1.134405
  C     -3.234931    0.163960   -0.120222
  H     -3.929359   -0.484782    0.354184
  C      0.985794    0.047854   -0.034260
  O      0.731615    1.003956   -0.733097
  O      0.037889   -0.726486    0.533427
  H     -0.823110   -0.359187    0.265656
  C      2.361429   -0.433596    0.315891
  H      3.099815    0.203954   -0.154959
  H      2.487639   -0.421741    1.395927
  H      2.483706   -1.461440   -0.017343

----------------------------
CARTESIAN COORDINATES (A.U.)
----------------------------
  NO LB      ZA    FRAG     MASS         X           Y           Z
   0 C     6.0000    0    12.011   -4.647249    1.732479   -1.267624
   1 H     1.0000    0     1.008   -3.290524    2.930438   -2.143715
   2 C     6.0000    0    12.011   -6.113134    0.309839   -0.227187
   3 H     1.0000    0     1.008   -7.425411   -0.916105    0.669310
   4 C     6.0000    0    12.011    1.862881    0.090431   -0.064741
   5 O     8.0000    0    15.999    1.382552    1.897202   -1.385353
   6 O     8.0000    0    15.999    0.071601   -1.372860    1.008031
   7 H     1.0000    0     1.008   -1.555452   -0.678766    0.502017
   8 C     6.0000    0    12.011    4.462454   -0.819378    0.596948
   9 H     1.0000    0     1.008    5.857801    0.385417   -0.292830
  10 H     1.0000    0     1.008    4.700957   -0.796975    2.637919
  11 H     1.0000    0     1.008    4.693525   -2.761722   -0.032774

--------------------------------
INTERNAL COORDINATES (ANGSTROEM)
--------------------------------
 C      0   0   0     0.000000000000     0.00000000     0.00000000
 H      1   0   0     1.064072983371     0.00000000     0.00000000
 C      1   2   0     1.213101436686   177.31839736     0.00000000
 H      3   1   2     1.062146976652   178.92211820   180.09410026
 C      2   1   3     3.302394559140    98.10019309     0.00000000
 O      5   2   1     1.211244220900    43.55452586   180.03883727
 O      5   2   1     1.349219756695    79.69937950   359.95074389
 H      7   5   2     0.973616819902   106.80190995   359.94876726
 C      5   2   1     1.498923352248   169.06857793   179.60851072
 H      9   5   6     1.083228321801   109.57256931   359.83800723
 H      9   5   6     1.087449250985   109.57389739   120.92680799
 H      9   5   6     1.087410285273   109.58561745   238.72002145

---------------------------
INTERNAL COORDINATES (A.U.)
---------------------------
 C      0   0   0     0.000000000000     0.00000000     0.00000000
 H      1   0   0     2.010806525076     0.00000000     0.00000000
 C      1   2   0     2.292429488003   177.31839736     0.00000000
 H      3   1   2     2.007166899845   178.92211820   180.09410026
 C      2   1   3     6.240621302927    98.10019309     0.00000000
 O      5   2   1     2.288919858795    43.55452586   180.03883727
 O      5   2   1     2.549655834630    79.69937950   359.95074389
 H      7   5   2     1.839869148995   106.80190995   359.94876726
 C      5   2   1     2.832554631489   169.06857793   179.60851072
 H      9   5   6     2.047004868711   109.57256931   359.83800723
 H      9   5   6     2.054981268900   109.57389739   120.92680799
 H      9   5   6     2.054907634374   109.58561745   238.72002145

---------------------
BASIS SET INFORMATION
---------------------
There are 3 groups of distinct atoms

 Group   1 Type C   : 8s4p1d contracted to 4s2p1d pattern {5111/31/1}
 Group   2 Type H   : 4s contracted to 2s pattern {31}
 Group   3 Type O   : 8s4p1d contracted to 4s2p1d pattern {5111/31/1}

Atom   0C    basis set group =>   1
Atom   1H    basis set group =>   2
Atom   2C    basis set group =>   1
Atom   3H    basis set group =>   2
Atom   4C    basis set group =>   1
Atom   5O    basis set group =>   3
Atom   6O    basis set group =>   3
Atom   7H    basis set group =>   2
Atom   8C    basis set group =>   1
Atom   9H    basis set group =>   2
Atom  10H    basis set group =>   2
Atom  11H    basis set group =>   2
---------------------------------
AUXILIARY/J BASIS SET INFORMATION
---------------------------------
There are 3 groups of distinct atoms

 Group   1 Type C   : 12s5p4d2f1g contracted to 6s4p3d1f1g pattern {711111/2111/211/2/1}
 Group   2 Type H   : 5s2p1d contracted to 3s1p1d pattern {311/2/1}
 Group   3 Type O   : 12s5p4d2f1g contracted to 6s4p3d1f1g pattern {711111/2111/211/2/1}

Atom   0C    basis set group =>   1
Atom   1H    basis set group =>   2
Atom   2C    basis set group =>   1
Atom   3H    basis set group =>   2
Atom   4C    basis set group =>   1
Atom   5O    basis set group =>   3
Atom   6O    basis set group =>   3
Atom   7H    basis set group =>   2
Atom   8C    basis set group =>   1
Atom   9H    basis set group =>   2
Atom  10H    basis set group =>   2
Atom  11H    basis set group =>   2


           ************************************************************
           *        Program running with 4 parallel MPI-processes     *
           *              working on a common directory               *
           ************************************************************
------------------------------------------------------------------------------
                           ORCA GTO INTEGRAL CALCULATION
                           -- RI-GTO INTEGRALS CHOSEN --
------------------------------------------------------------------------------
------------------------------------------------------------------------------
                   ___                                                        
                  /   \      - P O W E R E D   B Y -                         
                 /     \                                                     
                 |  |  |   _    _      __       _____    __    __             
                 |  |  |  | |  | |    /  \     |  _  \  |  |  /  |          
                  \  \/   | |  | |   /    \    | | | |  |  | /  /          
                 / \  \   | |__| |  /  /\  \   | |_| |  |  |/  /          
                |  |  |   |  __  | /  /__\  \  |    /   |      \           
                |  |  |   | |  | | |   __   |  |    \   |  |\   \          
                \     /   | |  | | |  |  |  |  | |\  \  |  | \   \       
                 \___/    |_|  |_| |__|  |__|  |_| \__\ |__|  \__/        
                                                                              
                      - O R C A' S   B I G   F R I E N D -                    
                                      &                                       
                       - I N T E G R A L  F E E D E R -                       
                                                                              
 v1 FN, 2020, v2 2021                                                         
------------------------------------------------------------------------------


Reading SHARK input file pbeh-3c.SHARKINP.tmp ... ok
----------------------
SHARK INTEGRAL PACKAGE
----------------------

Number of atoms                             ...     12
Number of basis functions                   ...    102
Number of shells                            ...     54
Maximum angular momentum                    ...      2
Integral batch strategy                     ... SHARK/LIBINT Hybrid
RI-J (if used) integral strategy            ... SPLIT-RIJ (Revised 2003 algorithm where possible)
Printlevel                                  ...      1
Contraction scheme used                     ... SEGMENTED contraction
Coulomb Range Separation                    ... NOT USED
Exchange Range Separation                   ... NOT USED
Finite Nucleus Model                        ... NOT USED
Auxiliary Coulomb fitting basis             ... AVAILABLE
   # of basis functions in Aux-J            ...    360
   # of shells in Aux-J                     ...    120
   Maximum angular momentum in Aux-J        ...      4
Auxiliary J/K fitting basis                 ... NOT available
Auxiliary Correlation fitting basis         ... NOT available
Auxiliary 'external' fitting basis          ... NOT available
Integral threshold                          ...     2.500000e-11
Primitive cut-off                           ...     2.500000e-12
Primitive pair pre-selection threshold      ...     2.500000e-12

Calculating pre-screening integrals         ... done (  0.1 sec) Dimension = 54
Organizing shell pair data                  ... done (  0.2 sec)
Shell pair information
Total number of shell pairs                 ...      1485
Shell pairs after pre-screening             ...      1302
Total number of primitive shell pairs       ...      5349
Primitive shell pairs kept                  ...      3429
          la=0 lb=0:    556 shell pairs
          la=1 lb=0:    400 shell pairs
          la=1 lb=1:     77 shell pairs
          la=2 lb=0:    180 shell pairs
          la=2 lb=1:     70 shell pairs
          la=2 lb=2:     19 shell pairs

Calculating one electron integrals          ... done (  0.0 sec)
Calculating RI/J V-Matrix + Cholesky decomp.... done (  0.4 sec)
Calculating Nuclear repulsion               ... done (  0.0 sec) ENN=    206.601968835078 Eh

SHARK setup successfully completed in   1.6 seconds

Maximum memory used throughout the entire GTOINT-calculation: 10.0 MB


           ************************************************************
           *        Program running with 4 parallel MPI-processes     *
           *              working on a common directory               *
           ************************************************************
-------------------------------------------------------------------------------
                                 ORCA SCF
-------------------------------------------------------------------------------

------------
SCF SETTINGS
------------
Hamiltonian:
 Density Functional     Method          .... DFT(GTOs)
 Exchange Functional    Exchange        .... PBE
   PBE kappa parameter   XKappa         ....  1.024500
   PBE mue parameter    XMuePBE         ....  0.123457
 Correlation Functional Correlation     .... PBE
   PBE beta parameter  CBetaPBE         ....  0.030000
 LDA part of GGA corr.  LDAOpt          .... PW91-LDA
 Gradients option       PostSCFGGA      .... off
 Hybrid DFT is turned on
   Fraction HF Exchange ScalHFX         ....  0.420000
   Scaling of DF-GGA-X  ScalDFX         ....  0.580000
   Scaling of DF-GGA-C  ScalDFC         ....  1.000000
   Scaling of DF-LDA-C  ScalLDAC        ....  1.000000
   Perturbative correction              ....  0.000000
   Density functional embedding theory  .... OFF
 RI-approximation to the Coulomb term is turned on
   Number of AuxJ basis functions       .... 360
   RIJ-ON(X) (HFX calculated with O(N)) .... on
   Number of AuxJ basis functions       .... 360
   RIJ-COSX (HFX calculated with COS-X)).... on


General Settings:
 Integral files         IntName         .... pbeh-3c
 Hartree-Fock type      HFTyp           .... RHF
 Total Charge           Charge          ....    0
 Multiplicity           Mult            ....    1
 Number of Electrons    NEL             ....   46
 Basis Dimension        Dim             ....  102
 Nuclear Repulsion      ENuc            ....    206.6019688351 Eh

Convergence Acceleration:
 DIIS                   CNVDIIS         .... on
   Start iteration      DIISMaxIt       ....    12
   Startup error        DIISStart       ....  0.200000
   # of expansion vecs  DIISMaxEq       ....     5
   Bias factor          DIISBfac        ....   1.050
   Max. coefficient     DIISMaxC        ....  10.000
 Trust-Rad. Augm. Hess. CNVTRAH         .... auto
   Auto Start mean grad. ratio tolernc. ....  1.125000
   Auto Start start iteration           ....    20
   Auto Start num. interpolation iter.  ....    10
   Max. Number of Micro iterations      ....    16
   Max. Number of Macro iterations      .... Maxiter - #DIIS iter
   Number of Davidson start vectors     ....     2
   Converg. threshold I  (grad. norm)   ....   1.000e-05
   Converg. threshold II (energy diff.) ....   1.000e-08
   Grad. Scal. Fac. for Micro threshold ....   0.100
   Minimum threshold for Micro iter.    ....   0.010
   NR start threshold (gradient norm)   ....   0.001
   Initial trust radius                 ....   0.400
   Minimum AH scaling param. (alpha)    ....   1.000
   Maximum AH scaling param. (alpha)    .... 1000.000
   Orbital update algorithm             .... Taylor
   White noise on init. David. guess    .... on
   Maximum white noise                  ....   0.010
   Quad. conv. algorithm                .... NR
   COSX micro iterations for RIJONX calc.... off
 SOSCF                  CNVSOSCF        .... on
   Start iteration      SOSCFMaxIt      ....   150
   Startup grad/error   SOSCFStart      ....  0.003300
 Level Shifting         CNVShift        .... on
   Level shift para.    LevelShift      ....    0.2500
   Turn off err/grad.   ShiftErr        ....    0.0010
 Zerner damping         CNVZerner       .... off
 Static damping         CNVDamp         .... on
   Fraction old density DampFac         ....    0.7000
   Max. Damping (<1)    DampMax         ....    0.9800
   Min. Damping (>=0)   DampMin         ....    0.0000
   Turn off err/grad.   DampErr         ....    0.1000
 Fernandez-Rico         CNVRico         .... off

SCF Procedure:
 Maximum # iterations   MaxIter         ....   125
 SCF integral mode      SCFMode         .... Direct
   Integral package                     .... SHARK and LIBINT hybrid scheme
 Reset frequency        DirectResetFreq ....    20
 Integral Threshold     Thresh          ....  2.500e-11 Eh
 Primitive CutOff       TCut            ....  2.500e-12 Eh

Convergence Tolerance:
 Convergence Check Mode ConvCheckMode   .... Total+1el-Energy
 Convergence forced     ConvForced      .... 0
 Energy Change          TolE            ....  1.000e-08 Eh
 1-El. energy change                    ....  1.000e-05 Eh
 Orbital Gradient       TolG            ....  1.000e-05
 Orbital Rotation angle TolX            ....  1.000e-05
 DIIS Error             TolErr          ....  5.000e-07


Diagonalization of the overlap matrix:
Smallest eigenvalue                        ... 1.253e-03
Time for diagonalization                   ...    0.056 sec
Threshold for overlap eigenvalues          ... 1.000e-08
Number of eigenvalues below threshold      ... 0
Time for construction of square roots      ...    0.110 sec
Total time needed                          ...    0.166 sec

--------------------------------
INITIAL GUESS: MINIMAL BASIS EHT
--------------------------------
The minimal basis has 36 functions
EHT matrix was diagonalized
Basis set overlap was calculated now projecting the orbitals
Using GuessMode=FMatrix for the initial guess
C*T matrix was formed
Effective Fockian was calculated
Effective Fockian was diagonalized
Initial density was built
                      ------------------
                      INITIAL GUESS DONE
                      ------------------
-------------------
DFT GRID GENERATION
-------------------

General Integration Accuracy     IntAcc      ... 4.959
Radial Grid Type                 RadialGrid  ... OptM3 with GC (2021)
Angular Grid (max. ang.)         AngularGrid ... 6 (Lebedev-590)
Angular grid pruning method      GridPruning ... 4 (adaptive)
Weight generation scheme         WeightScheme... Becke
Basis function cutoff            BFCut       ... 1.0000e-11
Integration weight cutoff        WCut        ... 1.0000e-14
Angular grids for H and He will be reduced by one unit
Partially contracted basis set               ... off
Rotationally invariant grid construction     ... off

Total number of grid points                  ...   140010
Total number of batches                      ...     2194
Average number of points per batch           ...       63
Average number of grid points per atom       ...    11668
Time for grid setup =    2.411 sec

--------------------
COSX GRID GENERATION
--------------------

GRIDX 1
-------
General Integration Accuracy     IntAcc      ... 4.020
Radial Grid Type                 RadialGrid  ... OptM3 with GC (2021)
Angular Grid (max. ang.)         AngularGrid ... 2 (Lebedev-110)
Angular grid pruning method      GridPruning ... 4 (adaptive)
Weight generation scheme         WeightScheme... Becke
Basis function cutoff            BFCut       ... 1.0000e-11
Integration weight cutoff        WCut        ... 1.0000e-14
Angular grids for H and He will be reduced by one unit
Partially contracted basis set               ... on
Rotationally invariant grid construction     ... off

Total number of grid points                  ...    15735
Total number of batches                      ...      252
Average number of points per batch           ...       62
Average number of grid points per atom       ...     1311
UseSFitting                                  ... on

GRIDX 2
-------
General Integration Accuracy     IntAcc      ... 4.338
Radial Grid Type                 RadialGrid  ... OptM3 with GC (2021)
Angular Grid (max. ang.)         AngularGrid ... 3 (Lebedev-194)
Angular grid pruning method      GridPruning ... 4 (adaptive)
Weight generation scheme         WeightScheme... Becke
Basis function cutoff            BFCut       ... 1.0000e-11
Integration weight cutoff        WCut        ... 1.0000e-14
Angular grids for H and He will be reduced by one unit
Partially contracted basis set               ... on
Rotationally invariant grid construction     ... off

Total number of grid points                  ...    34657
Total number of batches                      ...      546
Average number of points per batch           ...       63
Average number of grid points per atom       ...     2888
UseSFitting                                  ... on

GRIDX 3
-------
General Integration Accuracy     IntAcc      ... 4.871
Radial Grid Type                 RadialGrid  ... OptM3 with GC (2021)
Angular Grid (max. ang.)         AngularGrid ... 4 (Lebedev-302)
Angular grid pruning method      GridPruning ... 4 (adaptive)
Weight generation scheme         WeightScheme... Becke
Basis function cutoff            BFCut       ... 1.0000e-11
Integration weight cutoff        WCut        ... 1.0000e-14
Angular grids for H and He will be reduced by one unit
Partially contracted basis set               ... on
Rotationally invariant grid construction     ... off

Total number of grid points                  ...    66506
Total number of batches                      ...     1045
Average number of points per batch           ...       63
Average number of grid points per atom       ...     5542
UseSFitting                                  ... on

Time for X-Grid setup             =    3.093 sec

--------------
SCF ITERATIONS
--------------
ITER       Energy         Delta-E        Max-DP      RMS-DP      [F,P]     Damp
               ***  Starting incremental Fock matrix formation  ***
  0   -304.6106209852   0.000000000000 0.18570267  0.00713772  0.5301687 0.7000
  1   -305.0296024893  -0.418981504003 0.09565986  0.00406440  0.3041146 0.7000
  2   -305.2479148092  -0.218312319962 0.04710353  0.00227976  0.2133196 0.7000
                               ***Turning on DIIS***
  3   -305.3993368130  -0.151422003772 0.02743143  0.00152435  0.1496326 0.7000
  4   -305.5081093658  -0.108772552803 0.02031628  0.00114595  0.1049351 0.7000
  5   -305.5851066215  -0.076997255748 0.04768270  0.00283637  0.0734685 0.0000
  6   -305.7680712357  -0.182964614194 0.00383852  0.00015685  0.0037567 0.0000
                      *** Initiating the SOSCF procedure ***
                           *** Shutting down DIIS ***
                      *** Re-Reading the Fockian *** 
                      *** Removing any level shift *** 
ITER      Energy       Delta-E        Grad      Rot      Max-DP    RMS-DP
  7   -305.76816995  -0.0000987131  0.000579  0.000579  0.001932  0.000076
               *** Restarting incremental Fock matrix formation ***
  8   -305.76818589  -0.0000159439  0.000871  0.002072  0.001826  0.000060
  9   -305.76818536   0.0000005315  0.000874  0.000662  0.000939  0.000035
 10   -305.76819201  -0.0000066445  0.000065  0.000106  0.000184  0.000006
 11   -305.76819199   0.0000000201  0.000072  0.000063  0.000103  0.000003
 12   -305.76819207  -0.0000000887  0.000010  0.000023  0.000023  0.000001
 13   -305.76819207   0.0000000017  0.000015  0.000013  0.000013  0.000001
                  ***Gradient check signals convergence***
              ***Rediagonalizing the Fockian in SOSCF/NRSCF***

               *****************************************************
               *                     SUCCESS                       *
               *           SCF CONVERGED AFTER  14 CYCLES          *
               *****************************************************

Old exchange energy                            =    -16.467498484 Eh
New exchange energy                            =    -16.467498545 Eh
Exchange energy change after final integration =     -0.000000060 Eh
Total energy after final integration           =   -305.768192135 Eh
Final COS-X integration done in                =     2.176 sec

----------------
TOTAL SCF ENERGY
----------------

Total Energy       :         -305.76819214 Eh           -8320.37551 eV

Components:
Nuclear Repulsion  :          206.60196884 Eh            5621.92539 eV
Electronic Energy  :         -512.37016097 Eh          -13942.30089 eV
One Electron Energy:         -825.17705497 Eh          -22454.20922 eV
Two Electron Energy:          312.80689400 Eh            8511.90832 eV
Max COSX asymmetry :            0.00000087 Eh               0.00002 eV

Virial components:
Potential Energy   :         -609.28472994 Eh          -16579.48039 eV
Kinetic Energy     :          303.51653780 Eh            8259.10488 eV
Virial Ratio       :            2.00741856


DFT components:
N(Alpha)           :       22.999999670096 electrons
N(Beta)            :       22.999999670096 electrons
N(Total)           :       45.999999340193 electrons
E(X)               :      -21.910723812199 Eh       
E(C)               :       -1.997405084377 Eh       
E(XC)              :      -23.908128896575 Eh       
DFET-embed. en.    :        0.000000000000 Eh       

---------------
SCF CONVERGENCE
---------------

  Last Energy change         ...   -2.0362e-09  Tolerance :   1.0000e-08
  Last MAX-Density change    ...    1.4433e-15  Tolerance :   1.0000e-07
  Last RMS-Density change    ...    5.0110e-17  Tolerance :   5.0000e-09
  Last Orbital Gradient      ...    1.0400e-06  Tolerance :   1.0000e-05
  Last Orbital Rotation      ...    1.5472e-06  Tolerance :   1.0000e-05

             **** THE GBW FILE WAS UPDATED (pbeh-3c.gbw) ****
             **** DENSITY pbeh-3c.scfp WAS UPDATED ****
             **** ENERGY FILE WAS UPDATED (pbeh-3c.en.tmp) ****
             **** THE GBW FILE WAS UPDATED (pbeh-3c.gbw) ****
             **** DENSITY pbeh-3c.scfp WAS UPDATED ****
----------------
ORBITAL ENERGIES
----------------

  NO   OCC          E(Eh)            E(eV) 
   0   2.0000     -19.533170      -531.5246 
   1   2.0000     -19.484430      -530.1983 
   2   2.0000     -10.582935      -287.9763 
   3   2.0000     -10.472815      -284.9798 
   4   2.0000     -10.469907      -284.9006 
   5   2.0000     -10.445942      -284.2485 
   6   2.0000      -1.214178       -33.0395 
   7   2.0000      -1.119937       -30.4750 
   8   2.0000      -0.857289       -23.3280 
   9   2.0000      -0.845815       -23.0158 
  10   2.0000      -0.679255       -18.4835 
  11   2.0000      -0.648867       -17.6566 
  12   2.0000      -0.571513       -15.5517 
  13   2.0000      -0.558081       -15.1862 
  14   2.0000      -0.543413       -14.7870 
  15   2.0000      -0.530720       -14.4416 
  16   2.0000      -0.468388       -12.7455 
  17   2.0000      -0.453360       -12.3365 
  18   2.0000      -0.447844       -12.1865 
  19   2.0000      -0.372825       -10.1451 
  20   2.0000      -0.357193        -9.7197 
  21   2.0000      -0.351612        -9.5678 
  22   2.0000      -0.332426        -9.0458 
  23   0.0000       0.047379         1.2893 
  24   0.0000       0.050980         1.3872 
  25   0.0000       0.057283         1.5587 
  26   0.0000       0.152937         4.1616 
  27   0.0000       0.155927         4.2430 
  28   0.0000       0.170290         4.6338 
  29   0.0000       0.210201         5.7199 
  30   0.0000       0.218749         5.9525 
  31   0.0000       0.222982         6.0676 
  32   0.0000       0.247065         6.7230 
  33   0.0000       0.327503         8.9118 
  34   0.0000       0.374364        10.1870 
  35   0.0000       0.420516        11.4428 
  36   0.0000       0.498535        13.5658 
  37   0.0000       0.507139        13.7999 
  38   0.0000       0.511721        13.9246 
  39   0.0000       0.541071        14.7233 
  40   0.0000       0.573581        15.6079 
  41   0.0000       0.577626        15.7180 
  42   0.0000       0.583633        15.8815 
  43   0.0000       0.641265        17.4497 
  44   0.0000       0.642917        17.4947 
  45   0.0000       0.671800        18.2806 
  46   0.0000       0.682721        18.5778 
  47   0.0000       0.723708        19.6931 
  48   0.0000       0.793199        21.5840 
  49   0.0000       0.865377        23.5481 
  50   0.0000       0.915010        24.8987 
  51   0.0000       0.972642        26.4669 
  52   0.0000       0.975248        26.5378 
  53   0.0000       1.034713        28.1560 
  54   0.0000       1.042556        28.3694 
  55   0.0000       1.045213        28.4417 
  56   0.0000       1.082709        29.4620 
  57   0.0000       1.152170        31.3521 
  58   0.0000       1.177494        32.0413 
  59   0.0000       1.202236        32.7145 
  60   0.0000       1.208227        32.8775 
  61   0.0000       1.294439        35.2235 
  62   0.0000       1.424224        38.7551 
  63   0.0000       1.428229        38.8641 
  64   0.0000       1.454432        39.5771 
  65   0.0000       1.480914        40.2977 
  66   0.0000       1.538988        41.8780 
  67   0.0000       1.548398        42.1340 
  68   0.0000       1.580711        43.0133 
  69   0.0000       1.688489        45.9461 
  70   0.0000       1.729479        47.0615 
  71   0.0000       1.781201        48.4689 
  72   0.0000       1.797275        48.9063 
  73   0.0000       1.856602        50.5207 
  74   0.0000       1.862116        50.6708 
  75   0.0000       1.942176        52.8493 
  76   0.0000       1.970393        53.6171 
  77   0.0000       1.979594        53.8675 
  78   0.0000       2.004895        54.5560 
  79   0.0000       2.032844        55.3165 
  80   0.0000       2.076160        56.4952 
  81   0.0000       2.128960        57.9319 
  82   0.0000       2.264749        61.6270 
  83   0.0000       2.285902        62.2026 
  84   0.0000       2.382323        64.8263 
  85   0.0000       2.515701        68.4557 
  86   0.0000       2.516398        68.4747 
  87   0.0000       2.522778        68.6483 
  88   0.0000       2.561849        69.7114 
  89   0.0000       2.620692        71.3127 
  90   0.0000       2.720526        74.0293 
  91   0.0000       2.775278        75.5191 
  92   0.0000       2.903341        79.0039 
  93   0.0000       3.003461        81.7283 
  94   0.0000       3.168864        86.2292 
  95   0.0000       3.379734        91.9672 
  96   0.0000      13.331352       362.7645 
  97   0.0000      13.652090       371.4922 
  98   0.0000      14.063322       382.6825 
  99   0.0000      14.376772       391.2118 
 100   0.0000      25.570833       695.8177 
 101   0.0000      25.705851       699.4918 

                    ********************************
                    * MULLIKEN POPULATION ANALYSIS *
                    ********************************

-----------------------
MULLIKEN ATOMIC CHARGES
-----------------------
   0 C :   -0.259582
   1 H :    0.287615
   2 C :   -0.264745
   3 H :    0.247521
   4 C :    0.508839
   5 O :   -0.411422
   6 O :   -0.597048
   7 H :    0.464198
   8 C :   -0.738432
   9 H :    0.255269
  10 H :    0.253916
  11 H :    0.253871
Sum of atomic charges:   -0.0000000

--------------------------------
MULLIKEN REDUCED ORBITAL CHARGES
--------------------------------
  0 C s       :     3.354111  s :     3.354111
      pz      :     0.971512  p :     2.879461
      px      :     0.945100
      py      :     0.962849
      dz2     :     0.004261  d :     0.026010
      dxz     :     0.004708
      dyz     :     0.004777
      dx2y2   :     0.005832
      dxy     :     0.006431
  1 H s       :     0.712385  s :     0.712385
  2 C s       :     3.337903  s :     3.337903
      pz      :     0.988054  p :     2.901612
      px      :     0.939707
      py      :     0.973851
      dz2     :     0.003829  d :     0.025231
      dxz     :     0.004830
      dyz     :     0.004489
      dx2y2   :     0.005682
      dxy     :     0.006400
  3 H s       :     0.752479  s :     0.752479
  4 C s       :     2.971883  s :     2.971883
      pz      :     0.755956  p :     2.383047
      px      :     0.847914
      py      :     0.779176
      dz2     :     0.021858  d :     0.136231
      dxz     :     0.025696
      dyz     :     0.020321
      dx2y2   :     0.028230
      dxy     :     0.040127
  5 O s       :     3.758920  s :     3.758920
      pz      :     1.426122  p :     4.622594
      px      :     1.780325
      py      :     1.416147
      dz2     :     0.007767  d :     0.029908
      dxz     :     0.002744
      dyz     :     0.008219
      dx2y2   :     0.006454
      dxy     :     0.004725
  6 O s       :     3.804155  s :     3.804155
      pz      :     1.746627  p :     4.762792
      px      :     1.320516
      py      :     1.695649
      dz2     :     0.004764  d :     0.030101
      dxz     :     0.005446
      dyz     :     0.005383
      dx2y2   :     0.004965
      dxy     :     0.009544
  7 H s       :     0.535802  s :     0.535802
  8 C s       :     3.408171  s :     3.408171
      pz      :     1.158333  p :     3.296585
      px      :     0.984861
      py      :     1.153390
      dz2     :     0.010122  d :     0.033677
      dxz     :     0.004393
      dyz     :     0.003762
      dx2y2   :     0.008553
      dxy     :     0.006846
  9 H s       :     0.744731  s :     0.744731
 10 H s       :     0.746084  s :     0.746084
 11 H s       :     0.746129  s :     0.746129


                     *******************************
                     * LOEWDIN POPULATION ANALYSIS *
                     *******************************

----------------------
LOEWDIN ATOMIC CHARGES
----------------------
   0 C :   -0.165523
   1 H :    0.183128
   2 C :   -0.174932
   3 H :    0.167751
   4 C :    0.134649
   5 O :   -0.245813
   6 O :   -0.306358
   7 H :    0.332542
   8 C :   -0.390096
   9 H :    0.151025
  10 H :    0.156846
  11 H :    0.156780

-------------------------------
LOEWDIN REDUCED ORBITAL CHARGES
-------------------------------
  0 C s       :     3.006531  s :     3.006531
      pz      :     1.012837  p :     3.110288
      px      :     1.053735
      py      :     1.043716
      dz2     :     0.007769  d :     0.048704
      dxz     :     0.009057
      dyz     :     0.008719
      dx2y2   :     0.010931
      dxy     :     0.012227
  1 H s       :     0.816872  s :     0.816872
  2 C s       :     2.996878  s :     2.996878
      pz      :     1.027158  p :     3.130497
      px      :     1.048890
      py      :     1.054449
      dz2     :     0.007236  d :     0.047557
      dxz     :     0.009045
      dyz     :     0.008590
      dx2y2   :     0.010609
      dxy     :     0.012077
  3 H s       :     0.832249  s :     0.832249
  4 C s       :     2.834965  s :     2.834965
      pz      :     0.834203  p :     2.724880
      px      :     0.975531
      py      :     0.915147
      dz2     :     0.044421  d :     0.305507
      dxz     :     0.057870
      dyz     :     0.048535
      dx2y2   :     0.061995
      dxy     :     0.092685
  5 O s       :     3.521254  s :     3.521254
      pz      :     1.443908  p :     4.668907
      px      :     1.761362
      py      :     1.463637
      dz2     :     0.009920  d :     0.055653
      dxz     :     0.005599
      dyz     :     0.018323
      dx2y2   :     0.011827
      dxy     :     0.009983
  6 O s       :     3.499754  s :     3.499754
      pz      :     1.734817  p :     4.753708
      px      :     1.326556
      py      :     1.692335
      dz2     :     0.007156  d :     0.052896
      dxz     :     0.010260
      dyz     :     0.007494
      dx2y2   :     0.010812
      dxy     :     0.017173
  7 H s       :     0.667458  s :     0.667458
  8 C s       :     2.961641  s :     2.961641
      pz      :     1.142538  p :     3.365210
      px      :     1.083119
      py      :     1.139553
      dz2     :     0.017730  d :     0.063245
      dxz     :     0.009078
      dyz     :     0.005744
      dx2y2   :     0.016752
      dxy     :     0.013942
  9 H s       :     0.848975  s :     0.848975
 10 H s       :     0.843154  s :     0.843154
 11 H s       :     0.843220  s :     0.843220


                      *****************************
                      * MAYER POPULATION ANALYSIS *
                      *****************************

  NA   - Mulliken gross atomic population
  ZA   - Total nuclear charge
  QA   - Mulliken gross atomic charge
  VA   - Mayer's total valence
  BVA  - Mayer's bonded valence
  FA   - Mayer's free valence

  ATOM       NA         ZA         QA         VA         BVA        FA
  0 C      6.2596     6.0000    -0.2596     3.7281     3.7281     0.0000
  1 H      0.7124     1.0000     0.2876     0.9044     0.9044     0.0000
  2 C      6.2647     6.0000    -0.2647     3.7539     3.7539    -0.0000
  3 H      0.7525     1.0000     0.2475     0.9153     0.9153     0.0000
  4 C      5.4912     6.0000     0.5088     4.1228     4.1228    -0.0000
  5 O      8.4114     8.0000    -0.4114     2.1932     2.1932    -0.0000
  6 O      8.5970     8.0000    -0.5970     1.9751     1.9751    -0.0000
  7 H      0.5358     1.0000     0.4642     0.7899     0.7899    -0.0000
  8 C      6.7384     6.0000    -0.7384     3.6687     3.6687    -0.0000
  9 H      0.7447     1.0000     0.2553     0.9023     0.9023    -0.0000
 10 H      0.7461     1.0000     0.2539     0.9006     0.9006    -0.0000
 11 H      0.7461     1.0000     0.2539     0.9006     0.9006    -0.0000

  Mayer bond orders larger than 0.100000
B(  0-C ,  1-H ) :   0.8918 B(  0-C ,  2-C ) :   2.7991 B(  2-C ,  3-H ) :   0.9254 
B(  4-C ,  5-O ) :   2.0382 B(  4-C ,  6-O ) :   1.1703 B(  4-C ,  8-C ) :   0.9397 
B(  6-O ,  7-H ) :   0.7050 B(  8-C ,  9-H ) :   0.9181 B(  8-C , 10-H ) :   0.9056 
B(  8-C , 11-H ) :   0.9057 

-------
TIMINGS
-------

Total SCF time: 0 days 0 hours 1 min 10 sec 

Total time                  ....      70.614 sec
Sum of individual times     ....      64.181 sec  ( 90.9%)

Fock matrix formation       ....      54.062 sec  ( 76.6%)
  Split-RI-J                ....       6.396 sec  ( 11.8% of F)
  Chain of spheres X        ....      16.078 sec  ( 29.7% of F)
  XC integration            ....      15.256 sec  ( 28.2% of F)
    Basis function eval.    ....       2.136 sec  ( 14.0% of XC)
    Density eval.           ....       1.327 sec  (  8.7% of XC)
    XC-Functional eval.     ....       1.256 sec  (  8.2% of XC)
    XC-Potential eval.      ....       0.617 sec  (  4.0% of XC)
Diagonalization             ....       0.909 sec  (  1.3%)
Density matrix formation    ....       0.066 sec  (  0.1%)
Population analysis         ....       1.075 sec  (  1.5%)
Initial guess               ....       0.007 sec  (  0.0%)
Orbital Transformation      ....       0.000 sec  (  0.0%)
Orbital Orthonormalization  ....       0.000 sec  (  0.0%)
DIIS solution               ....       1.982 sec  (  2.8%)
SOSCF solution              ....       0.576 sec  (  0.8%)
Grid generation             ....       5.504 sec  (  7.8%)

Maximum memory used throughout the entire SCF-calculation: 50.5 MB


-------------------------------------------------------------------------------
                          DFT DISPERSION CORRECTION                            
                                                                               
                              DFTD3 V3.1  Rev 1                                
                          USING Becke-Johnson damping                          
-------------------------------------------------------------------------------
The PBEh-3c composite method is recognized
Using three-body term ABC
Active option DFTDOPT                   ...         4   

molecular C6(AA) [au] = 1395.493477 


            DFT-D V3
 parameters
 s6 scaling factor         :     1.0000 
 a1 scaling factor         :     0.4860 
 s8 scaling factor         :     0.0000 
 a2 scaling factor         :     4.5000 
 Damping factor alpha9(ATM):    16.0000 
 ad hoc parameters k1-k3   :    16.0000     1.3333    -4.0000 

 Edisp/kcal,au: -2.630259679930  -0.004191585160 
 E6   /kcal   :  -2.625797348 
 E8   /kcal   :  -0.000000000 
 E6(ABC)      :  -0.004462332 
 % E8         :   0.000000000 
 % E6(ABC)    :   0.169653660 

-------------------------   ----------------
Dispersion correction           -0.004191585
-------------------------   ----------------

------------------   -----------------
gCP correction             0.019614974
------------------   -----------------

-------------------------   --------------------
FINAL SINGLE POINT ENERGY      -305.752768746336
-------------------------   --------------------


                            ***************************************
                            *     ORCA property calculations      *
                            ***************************************

                                    ---------------------
                                    Active property flags
                                    ---------------------
   (+) Dipole Moment


------------------------------------------------------------------------------
                       ORCA ELECTRIC PROPERTIES CALCULATION
------------------------------------------------------------------------------

Dipole Moment Calculation                       ... on
Quadrupole Moment Calculation                   ... off
Polarizability Calculation                      ... off
GBWName                                         ... pbeh-3c.gbw
Electron density                                ... pbeh-3c.scfp
The origin for moment calculation is the CENTER OF MASS  = (-0.313621,  0.259164 -0.188732)

-------------
DIPOLE MOMENT
-------------
                                X             Y             Z
Electronic contribution:     -2.49313       1.19276      -0.86812
Nuclear contribution   :      2.43039      -1.68430       1.22741
                        -----------------------------------------
Total Dipole Moment    :     -0.06273      -0.49154       0.35929
                        -----------------------------------------
Magnitude (a.u.)       :      0.61207
Magnitude (Debye)      :      1.55577



--------------------
Rotational spectrum 
--------------------
 
Rotational constants in cm-1:     0.301978     0.050509     0.043619 
Rotational constants in MHz :  9053.073528  1514.224352  1307.661821 

 Dipole components along the rotational axes: 
x,y,z [a.u.] :    -0.038553    -0.610858    -0.000242 
x,y,z [Debye]:    -0.097993    -1.552679    -0.000615 

 

Timings for individual modules:

Sum of individual times         ...       73.315 sec (=   1.222 min)
GTO integral calculation        ...        2.290 sec (=   0.038 min)   3.1 %
SCF iterations                  ...       71.025 sec (=   1.184 min)  96.9 %
                             ****ORCA TERMINATED NORMALLY****
TOTAL RUN TIME: 0 days 0 hours 1 minutes 18 seconds 796 msec
