
                                 *****************
                                 * O   R   C   A *
                                 *****************

                                            #,                                       
                                            ###                                      
                                            ####                                     
                                            #####                                    
                                            ######                                   
                                           ########,                                 
                                     ,,################,,,,,                         
                               ,,#################################,,                 
                          ,,##########################################,,             
                       ,#########################################, ''#####,          
                    ,#############################################,,   '####,        
                  ,##################################################,,,,####,       
                ,###########''''           ''''###############################       
              ,#####''   ,,,,##########,,,,          '''####'''          '####       
            ,##' ,,,,###########################,,,                        '##       
           ' ,,###''''                  '''############,,,                           
         ,,##''                                '''############,,,,        ,,,,,,###''
      ,#''                                            '''#######################'''  
     '                                                          ''''####''''         
             ,#######,   #######,   ,#######,      ##                                
            ,#'     '#,  ##    ##  ,#'     '#,    #''#        ######   ,####,        
            ##       ##  ##   ,#'  ##            #'  '#       #        #'  '#        
            ##       ##  #######   ##           ,######,      #####,   #    #        
            '#,     ,#'  ##    ##  '#,     ,#' ,#      #,         ##   #,  ,#        
             '#######'   ##     ##  '#######'  #'      '#     #####' # '####'        



                  #######################################################
                  #                        -***-                        #
                  #          Department of theory and spectroscopy      #
                  #    Directorship and core code : Frank Neese         #
                  #        Max Planck Institute fuer Kohlenforschung    #
                  #                Kaiser Wilhelm Platz 1               #
                  #                 D-45470 Muelheim/Ruhr               #
                  #                      Germany                        #
                  #                                                     #
                  #                  All rights reserved                #
                  #                        -***-                        #
                  #######################################################


                         Program Version 5.0.3 -  RELEASE  -


 With contributions from (in alphabetic order):
   Daniel Aravena         : Magnetic Suceptibility
   Michael Atanasov       : Ab Initio Ligand Field Theory (pilot matlab implementation)
   Alexander A. Auer      : GIAO ZORA, VPT2 properties, NMR spectrum
   Ute Becker             : Parallelization
   Giovanni Bistoni       : ED, misc. LED, open-shell LED, HFLD
   Martin Brehm           : Molecular dynamics
   Dmytro Bykov           : SCF Hessian
   Vijay G. Chilkuri      : MRCI spin determinant printing, contributions to CSF-ICE
   Dipayan Datta          : RHF DLPNO-CCSD density
   Achintya Kumar Dutta   : EOM-CC, STEOM-CC
   Dmitry Ganyushin       : Spin-Orbit,Spin-Spin,Magnetic field MRCI
   Miquel Garcia          : C-PCM and meta-GGA Hessian, CC/C-PCM, Gaussian charge scheme
   Yang Guo               : DLPNO-NEVPT2, F12-NEVPT2, CIM, IAO-localization
   Andreas Hansen         : Spin unrestricted coupled pair/coupled cluster methods
   Benjamin Helmich-Paris : MC-RPA, TRAH-SCF, COSX integrals
   Lee Huntington         : MR-EOM, pCC
   Robert Izsak           : Overlap fitted RIJCOSX, COSX-SCS-MP3, EOM
   Marcus Kettner         : VPT2
   Christian Kollmar      : KDIIS, OOCD, Brueckner-CCSD(T), CCSD density, CASPT2, CASPT2-K
   Simone Kossmann        : Meta GGA functionals, TD-DFT gradient, OOMP2, MP2 Hessian
   Martin Krupicka        : Initial AUTO-CI
   Lucas Lang             : DCDCAS
   Marvin Lechner         : AUTO-CI (C++ implementation), FIC-MRCC
   Dagmar Lenk            : GEPOL surface, SMD
   Dimitrios Liakos       : Extrapolation schemes; Compound Job, initial MDCI parallelization
   Dimitrios Manganas     : Further ROCIS development; embedding schemes
   Dimitrios Pantazis     : SARC Basis sets
   Anastasios Papadopoulos: AUTO-CI, single reference methods and gradients
   Taras Petrenko         : DFT Hessian,TD-DFT gradient, ASA, ECA, R-Raman, ABS, FL, XAS/XES, NRVS
   Peter Pinski           : DLPNO-MP2, DLPNO-MP2 Gradient
   Christoph Reimann      : Effective Core Potentials
   Marius Retegan         : Local ZFS, SOC
   Christoph Riplinger    : Optimizer, TS searches, QM/MM, DLPNO-CCSD(T), (RO)-DLPNO pert. Triples
   Tobias Risthaus        : Range-separated hybrids, TD-DFT gradient, RPA, STAB
   Michael Roemelt        : Original ROCIS implementation
   Masaaki Saitow         : Open-shell DLPNO-CCSD energy and density
   Barbara Sandhoefer     : DKH picture change effects
   Avijit Sen             : IP-ROCIS
   Kantharuban Sivalingam : CASSCF convergence, NEVPT2, FIC-MRCI
   Bernardo de Souza      : ESD, SOC TD-DFT
   Georgi Stoychev        : AutoAux, RI-MP2 NMR, DLPNO-MP2 response
   Willem Van den Heuvel  : Paramagnetic NMR
   Boris Wezisla          : Elementary symmetry handling
   Frank Wennmohs         : Technical directorship


 We gratefully acknowledge several colleagues who have allowed us to
 interface, adapt or use parts of their codes:
   Stefan Grimme, W. Hujo, H. Kruse, P. Pracht,  : VdW corrections, initial TS optimization,
                  C. Bannwarth, S. Ehlert          DFT functionals, gCP, sTDA/sTD-DF
   Ed Valeev, F. Pavosevic, A. Kumar             : LibInt (2-el integral package), F12 methods
   Garnet Chan, S. Sharma, J. Yang, R. Olivares  : DMRG
   Ulf Ekstrom                                   : XCFun DFT Library
   Mihaly Kallay                                 : mrcc  (arbitrary order and MRCC methods)
   Jiri Pittner, Ondrej Demel                    : Mk-CCSD
   Frank Weinhold                                : gennbo (NPA and NBO analysis)
   Christopher J. Cramer and Donald G. Truhlar   : smd solvation model
   Lars Goerigk                                  : TD-DFT with DH, B97 family of functionals
   V. Asgeirsson, H. Jonsson                     : NEB implementation
   FAccTs GmbH                                   : IRC, NEB, NEB-TS, DLPNO-Multilevel, CI-OPT
                                                   MM, QMMM, 2- and 3-layer-ONIOM, Crystal-QMMM,
                                                   LR-CPCM, SF, NACMEs, symmetry and pop. for TD-DFT,
                                                   nearIR, NL-DFT gradient (VV10), updates on ESD,
                                                   ML-optimized integration grids
   S Lehtola, MJT Oliveira, MAL Marques          : LibXC Library
   Liviu Ungur et al                             : ANISO software


 Your calculation uses the libint2 library for the computation of 2-el integrals
 For citations please refer to: http://libint.valeyev.net

 Your ORCA version has been built with support for libXC version: 5.1.0
 For citations please refer to: https://tddft.org/programs/libxc/

 This ORCA versions uses:
   CBLAS   interface :  Fast vector & matrix operations
   LAPACKE interface :  Fast linear algebra routines
   SCALAPACK package :  Parallel linear algebra routines
   Shared memory     :  Shared parallel matrices
   BLAS/LAPACK       :  OpenBLAS 0.3.15  USE64BITINT DYNAMIC_ARCH NO_AFFINITY Haswell SINGLE_THREADED
        Core in use  :  Haswell
   Copyright (c) 2011-2014, The OpenBLAS Project




***************************************
The coordinates will be read from file: E27.xyz
***************************************


Your calculation utilizes the geometrical counterpoise correction gCP
Please cite in your paper:
H.Kruse, S. Grimme J.Chem.Phys., 136, (2012), 154101 
   

Your calculation utilizes the atom-pairwise dispersion correction
with the Becke-Johnson damping scheme (D3BJ)
Cite in your paper:
S.Grimme, S.Ehrlich, L.Goerigk, J Comput Chem, (2011), 32, 1456–1465 
S.Grimme, J.Antony, S.Ehrlich and H.Krieg, J.Chem.Phys., 132, (2010), 154104 
   

Your calculation employs the composite approach PBEh-3c.
Please cite in your paper:
S. Grimme, J. G. Brandenburg, C. Bannwarth, A. Hansen J.Chem.Phys., 143, (2015), 054107 
   

================================================================================

----- Orbital basis set information -----
Your calculation utilizes the basis: def2-mSVP

----- AuxJ basis set information -----
Your calculation utilizes the auxiliary basis: def2/J
   F. Weigend, Phys. Chem. Chem. Phys. 8, 1057 (2006).

================================================================================
                                        WARNINGS
                       Please study these warnings very carefully!
================================================================================


INFO   : the flag for use of the SHARK integral package has been found!

================================================================================
                                       INPUT FILE
================================================================================
NAME = pbeh-3c.inp
|  1> ! PBEh-3c def2/J TightSCF DefGrid3
|  2> 
|  3> %maxcore 60000
|  4> 
|  5> %pal
|  6> nprocs 4
|  7> end
|  8> 
|  9> *xyzfile 0 1 E27.xyz
| 10> 
| 11>                          ****END OF INPUT****
================================================================================

                       ****************************
                       * Single Point Calculation *
                       ****************************

---------------------------------
CARTESIAN COORDINATES (ANGSTROEM)
---------------------------------
  C      0.663498   -0.007856    0.000000
  N     -0.840392   -0.017091    0.000000
  O     -1.397769   -0.004253   -1.086386
  O     -1.397769   -0.004253    1.086386
  H      1.002503   -0.502244    0.904672
  H      0.967426    1.037942    0.000000
  H      1.002503   -0.502244   -0.904672

----------------------------
CARTESIAN COORDINATES (A.U.)
----------------------------
  NO LB      ZA    FRAG     MASS         X           Y           Z
   0 C     6.0000    0    12.011    1.253829   -0.014846    0.000000
   1 N     7.0000    0    14.007   -1.588111   -0.032298    0.000000
   2 O     8.0000    0    15.999   -2.641400   -0.008037   -2.052972
   3 O     8.0000    0    15.999   -2.641400   -0.008037    2.052972
   4 H     1.0000    0     1.008    1.894455   -0.949104    1.709582
   5 H     1.0000    0     1.008    1.828171    1.961426    0.000000
   6 H     1.0000    0     1.008    1.894455   -0.949104   -1.709582

--------------------------------
INTERNAL COORDINATES (ANGSTROEM)
--------------------------------
 C      0   0   0     0.000000000000     0.00000000     0.00000000
 N      1   0   0     1.503918154611     0.00000000     0.00000000
 O      2   1   0     1.221093017295   117.15403129     0.00000000
 O      2   1   3     1.221093017295   117.15403129   181.71505489
 H      1   2   3     1.085252961066   108.03335746   207.89929450
 H      1   2   3     1.089066664202   106.55668752    89.14247255
 H      1   2   3     1.085252961066   108.03335746   330.38565060

---------------------------
INTERNAL COORDINATES (A.U.)
---------------------------
 C      0   0   0     0.000000000000     0.00000000     0.00000000
 N      1   0   0     2.841993440047     0.00000000     0.00000000
 O      2   1   0     2.307531386731   117.15403129     0.00000000
 O      2   1   3     2.307531386731   117.15403129   181.71505489
 H      1   2   3     2.050830882442   108.03335746   207.89929450
 H      1   2   3     2.058037736925   106.55668752    89.14247255
 H      1   2   3     2.050830882442   108.03335746   330.38565060

---------------------
BASIS SET INFORMATION
---------------------
There are 4 groups of distinct atoms

 Group   1 Type C   : 8s4p1d contracted to 4s2p1d pattern {5111/31/1}
 Group   2 Type N   : 8s4p1d contracted to 4s2p1d pattern {5111/31/1}
 Group   3 Type O   : 8s4p1d contracted to 4s2p1d pattern {5111/31/1}
 Group   4 Type H   : 4s contracted to 2s pattern {31}

Atom   0C    basis set group =>   1
Atom   1N    basis set group =>   2
Atom   2O    basis set group =>   3
Atom   3O    basis set group =>   3
Atom   4H    basis set group =>   4
Atom   5H    basis set group =>   4
Atom   6H    basis set group =>   4
---------------------------------
AUXILIARY/J BASIS SET INFORMATION
---------------------------------
There are 4 groups of distinct atoms

 Group   1 Type C   : 12s5p4d2f1g contracted to 6s4p3d1f1g pattern {711111/2111/211/2/1}
 Group   2 Type N   : 12s5p4d2f1g contracted to 6s4p3d1f1g pattern {711111/2111/211/2/1}
 Group   3 Type O   : 12s5p4d2f1g contracted to 6s4p3d1f1g pattern {711111/2111/211/2/1}
 Group   4 Type H   : 5s2p1d contracted to 3s1p1d pattern {311/2/1}

Atom   0C    basis set group =>   1
Atom   1N    basis set group =>   2
Atom   2O    basis set group =>   3
Atom   3O    basis set group =>   3
Atom   4H    basis set group =>   4
Atom   5H    basis set group =>   4
Atom   6H    basis set group =>   4


           ************************************************************
           *        Program running with 4 parallel MPI-processes     *
           *              working on a common directory               *
           ************************************************************
------------------------------------------------------------------------------
                           ORCA GTO INTEGRAL CALCULATION
                           -- RI-GTO INTEGRALS CHOSEN --
------------------------------------------------------------------------------
------------------------------------------------------------------------------
                   ___                                                        
                  /   \      - P O W E R E D   B Y -                         
                 /     \                                                     
                 |  |  |   _    _      __       _____    __    __             
                 |  |  |  | |  | |    /  \     |  _  \  |  |  /  |          
                  \  \/   | |  | |   /    \    | | | |  |  | /  /          
                 / \  \   | |__| |  /  /\  \   | |_| |  |  |/  /          
                |  |  |   |  __  | /  /__\  \  |    /   |      \           
                |  |  |   | |  | | |   __   |  |    \   |  |\   \          
                \     /   | |  | | |  |  |  |  | |\  \  |  | \   \       
                 \___/    |_|  |_| |__|  |__|  |_| \__\ |__|  \__/        
                                                                              
                      - O R C A' S   B I G   F R I E N D -                    
                                      &                                       
                       - I N T E G R A L  F E E D E R -                       
                                                                              
 v1 FN, 2020, v2 2021                                                         
------------------------------------------------------------------------------


Reading SHARK input file pbeh-3c.SHARKINP.tmp ... ok
----------------------
SHARK INTEGRAL PACKAGE
----------------------

Number of atoms                             ...      7
Number of basis functions                   ...     66
Number of shells                            ...     34
Maximum angular momentum                    ...      2
Integral batch strategy                     ... SHARK/LIBINT Hybrid
RI-J (if used) integral strategy            ... SPLIT-RIJ (Revised 2003 algorithm where possible)
Printlevel                                  ...      1
Contraction scheme used                     ... SEGMENTED contraction
Coulomb Range Separation                    ... NOT USED
Exchange Range Separation                   ... NOT USED
Finite Nucleus Model                        ... NOT USED
Auxiliary Coulomb fitting basis             ... AVAILABLE
   # of basis functions in Aux-J            ...    229
   # of shells in Aux-J                     ...     75
   Maximum angular momentum in Aux-J        ...      4
Auxiliary J/K fitting basis                 ... NOT available
Auxiliary Correlation fitting basis         ... NOT available
Auxiliary 'external' fitting basis          ... NOT available
Integral threshold                          ...     2.500000e-11
Primitive cut-off                           ...     2.500000e-12
Primitive pair pre-selection threshold      ...     2.500000e-12

Calculating pre-screening integrals         ... done (  0.0 sec) Dimension = 34
Organizing shell pair data                  ... done (  0.3 sec)
Shell pair information
Total number of shell pairs                 ...       595
Shell pairs after pre-screening             ...       579
Total number of primitive shell pairs       ...      2141
Primitive shell pairs kept                  ...      1662
          la=0 lb=0:    237 shell pairs
          la=1 lb=0:    176 shell pairs
          la=1 lb=1:     36 shell pairs
          la=2 lb=0:     88 shell pairs
          la=2 lb=1:     32 shell pairs
          la=2 lb=2:     10 shell pairs

Calculating one electron integrals          ... done (  0.0 sec)
Calculating RI/J V-Matrix + Cholesky decomp.... done (  0.4 sec)
Calculating Nuclear repulsion               ... done (  0.1 sec) ENN=    124.783430163428 Eh

SHARK setup successfully completed in   1.5 seconds

Maximum memory used throughout the entire GTOINT-calculation: 9.3 MB


           ************************************************************
           *        Program running with 4 parallel MPI-processes     *
           *              working on a common directory               *
           ************************************************************
-------------------------------------------------------------------------------
                                 ORCA SCF
-------------------------------------------------------------------------------

------------
SCF SETTINGS
------------
Hamiltonian:
 Density Functional     Method          .... DFT(GTOs)
 Exchange Functional    Exchange        .... PBE
   PBE kappa parameter   XKappa         ....  1.024500
   PBE mue parameter    XMuePBE         ....  0.123457
 Correlation Functional Correlation     .... PBE
   PBE beta parameter  CBetaPBE         ....  0.030000
 LDA part of GGA corr.  LDAOpt          .... PW91-LDA
 Gradients option       PostSCFGGA      .... off
 Hybrid DFT is turned on
   Fraction HF Exchange ScalHFX         ....  0.420000
   Scaling of DF-GGA-X  ScalDFX         ....  0.580000
   Scaling of DF-GGA-C  ScalDFC         ....  1.000000
   Scaling of DF-LDA-C  ScalLDAC        ....  1.000000
   Perturbative correction              ....  0.000000
   Density functional embedding theory  .... OFF
 RI-approximation to the Coulomb term is turned on
   Number of AuxJ basis functions       .... 229
   RIJ-ON(X) (HFX calculated with O(N)) .... on
   Number of AuxJ basis functions       .... 229
   RIJ-COSX (HFX calculated with COS-X)).... on


General Settings:
 Integral files         IntName         .... pbeh-3c
 Hartree-Fock type      HFTyp           .... RHF
 Total Charge           Charge          ....    0
 Multiplicity           Mult            ....    1
 Number of Electrons    NEL             ....   32
 Basis Dimension        Dim             ....   66
 Nuclear Repulsion      ENuc            ....    124.7834301634 Eh

Convergence Acceleration:
 DIIS                   CNVDIIS         .... on
   Start iteration      DIISMaxIt       ....    12
   Startup error        DIISStart       ....  0.200000
   # of expansion vecs  DIISMaxEq       ....     5
   Bias factor          DIISBfac        ....   1.050
   Max. coefficient     DIISMaxC        ....  10.000
 Trust-Rad. Augm. Hess. CNVTRAH         .... auto
   Auto Start mean grad. ratio tolernc. ....  1.125000
   Auto Start start iteration           ....    20
   Auto Start num. interpolation iter.  ....    10
   Max. Number of Micro iterations      ....    16
   Max. Number of Macro iterations      .... Maxiter - #DIIS iter
   Number of Davidson start vectors     ....     2
   Converg. threshold I  (grad. norm)   ....   1.000e-05
   Converg. threshold II (energy diff.) ....   1.000e-08
   Grad. Scal. Fac. for Micro threshold ....   0.100
   Minimum threshold for Micro iter.    ....   0.010
   NR start threshold (gradient norm)   ....   0.001
   Initial trust radius                 ....   0.400
   Minimum AH scaling param. (alpha)    ....   1.000
   Maximum AH scaling param. (alpha)    .... 1000.000
   Orbital update algorithm             .... Taylor
   White noise on init. David. guess    .... on
   Maximum white noise                  ....   0.010
   Quad. conv. algorithm                .... NR
   COSX micro iterations for RIJONX calc.... off
 SOSCF                  CNVSOSCF        .... on
   Start iteration      SOSCFMaxIt      ....   150
   Startup grad/error   SOSCFStart      ....  0.003300
 Level Shifting         CNVShift        .... on
   Level shift para.    LevelShift      ....    0.2500
   Turn off err/grad.   ShiftErr        ....    0.0010
 Zerner damping         CNVZerner       .... off
 Static damping         CNVDamp         .... on
   Fraction old density DampFac         ....    0.7000
   Max. Damping (<1)    DampMax         ....    0.9800
   Min. Damping (>=0)   DampMin         ....    0.0000
   Turn off err/grad.   DampErr         ....    0.1000
 Fernandez-Rico         CNVRico         .... off

SCF Procedure:
 Maximum # iterations   MaxIter         ....   125
 SCF integral mode      SCFMode         .... Direct
   Integral package                     .... SHARK and LIBINT hybrid scheme
 Reset frequency        DirectResetFreq ....    20
 Integral Threshold     Thresh          ....  2.500e-11 Eh
 Primitive CutOff       TCut            ....  2.500e-12 Eh

Convergence Tolerance:
 Convergence Check Mode ConvCheckMode   .... Total+1el-Energy
 Convergence forced     ConvForced      .... 0
 Energy Change          TolE            ....  1.000e-08 Eh
 1-El. energy change                    ....  1.000e-05 Eh
 Orbital Gradient       TolG            ....  1.000e-05
 Orbital Rotation angle TolX            ....  1.000e-05
 DIIS Error             TolErr          ....  5.000e-07


Diagonalization of the overlap matrix:
Smallest eigenvalue                        ... 9.711e-03
Time for diagonalization                   ...    0.001 sec
Threshold for overlap eigenvalues          ... 1.000e-08
Number of eigenvalues below threshold      ... 0
Time for construction of square roots      ...    0.146 sec
Total time needed                          ...    0.151 sec

--------------------------------
INITIAL GUESS: MINIMAL BASIS EHT
--------------------------------
The minimal basis has 23 functions
EHT matrix was diagonalized
Basis set overlap was calculated now projecting the orbitals
Using GuessMode=FMatrix for the initial guess
C*T matrix was formed
Effective Fockian was calculated
Effective Fockian was diagonalized
Initial density was built
                      ------------------
                      INITIAL GUESS DONE
                      ------------------
-------------------
DFT GRID GENERATION
-------------------

General Integration Accuracy     IntAcc      ... 4.959
Radial Grid Type                 RadialGrid  ... OptM3 with GC (2021)
Angular Grid (max. ang.)         AngularGrid ... 6 (Lebedev-590)
Angular grid pruning method      GridPruning ... 4 (adaptive)
Weight generation scheme         WeightScheme... Becke
Basis function cutoff            BFCut       ... 1.0000e-11
Integration weight cutoff        WCut        ... 1.0000e-14
Angular grids for H and He will be reduced by one unit
Partially contracted basis set               ... off
Rotationally invariant grid construction     ... off

Total number of grid points                  ...    84614
Total number of batches                      ...     1326
Average number of points per batch           ...       63
Average number of grid points per atom       ...    12088
Time for grid setup =    1.582 sec

--------------------
COSX GRID GENERATION
--------------------

GRIDX 1
-------
General Integration Accuracy     IntAcc      ... 4.020
Radial Grid Type                 RadialGrid  ... OptM3 with GC (2021)
Angular Grid (max. ang.)         AngularGrid ... 2 (Lebedev-110)
Angular grid pruning method      GridPruning ... 4 (adaptive)
Weight generation scheme         WeightScheme... Becke
Basis function cutoff            BFCut       ... 1.0000e-11
Integration weight cutoff        WCut        ... 1.0000e-14
Angular grids for H and He will be reduced by one unit
Partially contracted basis set               ... on
Rotationally invariant grid construction     ... off

Total number of grid points                  ...     9776
Total number of batches                      ...      157
Average number of points per batch           ...       62
Average number of grid points per atom       ...     1397
UseSFitting                                  ... on

GRIDX 2
-------
General Integration Accuracy     IntAcc      ... 4.338
Radial Grid Type                 RadialGrid  ... OptM3 with GC (2021)
Angular Grid (max. ang.)         AngularGrid ... 3 (Lebedev-194)
Angular grid pruning method      GridPruning ... 4 (adaptive)
Weight generation scheme         WeightScheme... Becke
Basis function cutoff            BFCut       ... 1.0000e-11
Integration weight cutoff        WCut        ... 1.0000e-14
Angular grids for H and He will be reduced by one unit
Partially contracted basis set               ... on
Rotationally invariant grid construction     ... off

Total number of grid points                  ...    21654
Total number of batches                      ...      341
Average number of points per batch           ...       63
Average number of grid points per atom       ...     3093
UseSFitting                                  ... on

GRIDX 3
-------
General Integration Accuracy     IntAcc      ... 4.871
Radial Grid Type                 RadialGrid  ... OptM3 with GC (2021)
Angular Grid (max. ang.)         AngularGrid ... 4 (Lebedev-302)
Angular grid pruning method      GridPruning ... 4 (adaptive)
Weight generation scheme         WeightScheme... Becke
Basis function cutoff            BFCut       ... 1.0000e-11
Integration weight cutoff        WCut        ... 1.0000e-14
Angular grids for H and He will be reduced by one unit
Partially contracted basis set               ... on
Rotationally invariant grid construction     ... off

Total number of grid points                  ...    41014
Total number of batches                      ...      645
Average number of points per batch           ...       63
Average number of grid points per atom       ...     5859
UseSFitting                                  ... on

Time for X-Grid setup             =    3.454 sec

--------------
SCF ITERATIONS
--------------
ITER       Energy         Delta-E        Max-DP      RMS-DP      [F,P]     Damp
               ***  Starting incremental Fock matrix formation  ***
  0   -243.6444757723   0.000000000000 0.15399676  0.00941366  0.4125043 0.7000
  1   -243.9765820817  -0.332106309444 0.08128653  0.00524718  0.2766737 0.7000
                               ***Turning on DIIS***
  2   -244.1333679757  -0.156785893937 0.04357960  0.00290528  0.1974504 0.7000
  3   -244.2407243225  -0.107356346861 0.04752928  0.00201652  0.1398052 0.7000
  4   -244.3177416198  -0.077017297227 0.10536140  0.00491009  0.0976365 0.0000
  5   -244.5020426306  -0.184301010879 0.01017702  0.00047018  0.0095087 0.0000
  6   -244.5023183982  -0.000275767577 0.00597066  0.00017458  0.0073698 0.0000
                      *** Initiating the SOSCF procedure ***
                           *** Shutting down DIIS ***
                      *** Re-Reading the Fockian *** 
                      *** Removing any level shift *** 
ITER      Energy       Delta-E        Grad      Rot      Max-DP    RMS-DP
  7   -244.50240545  -0.0000870504  0.001112  0.001112  0.001900  0.000089
               *** Restarting incremental Fock matrix formation ***
  8   -244.50242895  -0.0000235038  0.000429  0.000735  0.001169  0.000044
  9   -244.50243054  -0.0000015867  0.000201  0.000230  0.000465  0.000021
 10   -244.50243102  -0.0000004766  0.000050  0.000041  0.000093  0.000006
 11   -244.50243103  -0.0000000123  0.000051  0.000050  0.000065  0.000003
 12   -244.50243105  -0.0000000190  0.000007  0.000017  0.000020  0.000001
                  ***Gradient check signals convergence***
              ***Rediagonalizing the Fockian in SOSCF/NRSCF***

               *****************************************************
               *                     SUCCESS                       *
               *           SCF CONVERGED AFTER  13 CYCLES          *
               *****************************************************

Old exchange energy                            =    -12.252720411 Eh
New exchange energy                            =    -12.252718319 Eh
Exchange energy change after final integration =      0.000002092 Eh
Total energy after final integration           =   -244.502428956 Eh
Final COS-X integration done in                =     0.678 sec

----------------
TOTAL SCF ENERGY
----------------

Total Energy       :         -244.50242896 Eh           -6653.24934 eV

Components:
Nuclear Repulsion  :          124.78343016 Eh            3395.52976 eV
Electronic Energy  :         -369.28585912 Eh          -10048.77910 eV
One Electron Energy:         -580.94530584 Eh          -15808.32545 eV
Two Electron Energy:          211.65944672 Eh            5759.54635 eV
Max COSX asymmetry :            0.00000141 Eh               0.00004 eV

Virial components:
Potential Energy   :         -487.42102438 Eh          -13263.40037 eV
Kinetic Energy     :          242.91859542 Eh            6610.15104 eV
Virial Ratio       :            2.00652002


DFT components:
N(Alpha)           :       16.000000000284 electrons
N(Beta)            :       16.000000000284 electrons
N(Total)           :       32.000000000569 electrons
E(X)               :      -16.362565384066 Eh       
E(C)               :       -1.431012063927 Eh       
E(XC)              :      -17.793577447992 Eh       
DFET-embed. en.    :        0.000000000000 Eh       

---------------
SCF CONVERGENCE
---------------

  Last Energy change         ...   -9.0023e-10  Tolerance :   1.0000e-08
  Last MAX-Density change    ...    7.7716e-16  Tolerance :   1.0000e-07
  Last RMS-Density change    ...    5.1365e-17  Tolerance :   5.0000e-09
  Last Orbital Gradient      ...    2.0967e-06  Tolerance :   1.0000e-05
  Last Orbital Rotation      ...    1.8560e-06  Tolerance :   1.0000e-05

             **** THE GBW FILE WAS UPDATED (pbeh-3c.gbw) ****
             **** DENSITY pbeh-3c.scfp WAS UPDATED ****
             **** ENERGY FILE WAS UPDATED (pbeh-3c.en.tmp) ****
             **** THE GBW FILE WAS UPDATED (pbeh-3c.gbw) ****
             **** DENSITY pbeh-3c.scfp WAS UPDATED ****
----------------
ORBITAL ENERGIES
----------------

  NO   OCC          E(Eh)            E(eV) 
   0   2.0000     -19.533513      -531.5339 
   1   2.0000     -19.533404      -531.5309 
   2   2.0000     -14.889361      -405.1601 
   3   2.0000     -10.508764      -285.9580 
   4   2.0000      -1.353916       -36.8419 
   5   2.0000      -1.170997       -31.8645 
   6   2.0000      -0.909957       -24.7612 
   7   2.0000      -0.704324       -19.1656 
   8   2.0000      -0.619666       -16.8620 
   9   2.0000      -0.613827       -16.7031 
  10   2.0000      -0.591649       -16.0996 
  11   2.0000      -0.515768       -14.0348 
  12   2.0000      -0.496176       -13.5016 
  13   2.0000      -0.369747       -10.0613 
  14   2.0000      -0.365777        -9.9533 
  15   2.0000      -0.360442        -9.8081 
  16   0.0000      -0.035600        -0.9687 
  17   0.0000       0.124718         3.3938 
  18   0.0000       0.154263         4.1977 
  19   0.0000       0.176581         4.8050 
  20   0.0000       0.188484         5.1289 
  21   0.0000       0.317932         8.6514 
  22   0.0000       0.410879        11.1806 
  23   0.0000       0.470643        12.8068 
  24   0.0000       0.486735        13.2447 
  25   0.0000       0.487321        13.2607 
  26   0.0000       0.718473        19.5506 
  27   0.0000       0.750563        20.4239 
  28   0.0000       0.781546        21.2669 
  29   0.0000       0.892644        24.2901 
  30   0.0000       0.912209        24.8225 
  31   0.0000       0.923961        25.1423 
  32   0.0000       0.962458        26.1898 
  33   0.0000       1.008783        27.4504 
  34   0.0000       1.026827        27.9414 
  35   0.0000       1.056138        28.7390 
  36   0.0000       1.086735        29.5716 
  37   0.0000       1.126949        30.6658 
  38   0.0000       1.139072        30.9957 
  39   0.0000       1.309060        35.6213 
  40   0.0000       1.381567        37.5943 
  41   0.0000       1.445764        39.3412 
  42   0.0000       1.717210        46.7277 
  43   0.0000       1.794707        48.8365 
  44   0.0000       1.820712        49.5441 
  45   0.0000       1.861770        50.6613 
  46   0.0000       1.873390        50.9775 
  47   0.0000       1.882952        51.2377 
  48   0.0000       2.000449        54.4350 
  49   0.0000       2.010168        54.6995 
  50   0.0000       2.069947        56.3261 
  51   0.0000       2.166892        58.9641 
  52   0.0000       2.206991        60.0553 
  53   0.0000       2.234875        60.8140 
  54   0.0000       2.286719        62.2248 
  55   0.0000       2.489796        67.7508 
  56   0.0000       2.530795        68.8664 
  57   0.0000       2.749688        74.8228 
  58   0.0000       2.881894        78.4203 
  59   0.0000       2.889884        78.6377 
  60   0.0000       2.929032        79.7030 
  61   0.0000       3.138741        85.4095 
  62   0.0000      13.664673       371.8347 
  63   0.0000      19.088912       519.4357 
  64   0.0000      25.538103       694.9271 
  65   0.0000      25.700063       699.3343 

                    ********************************
                    * MULLIKEN POPULATION ANALYSIS *
                    ********************************

-----------------------
MULLIKEN ATOMIC CHARGES
-----------------------
   0 C :   -0.516132
   1 N :    0.422661
   2 O :   -0.354171
   3 O :   -0.354171
   4 H :    0.265530
   5 H :    0.270754
   6 H :    0.265530
Sum of atomic charges:   -0.0000000

--------------------------------
MULLIKEN REDUCED ORBITAL CHARGES
--------------------------------
  0 C s       :     3.377619  s :     3.377619
      pz      :     1.187576  p :     3.095454
      px      :     0.733431
      py      :     1.174447
      dz2     :     0.010786  d :     0.043060
      dxz     :     0.005740
      dyz     :     0.006913
      dx2y2   :     0.014841
      dxy     :     0.004779
  1 N s       :     3.318319  s :     3.318319
      pz      :     0.911381  p :     3.090315
      px      :     1.078090
      py      :     1.100844
      dz2     :     0.055984  d :     0.168705
      dxz     :     0.048727
      dyz     :     0.041425
      dx2y2   :     0.014395
      dxy     :     0.008176
  2 O s       :     3.826214  s :     3.826214
      pz      :     1.337449  p :     4.483881
      px      :     1.726624
      py      :     1.419808
      dz2     :     0.014925  d :     0.044076
      dxz     :     0.013277
      dyz     :     0.010394
      dx2y2   :     0.002288
      dxy     :     0.003192
  3 O s       :     3.826214  s :     3.826214
      pz      :     1.337449  p :     4.483881
      px      :     1.726624
      py      :     1.419808
      dz2     :     0.014925  d :     0.044076
      dxz     :     0.013277
      dyz     :     0.010394
      dx2y2   :     0.002288
      dxy     :     0.003192
  4 H s       :     0.734470  s :     0.734470
  5 H s       :     0.729246  s :     0.729246
  6 H s       :     0.734470  s :     0.734470


                     *******************************
                     * LOEWDIN POPULATION ANALYSIS *
                     *******************************

----------------------
LOEWDIN ATOMIC CHARGES
----------------------
   0 C :   -0.280016
   1 N :    0.243211
   2 O :   -0.214057
   3 O :   -0.214057
   4 H :    0.152652
   5 H :    0.159615
   6 H :    0.152652

-------------------------------
LOEWDIN REDUCED ORBITAL CHARGES
-------------------------------
  0 C s       :     2.987928  s :     2.987928
      pz      :     1.168306  p :     3.213088
      px      :     0.882095
      py      :     1.162687
      dz2     :     0.018882  d :     0.079001
      dxz     :     0.010303
      dyz     :     0.010878
      dx2y2   :     0.029337
      dxy     :     0.009601
  1 N s       :     3.017833  s :     3.017833
      pz      :     1.126331  p :     3.358024
      px      :     1.175595
      py      :     1.056098
      dz2     :     0.139584  d :     0.380932
      dxz     :     0.113770
      dyz     :     0.082966
      dx2y2   :     0.030265
      dxy     :     0.014347
  2 O s       :     3.577004  s :     3.577004
      pz      :     1.412098  p :     4.554028
      px      :     1.727898
      py      :     1.414032
      dz2     :     0.028118  d :     0.083025
      dxz     :     0.029635
      dyz     :     0.016278
      dx2y2   :     0.004666
      dxy     :     0.004328
  3 O s       :     3.577004  s :     3.577004
      pz      :     1.412098  p :     4.554028
      px      :     1.727898
      py      :     1.414032
      dz2     :     0.028118  d :     0.083025
      dxz     :     0.029635
      dyz     :     0.016278
      dx2y2   :     0.004666
      dxy     :     0.004328
  4 H s       :     0.847348  s :     0.847348
  5 H s       :     0.840385  s :     0.840385
  6 H s       :     0.847348  s :     0.847348


                      *****************************
                      * MAYER POPULATION ANALYSIS *
                      *****************************

  NA   - Mulliken gross atomic population
  ZA   - Total nuclear charge
  QA   - Mulliken gross atomic charge
  VA   - Mayer's total valence
  BVA  - Mayer's bonded valence
  FA   - Mayer's free valence

  ATOM       NA         ZA         QA         VA         BVA        FA
  0 C      6.5161     6.0000    -0.5161     3.5945     3.5945    -0.0000
  1 N      6.5773     7.0000     0.4227     4.1464     4.1464    -0.0000
  2 O      8.3542     8.0000    -0.3542     2.0192     2.0192    -0.0000
  3 O      8.3542     8.0000    -0.3542     2.0192     2.0192    -0.0000
  4 H      0.7345     1.0000     0.2655     0.8992     0.8992    -0.0000
  5 H      0.7292     1.0000     0.2708     0.8927     0.8927    -0.0000
  6 H      0.7345     1.0000     0.2655     0.8992     0.8992    -0.0000

  Mayer bond orders larger than 0.100000
B(  0-C ,  1-N ) :   0.8231 B(  0-C ,  4-H ) :   0.8978 B(  0-C ,  5-H ) :   0.8959 
B(  0-C ,  6-H ) :   0.8978 B(  1-N ,  2-O ) :   1.6693 B(  1-N ,  3-O ) :   1.6693 
B(  2-O ,  3-O ) :   0.2823 

-------
TIMINGS
-------

Total SCF time: 0 days 0 hours 1 min 2 sec 

Total time                  ....      62.929 sec
Sum of individual times     ....      55.966 sec  ( 88.9%)

Fock matrix formation       ....      45.504 sec  ( 72.3%)
  Split-RI-J                ....       6.638 sec  ( 14.6% of F)
  Chain of spheres X        ....       7.682 sec  ( 16.9% of F)
  XC integration            ....      14.590 sec  ( 32.1% of F)
    Basis function eval.    ....       1.002 sec  (  6.9% of XC)
    Density eval.           ....       0.744 sec  (  5.1% of XC)
    XC-Functional eval.     ....       0.822 sec  (  5.6% of XC)
    XC-Potential eval.      ....       0.469 sec  (  3.2% of XC)
Diagonalization             ....       1.295 sec  (  2.1%)
Density matrix formation    ....       0.067 sec  (  0.1%)
Population analysis         ....       0.775 sec  (  1.2%)
Initial guess               ....       0.012 sec  (  0.0%)
Orbital Transformation      ....       0.000 sec  (  0.0%)
Orbital Orthonormalization  ....       0.000 sec  (  0.0%)
DIIS solution               ....       2.600 sec  (  4.1%)
SOSCF solution              ....       0.678 sec  (  1.1%)
Grid generation             ....       5.036 sec  (  8.0%)

Maximum memory used throughout the entire SCF-calculation: 46.6 MB


-------------------------------------------------------------------------------
                          DFT DISPERSION CORRECTION                            
                                                                               
                              DFTD3 V3.1  Rev 1                                
                          USING Becke-Johnson damping                          
-------------------------------------------------------------------------------
The PBEh-3c composite method is recognized
Using three-body term ABC
Active option DFTDOPT                   ...         4   

molecular C6(AA) [au] = 422.816896 


            DFT-D V3
 parameters
 s6 scaling factor         :     1.0000 
 a1 scaling factor         :     0.4860 
 s8 scaling factor         :     0.0000 
 a2 scaling factor         :     4.5000 
 Damping factor alpha9(ATM):    16.0000 
 ad hoc parameters k1-k3   :    16.0000     1.3333    -4.0000 

 Edisp/kcal,au: -1.218404285835  -0.001941650614 
 E6   /kcal   :  -1.219276402 
 E8   /kcal   :  -0.000000000 
 E6(ABC)      :   0.000872116 
 % E8         :   0.000000000 
 % E6(ABC)    :  -0.071578563 

-------------------------   ----------------
Dispersion correction           -0.001941651
-------------------------   ----------------

------------------   -----------------
gCP correction             0.015221364
------------------   -----------------

-------------------------   --------------------
FINAL SINGLE POINT ENERGY      -244.489149242851
-------------------------   --------------------


                            ***************************************
                            *     ORCA property calculations      *
                            ***************************************

                                    ---------------------
                                    Active property flags
                                    ---------------------
   (+) Dipole Moment


------------------------------------------------------------------------------
                       ORCA ELECTRIC PROPERTIES CALCULATION
------------------------------------------------------------------------------

Dipole Moment Calculation                       ... on
Quadrupole Moment Calculation                   ... off
Polarizability Calculation                      ... off
GBWName                                         ... pbeh-3c.gbw
Electron density                                ... pbeh-3c.scfp
The origin for moment calculation is the CENTER OF MASS  = (-1.409607, -0.013502  0.000000)

-------------
DIPOLE MOMENT
-------------
                                X             Y             Z
Electronic contribution:     -3.42834      -0.03797       0.00000
Nuclear contribution   :      4.86831       0.05153       0.00000
                        -----------------------------------------
Total Dipole Moment    :      1.43997       0.01356       0.00000
                        -----------------------------------------
Magnitude (a.u.)       :      1.44004
Magnitude (Debye)      :      3.66029



--------------------
Rotational spectrum 
--------------------
 
Rotational constants in cm-1:     0.411043     0.349025     0.195752 
Rotational constants in MHz : 12322.762543 10463.511239  5868.484347 

 Dipole components along the rotational axes: 
x,y,z [a.u.] :    -1.439974     0.000000     0.013541 
x,y,z [Debye]:    -3.660124     0.000000     0.034418 

 

Timings for individual modules:

Sum of individual times         ...       66.445 sec (=   1.107 min)
GTO integral calculation        ...        2.556 sec (=   0.043 min)   3.8 %
SCF iterations                  ...       63.890 sec (=   1.065 min)  96.2 %
                             ****ORCA TERMINATED NORMALLY****
TOTAL RUN TIME: 0 days 0 hours 1 minutes 15 seconds 232 msec
