
                                 *****************
                                 * O   R   C   A *
                                 *****************

                                            #,                                       
                                            ###                                      
                                            ####                                     
                                            #####                                    
                                            ######                                   
                                           ########,                                 
                                     ,,################,,,,,                         
                               ,,#################################,,                 
                          ,,##########################################,,             
                       ,#########################################, ''#####,          
                    ,#############################################,,   '####,        
                  ,##################################################,,,,####,       
                ,###########''''           ''''###############################       
              ,#####''   ,,,,##########,,,,          '''####'''          '####       
            ,##' ,,,,###########################,,,                        '##       
           ' ,,###''''                  '''############,,,                           
         ,,##''                                '''############,,,,        ,,,,,,###''
      ,#''                                            '''#######################'''  
     '                                                          ''''####''''         
             ,#######,   #######,   ,#######,      ##                                
            ,#'     '#,  ##    ##  ,#'     '#,    #''#        ######   ,####,        
            ##       ##  ##   ,#'  ##            #'  '#       #        #'  '#        
            ##       ##  #######   ##           ,######,      #####,   #    #        
            '#,     ,#'  ##    ##  '#,     ,#' ,#      #,         ##   #,  ,#        
             '#######'   ##     ##  '#######'  #'      '#     #####' # '####'        



                  #######################################################
                  #                        -***-                        #
                  #          Department of theory and spectroscopy      #
                  #    Directorship and core code : Frank Neese         #
                  #        Max Planck Institute fuer Kohlenforschung    #
                  #                Kaiser Wilhelm Platz 1               #
                  #                 D-45470 Muelheim/Ruhr               #
                  #                      Germany                        #
                  #                                                     #
                  #                  All rights reserved                #
                  #                        -***-                        #
                  #######################################################


                         Program Version 5.0.3 -  RELEASE  -


 With contributions from (in alphabetic order):
   Daniel Aravena         : Magnetic Suceptibility
   Michael Atanasov       : Ab Initio Ligand Field Theory (pilot matlab implementation)
   Alexander A. Auer      : GIAO ZORA, VPT2 properties, NMR spectrum
   Ute Becker             : Parallelization
   Giovanni Bistoni       : ED, misc. LED, open-shell LED, HFLD
   Martin Brehm           : Molecular dynamics
   Dmytro Bykov           : SCF Hessian
   Vijay G. Chilkuri      : MRCI spin determinant printing, contributions to CSF-ICE
   Dipayan Datta          : RHF DLPNO-CCSD density
   Achintya Kumar Dutta   : EOM-CC, STEOM-CC
   Dmitry Ganyushin       : Spin-Orbit,Spin-Spin,Magnetic field MRCI
   Miquel Garcia          : C-PCM and meta-GGA Hessian, CC/C-PCM, Gaussian charge scheme
   Yang Guo               : DLPNO-NEVPT2, F12-NEVPT2, CIM, IAO-localization
   Andreas Hansen         : Spin unrestricted coupled pair/coupled cluster methods
   Benjamin Helmich-Paris : MC-RPA, TRAH-SCF, COSX integrals
   Lee Huntington         : MR-EOM, pCC
   Robert Izsak           : Overlap fitted RIJCOSX, COSX-SCS-MP3, EOM
   Marcus Kettner         : VPT2
   Christian Kollmar      : KDIIS, OOCD, Brueckner-CCSD(T), CCSD density, CASPT2, CASPT2-K
   Simone Kossmann        : Meta GGA functionals, TD-DFT gradient, OOMP2, MP2 Hessian
   Martin Krupicka        : Initial AUTO-CI
   Lucas Lang             : DCDCAS
   Marvin Lechner         : AUTO-CI (C++ implementation), FIC-MRCC
   Dagmar Lenk            : GEPOL surface, SMD
   Dimitrios Liakos       : Extrapolation schemes; Compound Job, initial MDCI parallelization
   Dimitrios Manganas     : Further ROCIS development; embedding schemes
   Dimitrios Pantazis     : SARC Basis sets
   Anastasios Papadopoulos: AUTO-CI, single reference methods and gradients
   Taras Petrenko         : DFT Hessian,TD-DFT gradient, ASA, ECA, R-Raman, ABS, FL, XAS/XES, NRVS
   Peter Pinski           : DLPNO-MP2, DLPNO-MP2 Gradient
   Christoph Reimann      : Effective Core Potentials
   Marius Retegan         : Local ZFS, SOC
   Christoph Riplinger    : Optimizer, TS searches, QM/MM, DLPNO-CCSD(T), (RO)-DLPNO pert. Triples
   Tobias Risthaus        : Range-separated hybrids, TD-DFT gradient, RPA, STAB
   Michael Roemelt        : Original ROCIS implementation
   Masaaki Saitow         : Open-shell DLPNO-CCSD energy and density
   Barbara Sandhoefer     : DKH picture change effects
   Avijit Sen             : IP-ROCIS
   Kantharuban Sivalingam : CASSCF convergence, NEVPT2, FIC-MRCI
   Bernardo de Souza      : ESD, SOC TD-DFT
   Georgi Stoychev        : AutoAux, RI-MP2 NMR, DLPNO-MP2 response
   Willem Van den Heuvel  : Paramagnetic NMR
   Boris Wezisla          : Elementary symmetry handling
   Frank Wennmohs         : Technical directorship


 We gratefully acknowledge several colleagues who have allowed us to
 interface, adapt or use parts of their codes:
   Stefan Grimme, W. Hujo, H. Kruse, P. Pracht,  : VdW corrections, initial TS optimization,
                  C. Bannwarth, S. Ehlert          DFT functionals, gCP, sTDA/sTD-DF
   Ed Valeev, F. Pavosevic, A. Kumar             : LibInt (2-el integral package), F12 methods
   Garnet Chan, S. Sharma, J. Yang, R. Olivares  : DMRG
   Ulf Ekstrom                                   : XCFun DFT Library
   Mihaly Kallay                                 : mrcc  (arbitrary order and MRCC methods)
   Jiri Pittner, Ondrej Demel                    : Mk-CCSD
   Frank Weinhold                                : gennbo (NPA and NBO analysis)
   Christopher J. Cramer and Donald G. Truhlar   : smd solvation model
   Lars Goerigk                                  : TD-DFT with DH, B97 family of functionals
   V. Asgeirsson, H. Jonsson                     : NEB implementation
   FAccTs GmbH                                   : IRC, NEB, NEB-TS, DLPNO-Multilevel, CI-OPT
                                                   MM, QMMM, 2- and 3-layer-ONIOM, Crystal-QMMM,
                                                   LR-CPCM, SF, NACMEs, symmetry and pop. for TD-DFT,
                                                   nearIR, NL-DFT gradient (VV10), updates on ESD,
                                                   ML-optimized integration grids
   S Lehtola, MJT Oliveira, MAL Marques          : LibXC Library
   Liviu Ungur et al                             : ANISO software


 Your calculation uses the libint2 library for the computation of 2-el integrals
 For citations please refer to: http://libint.valeyev.net

 Your ORCA version has been built with support for libXC version: 5.1.0
 For citations please refer to: https://tddft.org/programs/libxc/

 This ORCA versions uses:
   CBLAS   interface :  Fast vector & matrix operations
   LAPACKE interface :  Fast linear algebra routines
   SCALAPACK package :  Parallel linear algebra routines
   Shared memory     :  Shared parallel matrices
   BLAS/LAPACK       :  OpenBLAS 0.3.15  USE64BITINT DYNAMIC_ARCH NO_AFFINITY Haswell SINGLE_THREADED
        Core in use  :  Haswell
   Copyright (c) 2011-2014, The OpenBLAS Project




***************************************
The coordinates will be read from file: 27.xyz
***************************************


Your calculation utilizes the geometrical counterpoise correction gCP
Please cite in your paper:
H.Kruse, S. Grimme J.Chem.Phys., 136, (2012), 154101 
   

Your calculation utilizes the atom-pairwise dispersion correction
with the Becke-Johnson damping scheme (D3BJ)
Cite in your paper:
S.Grimme, S.Ehrlich, L.Goerigk, J Comput Chem, (2011), 32, 1456–1465 
S.Grimme, J.Antony, S.Ehrlich and H.Krieg, J.Chem.Phys., 132, (2010), 154104 
   

Your calculation employs the composite approach PBEh-3c.
Please cite in your paper:
S. Grimme, J. G. Brandenburg, C. Bannwarth, A. Hansen J.Chem.Phys., 143, (2015), 054107 
   

================================================================================

----- Orbital basis set information -----
Your calculation utilizes the basis: def2-mSVP

----- AuxJ basis set information -----
Your calculation utilizes the auxiliary basis: def2/J
   F. Weigend, Phys. Chem. Chem. Phys. 8, 1057 (2006).

================================================================================
                                        WARNINGS
                       Please study these warnings very carefully!
================================================================================


WARNING: your system is open-shell and RHF/RKS was chosen
  ===> : WILL SWITCH to UHF/UKS


INFO   : the flag for use of the SHARK integral package has been found!

================================================================================
                                       INPUT FILE
================================================================================
NAME = pbeh-3c.inp
|  1> ! PBEh-3c def2/J TightSCF DefGrid3
|  2> 
|  3> %maxcore 60000
|  4> 
|  5> %pal
|  6> nprocs 4
|  7> end
|  8> 
|  9> *xyzfile 0 2 27.xyz
| 10> 
| 11>                          ****END OF INPUT****
================================================================================

                       ****************************
                       * Single Point Calculation *
                       ****************************

---------------------------------
CARTESIAN COORDINATES (ANGSTROEM)
---------------------------------
  C     -0.130287   -0.896063   -0.437905
  Cl     2.394969   -0.516398    2.513855
  N      2.014387   -0.039910   -1.016887
  O      0.592789   -0.668518   -2.772908
  Al     1.466232   -0.409471    0.654690
  C     -0.178961    1.638733    0.634654
  S     -2.464559   -0.035885    1.153538
  H      0.861685    1.672391    1.029277
  H     -0.755901    2.197618    1.378652
  H     -0.615362   -1.860739   -0.577905
  N     -3.183224   -1.432522    0.680998
  H     -0.128635    2.225531   -0.291292
  C      0.840510   -0.528389   -1.590344
  B     -0.846219    0.204930    0.326477
  H     -2.599919   -1.870616   -0.049217
  H      2.732495    0.319306   -1.635682

----------------------------
CARTESIAN COORDINATES (A.U.)
----------------------------
  NO LB      ZA    FRAG     MASS         X           Y           Z
   0 C     6.0000    0    12.011   -0.246207   -1.693313   -0.827520
   1 Cl   17.0000    0    35.453    4.525836   -0.975851    4.750497
   2 N     7.0000    0    14.007    3.806639   -0.075419   -1.921638
   3 O     8.0000    0    15.999    1.120209   -1.263315   -5.240036
   4 Al   13.0000    0    26.982    2.770776   -0.773787    1.237184
   5 C     6.0000    0    12.011   -0.338187    3.096757    1.199321
   6 S    16.0000    0    32.060   -4.657341   -0.067813    2.179871
   7 H     1.0000    0     1.008    1.628350    3.160362    1.945051
   8 H     1.0000    0     1.008   -1.428447    4.152896    2.605275
   9 H     1.0000    0     1.008   -1.162866   -3.516287   -1.092083
  10 N     7.0000    0    14.007   -6.015422   -2.707074    1.286899
  11 H     1.0000    0     1.008   -0.243085    4.205645   -0.550462
  12 C     6.0000    0    12.011    1.588335   -0.998510   -3.005314
  13 B     5.0000    0    10.810   -1.599123    0.387262    0.616953
  14 H     1.0000    0     1.008   -4.913134   -3.534953   -0.093007
  15 H     1.0000    0     1.008    5.163667    0.603401   -3.090990

--------------------------------
INTERNAL COORDINATES (ANGSTROEM)
--------------------------------
 C      0   0   0     0.000000000000     0.00000000     0.00000000
 Cl     1   0   0     3.903068808574     0.00000000     0.00000000
 N      1   2   0     2.380723299641    64.28447443     0.00000000
 O      3   1   2     2.345142912816    62.58862892   168.88437154
 Al     3   1   2     1.797559068592    54.91475291   355.90779552
 C      5   3   1     2.627203494983    91.35158403   289.14902621
 S      6   5   3     2.880545698351    92.42263666   121.91183112
 H      6   5   3     1.113465440731    55.63956234   266.41054363
 H      6   5   3     1.094872609309   136.28270849   193.92579527
 H      1   2   3     1.088805665680   118.14262755   127.53663141
 N      7   6   5     1.640234728933   142.25778772   313.46290107
 H      6   5   3     1.097379050383   113.24087613   357.71814340
 C      4   3   1     1.216330273889    28.07381798     0.51516681
 B      1   2   3     1.519547558016    81.60035475   246.90687175
 H     11   7   6     1.032175450109   108.51831078     1.39032517
 H      3   1   2     1.013716832044   156.06959172   179.87740356

---------------------------
INTERNAL COORDINATES (A.U.)
---------------------------
 C      0   0   0     0.000000000000     0.00000000     0.00000000
 Cl     1   0   0     7.375731130056     0.00000000     0.00000000
 N      1   2   0     4.498915036968    64.28447443     0.00000000
 O      3   1   2     4.431677850129    62.58862892   168.88437154
 Al     3   1   2     3.396894349186    54.91475291   355.90779552
 C      5   3   1     4.964695103599    91.35158403   289.14902621
 S      6   5   3     5.443442486128    92.42263666   121.91183112
 H      6   5   3     2.104144742567    55.63956234   266.41054363
 H      6   5   3     2.069009383125   136.28270849   193.92579527
 H      1   2   3     2.057544521196   118.14262755   127.53663141
 N      7   6   5     3.099594433030   142.25778772   313.46290107
 H      6   5   3     2.073745870327   113.24087613   357.71814340
 C      4   3   1     2.298531106048    28.07381798     0.51516681
 B      1   2   3     2.871528732118    81.60035475   246.90687175
 H     11   7   6     1.950528922862   108.51831078     1.39032517
 H      3   1   2     1.915647189910   156.06959172   179.87740356

---------------------
BASIS SET INFORMATION
---------------------
There are 8 groups of distinct atoms

 Group   1 Type C   : 8s4p1d contracted to 4s2p1d pattern {5111/31/1}
 Group   2 Type Cl  : 10s7p1d contracted to 4s3p1d pattern {5311/511/1}
 Group   3 Type N   : 8s4p1d contracted to 4s2p1d pattern {5111/31/1}
 Group   4 Type O   : 8s4p1d contracted to 4s2p1d pattern {5111/31/1}
 Group   5 Type Al  : 10s7p1d contracted to 4s3p1d pattern {5311/511/1}
 Group   6 Type S   : 10s7p1d contracted to 4s3p1d pattern {5311/511/1}
 Group   7 Type H   : 4s contracted to 2s pattern {31}
 Group   8 Type B   : 8s4p1d contracted to 4s2p1d pattern {5111/31/1}

Atom   0C    basis set group =>   1
Atom   1Cl   basis set group =>   2
Atom   2N    basis set group =>   3
Atom   3O    basis set group =>   4
Atom   4Al   basis set group =>   5
Atom   5C    basis set group =>   1
Atom   6S    basis set group =>   6
Atom   7H    basis set group =>   7
Atom   8H    basis set group =>   7
Atom   9H    basis set group =>   7
Atom  10N    basis set group =>   3
Atom  11H    basis set group =>   7
Atom  12C    basis set group =>   1
Atom  13B    basis set group =>   8
Atom  14H    basis set group =>   7
Atom  15H    basis set group =>   7
---------------------------------
AUXILIARY/J BASIS SET INFORMATION
---------------------------------
There are 8 groups of distinct atoms

 Group   1 Type C   : 12s5p4d2f1g contracted to 6s4p3d1f1g pattern {711111/2111/211/2/1}
 Group   2 Type Cl  : 14s5p5d2f1g contracted to 8s4p3d1f1g pattern {71111111/2111/311/2/1}
 Group   3 Type N   : 12s5p4d2f1g contracted to 6s4p3d1f1g pattern {711111/2111/211/2/1}
 Group   4 Type O   : 12s5p4d2f1g contracted to 6s4p3d1f1g pattern {711111/2111/211/2/1}
 Group   5 Type Al  : 14s5p5d2f1g contracted to 8s4p3d1f1g pattern {71111111/2111/311/2/1}
 Group   6 Type S   : 14s5p5d2f1g contracted to 8s4p3d1f1g pattern {71111111/2111/311/2/1}
 Group   7 Type H   : 5s2p1d contracted to 3s1p1d pattern {311/2/1}
 Group   8 Type B   : 12s5p4d2f1g contracted to 6s4p3d1f1g pattern {711111/2111/211/2/1}

Atom   0C    basis set group =>   1
Atom   1Cl   basis set group =>   2
Atom   2N    basis set group =>   3
Atom   3O    basis set group =>   4
Atom   4Al   basis set group =>   5
Atom   5C    basis set group =>   1
Atom   6S    basis set group =>   6
Atom   7H    basis set group =>   7
Atom   8H    basis set group =>   7
Atom   9H    basis set group =>   7
Atom  10N    basis set group =>   3
Atom  11H    basis set group =>   7
Atom  12C    basis set group =>   1
Atom  13B    basis set group =>   8
Atom  14H    basis set group =>   7
Atom  15H    basis set group =>   7


           ************************************************************
           *        Program running with 4 parallel MPI-processes     *
           *              working on a common directory               *
           ************************************************************
------------------------------------------------------------------------------
                           ORCA GTO INTEGRAL CALCULATION
                           -- RI-GTO INTEGRALS CHOSEN --
------------------------------------------------------------------------------
------------------------------------------------------------------------------
                   ___                                                        
                  /   \      - P O W E R E D   B Y -                         
                 /     \                                                     
                 |  |  |   _    _      __       _____    __    __             
                 |  |  |  | |  | |    /  \     |  _  \  |  |  /  |          
                  \  \/   | |  | |   /    \    | | | |  |  | /  /          
                 / \  \   | |__| |  /  /\  \   | |_| |  |  |/  /          
                |  |  |   |  __  | /  /__\  \  |    /   |      \           
                |  |  |   | |  | | |   __   |  |    \   |  |\   \          
                \     /   | |  | | |  |  |  |  | |\  \  |  | \   \       
                 \___/    |_|  |_| |__|  |__|  |_| \__\ |__|  \__/        
                                                                              
                      - O R C A' S   B I G   F R I E N D -                    
                                      &                                       
                       - I N T E G R A L  F E E D E R -                       
                                                                              
 v1 FN, 2020, v2 2021                                                         
------------------------------------------------------------------------------


Reading SHARK input file pbeh-3c.SHARKINP.tmp ... ok
----------------------
SHARK INTEGRAL PACKAGE
----------------------

Number of atoms                             ...     16
Number of basis functions                   ...    171
Number of shells                            ...     85
Maximum angular momentum                    ...      2
Integral batch strategy                     ... SHARK/LIBINT Hybrid
RI-J (if used) integral strategy            ... SPLIT-RIJ (Revised 2003 algorithm where possible)
Printlevel                                  ...      1
Contraction scheme used                     ... SEGMENTED contraction
Coulomb Range Separation                    ... NOT USED
Exchange Range Separation                   ... NOT USED
Finite Nucleus Model                        ... NOT USED
Auxiliary Coulomb fitting basis             ... AVAILABLE
   # of basis functions in Aux-J            ...    562
   # of shells in Aux-J                     ...    186
   Maximum angular momentum in Aux-J        ...      4
Auxiliary J/K fitting basis                 ... NOT available
Auxiliary Correlation fitting basis         ... NOT available
Auxiliary 'external' fitting basis          ... NOT available
Integral threshold                          ...     2.500000e-11
Primitive cut-off                           ...     2.500000e-12
Primitive pair pre-selection threshold      ...     2.500000e-12

Calculating pre-screening integrals         ... done (  0.1 sec) Dimension = 85
Organizing shell pair data                  ... done (  0.3 sec)
Shell pair information
Total number of shell pairs                 ...      3655
Shell pairs after pre-screening             ...      3098
Total number of primitive shell pairs       ...     14543
Primitive shell pairs kept                  ...      8207
          la=0 lb=0:   1089 shell pairs
          la=1 lb=0:   1054 shell pairs
          la=1 lb=1:    258 shell pairs
          la=2 lb=0:    438 shell pairs
          la=2 lb=1:    208 shell pairs
          la=2 lb=2:     51 shell pairs

Calculating one electron integrals          ... done (  0.0 sec)
Calculating RI/J V-Matrix + Cholesky decomp.... done (  0.1 sec)
Calculating Nuclear repulsion               ... done (  0.0 sec) ENN=    735.139652929988 Eh

SHARK setup successfully completed in   1.2 seconds

Maximum memory used throughout the entire GTOINT-calculation: 11.8 MB


           ************************************************************
           *        Program running with 4 parallel MPI-processes     *
           *              working on a common directory               *
           ************************************************************
-------------------------------------------------------------------------------
                                 ORCA SCF
-------------------------------------------------------------------------------

------------
SCF SETTINGS
------------
Hamiltonian:
 Density Functional     Method          .... DFT(GTOs)
 Exchange Functional    Exchange        .... PBE
   PBE kappa parameter   XKappa         ....  1.024500
   PBE mue parameter    XMuePBE         ....  0.123457
 Correlation Functional Correlation     .... PBE
   PBE beta parameter  CBetaPBE         ....  0.030000
 LDA part of GGA corr.  LDAOpt          .... PW91-LDA
 Gradients option       PostSCFGGA      .... off
 Hybrid DFT is turned on
   Fraction HF Exchange ScalHFX         ....  0.420000
   Scaling of DF-GGA-X  ScalDFX         ....  0.580000
   Scaling of DF-GGA-C  ScalDFC         ....  1.000000
   Scaling of DF-LDA-C  ScalLDAC        ....  1.000000
   Perturbative correction              ....  0.000000
   Density functional embedding theory  .... OFF
 RI-approximation to the Coulomb term is turned on
   Number of AuxJ basis functions       .... 562
   RIJ-ON(X) (HFX calculated with O(N)) .... on
   Number of AuxJ basis functions       .... 562
   RIJ-COSX (HFX calculated with COS-X)).... on


General Settings:
 Integral files         IntName         .... pbeh-3c
 Hartree-Fock type      HFTyp           .... UHF
 Total Charge           Charge          ....    0
 Multiplicity           Mult            ....    2
 Number of Electrons    NEL             ....   97
 Basis Dimension        Dim             ....  171
 Nuclear Repulsion      ENuc            ....    735.1396529300 Eh

Convergence Acceleration:
 DIIS                   CNVDIIS         .... on
   Start iteration      DIISMaxIt       ....    12
   Startup error        DIISStart       ....  0.200000
   # of expansion vecs  DIISMaxEq       ....     5
   Bias factor          DIISBfac        ....   1.050
   Max. coefficient     DIISMaxC        ....  10.000
 Trust-Rad. Augm. Hess. CNVTRAH         .... auto
   Auto Start mean grad. ratio tolernc. ....  1.125000
   Auto Start start iteration           ....    20
   Auto Start num. interpolation iter.  ....    10
   Max. Number of Micro iterations      ....    16
   Max. Number of Macro iterations      .... Maxiter - #DIIS iter
   Number of Davidson start vectors     ....     2
   Converg. threshold I  (grad. norm)   ....   1.000e-05
   Converg. threshold II (energy diff.) ....   1.000e-08
   Grad. Scal. Fac. for Micro threshold ....   0.100
   Minimum threshold for Micro iter.    ....   0.010
   NR start threshold (gradient norm)   ....   0.001
   Initial trust radius                 ....   0.400
   Minimum AH scaling param. (alpha)    ....   1.000
   Maximum AH scaling param. (alpha)    .... 1000.000
   Orbital update algorithm             .... Taylor
   White noise on init. David. guess    .... on
   Maximum white noise                  ....   0.010
   Quad. conv. algorithm                .... NR
   COSX micro iterations for RIJONX calc.... off
 SOSCF                  CNVSOSCF        .... off
 Level Shifting         CNVShift        .... on
   Level shift para.    LevelShift      ....    0.2500
   Turn off err/grad.   ShiftErr        ....    0.0010
 Zerner damping         CNVZerner       .... off
 Static damping         CNVDamp         .... on
   Fraction old density DampFac         ....    0.7000
   Max. Damping (<1)    DampMax         ....    0.9800
   Min. Damping (>=0)   DampMin         ....    0.0000
   Turn off err/grad.   DampErr         ....    0.1000
 Fernandez-Rico         CNVRico         .... off

SCF Procedure:
 Maximum # iterations   MaxIter         ....   125
 SCF integral mode      SCFMode         .... Direct
   Integral package                     .... SHARK and LIBINT hybrid scheme
 Reset frequency        DirectResetFreq ....    20
 Integral Threshold     Thresh          ....  2.500e-11 Eh
 Primitive CutOff       TCut            ....  2.500e-12 Eh

Convergence Tolerance:
 Convergence Check Mode ConvCheckMode   .... Total+1el-Energy
 Convergence forced     ConvForced      .... 0
 Energy Change          TolE            ....  1.000e-08 Eh
 1-El. energy change                    ....  1.000e-05 Eh
 DIIS Error             TolErr          ....  5.000e-07


Diagonalization of the overlap matrix:
Smallest eigenvalue                        ... 3.853e-03
Time for diagonalization                   ...    0.005 sec
Threshold for overlap eigenvalues          ... 1.000e-08
Number of eigenvalues below threshold      ... 0
Time for construction of square roots      ...    0.286 sec
Total time needed                          ...    0.291 sec

--------------------------------
INITIAL GUESS: MINIMAL BASIS EHT
--------------------------------
The minimal basis has 68 functions
EHT matrix was diagonalized
Basis set overlap was calculated now projecting the orbitals
Using GuessMode=FMatrix for the initial guess
C*T matrix was formed
Effective Fockian was calculated
Effective Fockian was diagonalized
Initial density was built
                      ------------------
                      INITIAL GUESS DONE
                      ------------------
-------------------
DFT GRID GENERATION
-------------------

General Integration Accuracy     IntAcc      ... 4.959
Radial Grid Type                 RadialGrid  ... OptM3 with GC (2021)
Angular Grid (max. ang.)         AngularGrid ... 6 (Lebedev-590)
Angular grid pruning method      GridPruning ... 4 (adaptive)
Weight generation scheme         WeightScheme... Becke
Basis function cutoff            BFCut       ... 1.0000e-11
Integration weight cutoff        WCut        ... 1.0000e-14
Angular grids for H and He will be reduced by one unit
Partially contracted basis set               ... off
Rotationally invariant grid construction     ... off

Total number of grid points                  ...   199970
Total number of batches                      ...     3132
Average number of points per batch           ...       63
Average number of grid points per atom       ...    12498
Time for grid setup =    3.993 sec

--------------------
COSX GRID GENERATION
--------------------

GRIDX 1
-------
General Integration Accuracy     IntAcc      ... 4.020
Radial Grid Type                 RadialGrid  ... OptM3 with GC (2021)
Angular Grid (max. ang.)         AngularGrid ... 2 (Lebedev-110)
Angular grid pruning method      GridPruning ... 4 (adaptive)
Weight generation scheme         WeightScheme... Becke
Basis function cutoff            BFCut       ... 1.0000e-11
Integration weight cutoff        WCut        ... 1.0000e-14
Angular grids for H and He will be reduced by one unit
Partially contracted basis set               ... on
Rotationally invariant grid construction     ... off

Total number of grid points                  ...    22950
Total number of batches                      ...      365
Average number of points per batch           ...       62
Average number of grid points per atom       ...     1434
UseSFitting                                  ... on

GRIDX 2
-------
General Integration Accuracy     IntAcc      ... 4.338
Radial Grid Type                 RadialGrid  ... OptM3 with GC (2021)
Angular Grid (max. ang.)         AngularGrid ... 3 (Lebedev-194)
Angular grid pruning method      GridPruning ... 4 (adaptive)
Weight generation scheme         WeightScheme... Becke
Basis function cutoff            BFCut       ... 1.0000e-11
Integration weight cutoff        WCut        ... 1.0000e-14
Angular grids for H and He will be reduced by one unit
Partially contracted basis set               ... on
Rotationally invariant grid construction     ... off

Total number of grid points                  ...    52094
Total number of batches                      ...      821
Average number of points per batch           ...       63
Average number of grid points per atom       ...     3256
UseSFitting                                  ... on

GRIDX 3
-------
General Integration Accuracy     IntAcc      ... 4.871
Radial Grid Type                 RadialGrid  ... OptM3 with GC (2021)
Angular Grid (max. ang.)         AngularGrid ... 4 (Lebedev-302)
Angular grid pruning method      GridPruning ... 4 (adaptive)
Weight generation scheme         WeightScheme... Becke
Basis function cutoff            BFCut       ... 1.0000e-11
Integration weight cutoff        WCut        ... 1.0000e-14
Angular grids for H and He will be reduced by one unit
Partially contracted basis set               ... on
Rotationally invariant grid construction     ... off

Total number of grid points                  ...    95878
Total number of batches                      ...     1504
Average number of points per batch           ...       63
Average number of grid points per atom       ...     5992
UseSFitting                                  ... on

Time for X-Grid setup             =    4.902 sec

--------------
SCF ITERATIONS
--------------
ITER       Energy         Delta-E        Max-DP      RMS-DP      [F,P]     Damp
               ***  Starting incremental Fock matrix formation  ***
  0  -1423.9815529534   0.000000000000 1.55658786  0.01251065  0.2853917 0.7000
  1  -1424.7018669690  -0.720314015654 0.42522285  0.00385198  0.1524901 0.7000
                               ***Turning on DIIS***
  2  -1425.1942404651  -0.492373496101 0.33263142  0.00288815  0.1069746 0.7000
  3  -1425.5572069233  -0.362966458169 0.80433568  0.00708257  0.0743873 0.0000
  4  -1426.4295474114  -0.872340488119 0.02292531  0.00071236  0.0238564 0.0000
  5  -1426.4419699309  -0.012422519481 0.01221962  0.00034033  0.0172727 0.0000
  6  -1426.4482260431  -0.006256112199 0.00880264  0.00027801  0.0091306 0.0000
  7  -1426.4513849317  -0.003158888616 0.00698434  0.00020189  0.0070452 0.0000
  8  -1426.4531235394  -0.001738607708 0.00553395  0.00015479  0.0041033 0.0000
  9  -1426.4539302148  -0.000806675323 0.00331340  0.00008132  0.0026928 0.0000
 10  -1426.4541931108  -0.000262896044 0.00202367  0.00005413  0.0013704 0.0000
 11  -1426.4542843018  -0.000091190953 0.00215903  0.00005392  0.0008896 0.0000
               *** Restarting incremental Fock matrix formation ***
                                   *** Resetting DIIS ***
 12  -1426.4543331067  -0.000048804967 0.00067246  0.00001909  0.0004754 0.0000
 13  -1426.4543319435   0.000001163195 0.00040642  0.00001003  0.0006658 0.0000
 14  -1426.4543369122  -0.000004968701 0.00007674  0.00000308  0.0000620 0.0000
 15  -1426.4543370999  -0.000000187701 0.00005975  0.00000193  0.0000644 0.0000
 16  -1426.4543371979  -0.000000097945 0.00002291  0.00000105  0.0000271 0.0000
 17  -1426.4543372227  -0.000000024779 0.00001526  0.00000050  0.0000102 0.0000
 18  -1426.4543372267  -0.000000004067 0.00000952  0.00000020  0.0000049 0.0000
 19  -1426.4543372299  -0.000000003180 0.00000588  0.00000012  0.0000031 0.0000
 20  -1426.4543372269   0.000000002983 0.00000469  0.00000008  0.0000020 0.0000
 21  -1426.4543372272  -0.000000000284 0.00000270  0.00000004  0.0000011 0.0000
                 **** Energy Check signals convergence ****

               *****************************************************
               *                     SUCCESS                       *
               *           SCF CONVERGED AFTER  22 CYCLES          *
               *****************************************************

Old exchange energy                            =    -47.808472986 Eh
New exchange energy                            =    -47.808474544 Eh
Exchange energy change after final integration =     -0.000001558 Eh
Total energy after final integration           =  -1426.454338781 Eh
Final COS-X integration done in                =    12.551 sec

----------------
TOTAL SCF ENERGY
----------------

Total Energy       :        -1426.45433878 Eh          -38815.79592 eV

Components:
Nuclear Repulsion  :          735.13965293 Eh           20004.16695 eV
Electronic Energy  :        -2161.59399171 Eh          -58819.96286 eV
One Electron Energy:        -3428.44889514 Eh          -93292.83735 eV
Two Electron Energy:         1266.85490343 Eh           34472.87449 eV
Max COSX asymmetry :            0.00000047 Eh               0.00001 eV

Virial components:
Potential Energy   :        -2848.62662442 Eh          -77515.07124 eV
Kinetic Energy     :         1422.17228564 Eh           38699.27533 eV
Virial Ratio       :            2.00301092


DFT components:
N(Alpha)           :       49.000004453379 electrons
N(Beta)            :       48.000004481458 electrons
N(Total)           :       97.000008934837 electrons
E(X)               :      -63.704303198877 Eh       
E(C)               :       -4.594122027784 Eh       
E(XC)              :      -68.298425226661 Eh       
DFET-embed. en.    :        0.000000000000 Eh       

---------------
SCF CONVERGENCE
---------------

  Last Energy change         ...    4.5147e-09  Tolerance :   1.0000e-08
  Last MAX-Density change    ...    0.0000e+00  Tolerance :   1.0000e-07
  Last RMS-Density change    ...    0.0000e+00  Tolerance :   5.0000e-09
  Last DIIS Error            ...    6.8422e-07  Tolerance :   5.0000e-07

             **** THE GBW FILE WAS UPDATED (pbeh-3c.gbw) ****
             **** DENSITY pbeh-3c.scfp WAS UPDATED ****
             **** ENERGY FILE WAS UPDATED (pbeh-3c.en.tmp) ****
----------------------
UHF SPIN CONTAMINATION
----------------------

Warning: in a DFT calculation there is little theoretical justification to 
         calculate <S**2> as in Hartree-Fock theory. We will do it anyways
         but you should keep in mind that the values have only limited relevance

Expectation value of <S**2>     :     0.757451
Ideal value S*(S+1) for S=0.5   :     0.750000
Deviation                       :     0.007451

             **** THE GBW FILE WAS UPDATED (pbeh-3c.gbw) ****
             **** DENSITY pbeh-3c.scfp WAS UPDATED ****
----------------
ORBITAL ENERGIES
----------------
                 SPIN UP ORBITALS
  NO   OCC          E(Eh)            E(eV) 
   0   1.0000    -102.325465     -2784.4175 
   1   1.0000     -89.628190     -2438.9070 
   2   1.0000     -56.688649     -1542.5766 
   3   1.0000     -19.479120      -530.0538 
   4   1.0000     -14.675449      -399.3393 
   5   1.0000     -14.657440      -398.8492 
   6   1.0000     -10.576881      -287.8116 
   7   1.0000     -10.473346      -284.9942 
   8   1.0000     -10.458030      -284.5775 
   9   1.0000      -9.792489      -266.4672 
  10   1.0000      -8.265238      -224.9085 
  11   1.0000      -7.477452      -203.4718 
  12   1.0000      -7.473430      -203.3624 
  13   1.0000      -7.473179      -203.3555 
  14   1.0000      -7.009663      -190.7426 
  15   1.0000      -6.155485      -167.4993 
  16   1.0000      -6.152155      -167.4087 
  17   1.0000      -6.150521      -167.3642 
  18   1.0000      -4.421718      -120.3211 
  19   1.0000      -2.913748       -79.2871 
  20   1.0000      -2.909917       -79.1829 
  21   1.0000      -2.908639       -79.1481 
  22   1.0000      -1.155407       -31.4402 
  23   1.0000      -1.014127       -27.5958 
  24   1.0000      -1.003203       -27.2985 
  25   1.0000      -0.930831       -25.3292 
  26   1.0000      -0.855921       -23.2908 
  27   1.0000      -0.813719       -22.1424 
  28   1.0000      -0.759467       -20.6661 
  29   1.0000      -0.659252       -17.9392 
  30   1.0000      -0.584705       -15.9106 
  31   1.0000      -0.577238       -15.7074 
  32   1.0000      -0.546690       -14.8762 
  33   1.0000      -0.526745       -14.3335 
  34   1.0000      -0.519017       -14.1232 
  35   1.0000      -0.494749       -13.4628 
  36   1.0000      -0.486188       -13.2299 
  37   1.0000      -0.470531       -12.8038 
  38   1.0000      -0.450012       -12.2455 
  39   1.0000      -0.443043       -12.0558 
  40   1.0000      -0.430547       -11.7158 
  41   1.0000      -0.415823       -11.3151 
  42   1.0000      -0.413238       -11.2448 
  43   1.0000      -0.407788       -11.0965 
  44   1.0000      -0.367417        -9.9979 
  45   1.0000      -0.341682        -9.2976 
  46   1.0000      -0.335222        -9.1218 
  47   1.0000      -0.320823        -8.7300 
  48   1.0000      -0.274183        -7.4609 
  49   0.0000      -0.031714        -0.8630 
  50   0.0000      -0.011488        -0.3126 
  51   0.0000       0.012358         0.3363 
  52   0.0000       0.046808         1.2737 
  53   0.0000       0.057665         1.5691 
  54   0.0000       0.069277         1.8851 
  55   0.0000       0.095599         2.6014 
  56   0.0000       0.111764         3.0413 
  57   0.0000       0.139427         3.7940 
  58   0.0000       0.149038         4.0555 
  59   0.0000       0.161688         4.3998 
  60   0.0000       0.184875         5.0307 
  61   0.0000       0.199003         5.4152 
  62   0.0000       0.217386         5.9154 
  63   0.0000       0.233135         6.3439 
  64   0.0000       0.259701         7.0668 
  65   0.0000       0.274996         7.4830 
  66   0.0000       0.285903         7.7798 
  67   0.0000       0.315897         8.5960 
  68   0.0000       0.322373         8.7722 
  69   0.0000       0.331077         9.0091 
  70   0.0000       0.376861        10.2549 
  71   0.0000       0.389170        10.5899 
  72   0.0000       0.400770        10.9055 
  73   0.0000       0.408040        11.1033 
  74   0.0000       0.441956        12.0262 
  75   0.0000       0.458546        12.4777 
  76   0.0000       0.484852        13.1935 
  77   0.0000       0.499563        13.5938 
  78   0.0000       0.516012        14.0414 
  79   0.0000       0.544180        14.8079 
  80   0.0000       0.566480        15.4147 
  81   0.0000       0.579801        15.7772 
  82   0.0000       0.607486        16.5305 
  83   0.0000       0.634587        17.2680 
  84   0.0000       0.639853        17.4113 
  85   0.0000       0.644797        17.5458 
  86   0.0000       0.679521        18.4907 
  87   0.0000       0.681323        18.5397 
  88   0.0000       0.685548        18.6547 
  89   0.0000       0.694815        18.9069 
  90   0.0000       0.711927        19.3725 
  91   0.0000       0.722456        19.6590 
  92   0.0000       0.743328        20.2270 
  93   0.0000       0.754583        20.5333 
  94   0.0000       0.793282        21.5863 
  95   0.0000       0.807693        21.9784 
  96   0.0000       0.813018        22.1233 
  97   0.0000       0.816267        22.2118 
  98   0.0000       0.834759        22.7150 
  99   0.0000       0.861410        23.4402 
 100   0.0000       0.884104        24.0577 
 101   0.0000       0.884607        24.0714 
 102   0.0000       0.901750        24.5379 
 103   0.0000       0.912890        24.8410 
 104   0.0000       0.921104        25.0645 
 105   0.0000       0.945174        25.7195 
 106   0.0000       0.957466        26.0540 
 107   0.0000       0.984329        26.7850 
 108   0.0000       0.993822        27.0433 
 109   0.0000       0.999436        27.1960 
 110   0.0000       1.016678        27.6652 
 111   0.0000       1.025618        27.9085 
 112   0.0000       1.038209        28.2511 
 113   0.0000       1.052031        28.6272 
 114   0.0000       1.089708        29.6525 
 115   0.0000       1.099838        29.9281 
 116   0.0000       1.134573        30.8733 
 117   0.0000       1.144929        31.1551 
 118   0.0000       1.155930        31.4545 
 119   0.0000       1.173989        31.9459 
 120   0.0000       1.196652        32.5626 
 121   0.0000       1.245158        33.8825 
 122   0.0000       1.314491        35.7691 
 123   0.0000       1.383332        37.6424 
 124   0.0000       1.389691        37.8154 
 125   0.0000       1.447301        39.3831 
 126   0.0000       1.456133        39.6234 
 127   0.0000       1.481567        40.3155 
 128   0.0000       1.548839        42.1461 
 129   0.0000       1.638108        44.5752 
 130   0.0000       1.684562        45.8393 
 131   0.0000       1.696382        46.1609 
 132   0.0000       1.714590        46.6564 
 133   0.0000       1.736672        47.2572 
 134   0.0000       1.763446        47.9858 
 135   0.0000       1.840744        50.0892 
 136   0.0000       1.852017        50.3959 
 137   0.0000       1.873925        50.9921 
 138   0.0000       1.891745        51.4770 
 139   0.0000       1.918067        52.1932 
 140   0.0000       1.945983        52.9529 
 141   0.0000       1.994619        54.2763 
 142   0.0000       2.019944        54.9655 
 143   0.0000       2.027679        55.1759 
 144   0.0000       2.055268        55.9267 
 145   0.0000       2.102253        57.2052 
 146   0.0000       2.118634        57.6510 
 147   0.0000       2.188693        59.5574 
 148   0.0000       2.195883        59.7530 
 149   0.0000       2.266608        61.6775 
 150   0.0000       2.278341        61.9968 
 151   0.0000       2.361573        64.2617 
 152   0.0000       2.377795        64.7031 
 153   0.0000       2.395632        65.1885 
 154   0.0000       2.401306        65.3429 
 155   0.0000       2.481651        67.5292 
 156   0.0000       2.509064        68.2751 
 157   0.0000       2.621209        71.3267 
 158   0.0000       2.678269        72.8794 
 159   0.0000       2.720337        74.0241 
 160   0.0000       2.787118        75.8413 
 161   0.0000       2.892721        78.7149 
 162   0.0000       3.041682        82.7684 
 163   0.0000       3.114276        84.7438 
 164   0.0000       9.270996       252.2766 
 165   0.0000      13.767842       374.6420 
 166   0.0000      13.875817       377.5802 
 167   0.0000      14.028948       381.7471 
 168   0.0000      18.986864       516.6588 
 169   0.0000      19.277098       524.5565 
 170   0.0000      25.747409       700.6226 

                 SPIN DOWN ORBITALS
  NO   OCC          E(Eh)            E(eV) 
   0   1.0000    -102.325466     -2784.4175 
   1   1.0000     -89.627468     -2438.8874 
   2   1.0000     -56.688611     -1542.5755 
   3   1.0000     -19.478990      -530.0503 
   4   1.0000     -14.657396      -398.8480 
   5   1.0000     -14.656825      -398.8325 
   6   1.0000     -10.576812      -287.8097 
   7   1.0000     -10.473458      -284.9973 
   8   1.0000     -10.457774      -284.5705 
   9   1.0000      -9.792489      -266.4672 
  10   1.0000      -8.264517      -224.8889 
  11   1.0000      -7.477449      -203.4717 
  12   1.0000      -7.473429      -203.3623 
  13   1.0000      -7.473183      -203.3556 
  14   1.0000      -7.009207      -190.7302 
  15   1.0000      -6.155574      -167.5017 
  16   1.0000      -6.150319      -167.3587 
  17   1.0000      -6.148692      -167.3144 
  18   1.0000      -4.421653      -120.3193 
  19   1.0000      -2.913706       -79.2860 
  20   1.0000      -2.909845       -79.1809 
  21   1.0000      -2.908593       -79.1468 
  22   1.0000      -1.155146       -31.4331 
  23   1.0000      -1.003198       -27.2984 
  24   1.0000      -0.977168       -26.5901 
  25   1.0000      -0.930825       -25.3290 
  26   1.0000      -0.853253       -23.2182 
  27   1.0000      -0.812983       -22.1224 
  28   1.0000      -0.735898       -20.0248 
  29   1.0000      -0.658507       -17.9189 
  30   1.0000      -0.581385       -15.8203 
  31   1.0000      -0.574092       -15.6218 
  32   1.0000      -0.544816       -14.8252 
  33   1.0000      -0.525155       -14.2902 
  34   1.0000      -0.517593       -14.0844 
  35   1.0000      -0.491546       -13.3756 
  36   1.0000      -0.484736       -13.1903 
  37   1.0000      -0.470292       -12.7973 
  38   1.0000      -0.448076       -12.1928 
  39   1.0000      -0.427805       -11.6412 
  40   1.0000      -0.415763       -11.3135 
  41   1.0000      -0.413049       -11.2396 
  42   1.0000      -0.401505       -10.9255 
  43   1.0000      -0.373746       -10.1702 
  44   1.0000      -0.354048        -9.6341 
  45   1.0000      -0.339915        -9.2496 
  46   1.0000      -0.325016        -8.8441 
  47   1.0000      -0.311543        -8.4775 
  48   0.0000      -0.075721        -2.0605 
  49   0.0000      -0.022171        -0.6033 
  50   0.0000      -0.000965        -0.0263 
  51   0.0000       0.017493         0.4760 
  52   0.0000       0.049448         1.3456 
  53   0.0000       0.060317         1.6413 
  54   0.0000       0.077532         2.1098 
  55   0.0000       0.096591         2.6284 
  56   0.0000       0.113070         3.0768 
  57   0.0000       0.142623         3.8810 
  58   0.0000       0.151177         4.1137 
  59   0.0000       0.162482         4.4214 
  60   0.0000       0.185940         5.0597 
  61   0.0000       0.200314         5.4508 
  62   0.0000       0.219753         5.9798 
  63   0.0000       0.235216         6.4006 
  64   0.0000       0.261892         7.1264 
  65   0.0000       0.277555         7.5527 
  66   0.0000       0.288127         7.8403 
  67   0.0000       0.318471         8.6660 
  68   0.0000       0.324944         8.8422 
  69   0.0000       0.332016         9.0346 
  70   0.0000       0.378781        10.3071 
  71   0.0000       0.389571        10.6008 
  72   0.0000       0.401355        10.9214 
  73   0.0000       0.408783        11.1236 
  74   0.0000       0.444923        12.1070 
  75   0.0000       0.460196        12.5226 
  76   0.0000       0.485961        13.2237 
  77   0.0000       0.500804        13.6276 
  78   0.0000       0.517674        14.0866 
  79   0.0000       0.546601        14.8738 
  80   0.0000       0.569330        15.4923 
  81   0.0000       0.581146        15.8138 
  82   0.0000       0.609328        16.5807 
  83   0.0000       0.635541        17.2940 
  84   0.0000       0.646710        17.5979 
  85   0.0000       0.647334        17.6149 
  86   0.0000       0.680358        18.5135 
  87   0.0000       0.684110        18.6156 
  88   0.0000       0.697279        18.9739 
  89   0.0000       0.699119        19.0240 
  90   0.0000       0.714303        19.4372 
  91   0.0000       0.741046        20.1649 
  92   0.0000       0.745014        20.2729 
  93   0.0000       0.763882        20.7863 
  94   0.0000       0.795752        21.6535 
  95   0.0000       0.809476        22.0270 
  96   0.0000       0.814361        22.1599 
  97   0.0000       0.831384        22.6231 
  98   0.0000       0.858876        23.3712 
  99   0.0000       0.870800        23.6957 
 100   0.0000       0.885201        24.0876 
 101   0.0000       0.887611        24.1531 
 102   0.0000       0.914806        24.8931 
 103   0.0000       0.919303        25.0155 
 104   0.0000       0.923141        25.1199 
 105   0.0000       0.946182        25.7469 
 106   0.0000       0.958659        26.0864 
 107   0.0000       0.988967        26.9112 
 108   0.0000       0.998727        27.1767 
 109   0.0000       1.002285        27.2736 
 110   0.0000       1.018297        27.7093 
 111   0.0000       1.026226        27.9250 
 112   0.0000       1.043786        28.4029 
 113   0.0000       1.054468        28.6935 
 114   0.0000       1.093125        29.7455 
 115   0.0000       1.103471        30.0270 
 116   0.0000       1.134908        30.8824 
 117   0.0000       1.150441        31.3051 
 118   0.0000       1.158416        31.5221 
 119   0.0000       1.175702        31.9925 
 120   0.0000       1.199843        32.6494 
 121   0.0000       1.246282        33.9130 
 122   0.0000       1.315543        35.7977 
 123   0.0000       1.384519        37.6747 
 124   0.0000       1.390215        37.8297 
 125   0.0000       1.447595        39.3911 
 126   0.0000       1.479867        40.2692 
 127   0.0000       1.490915        40.5699 
 128   0.0000       1.550402        42.1886 
 129   0.0000       1.638815        44.5944 
 130   0.0000       1.685963        45.8774 
 131   0.0000       1.699206        46.2378 
 132   0.0000       1.720292        46.8115 
 133   0.0000       1.764118        48.0041 
 134   0.0000       1.788527        48.6683 
 135   0.0000       1.843553        50.1656 
 136   0.0000       1.855672        50.4954 
 137   0.0000       1.874793        51.0157 
 138   0.0000       1.892162        51.4883 
 139   0.0000       1.951492        53.1028 
 140   0.0000       1.975397        53.7533 
 141   0.0000       1.995942        54.3123 
 142   0.0000       2.022516        55.0354 
 143   0.0000       2.028522        55.1989 
 144   0.0000       2.056782        55.9679 
 145   0.0000       2.103879        57.2495 
 146   0.0000       2.119400        57.6718 
 147   0.0000       2.188940        59.5641 
 148   0.0000       2.197094        59.7860 
 149   0.0000       2.277883        61.9844 
 150   0.0000       2.312749        62.9331 
 151   0.0000       2.362333        64.2824 
 152   0.0000       2.378232        64.7150 
 153   0.0000       2.397290        65.2336 
 154   0.0000       2.401855        65.3578 
 155   0.0000       2.490561        67.7716 
 156   0.0000       2.512070        68.3569 
 157   0.0000       2.621802        71.3429 
 158   0.0000       2.678643        72.8896 
 159   0.0000       2.720764        74.0357 
 160   0.0000       2.787470        75.8509 
 161   0.0000       2.893027        78.7233 
 162   0.0000       3.041844        82.7728 
 163   0.0000       3.114491        84.7496 
 164   0.0000       9.271808       252.2987 
 165   0.0000      13.767744       374.6394 
 166   0.0000      13.876065       377.5869 
 167   0.0000      14.029155       381.7527 
 168   0.0000      19.012359       517.3526 
 169   0.0000      19.277171       524.5585 
 170   0.0000      25.747573       700.6271 

                    ********************************
                    * MULLIKEN POPULATION ANALYSIS *
                    ********************************

--------------------------------------------
MULLIKEN ATOMIC CHARGES AND SPIN POPULATIONS
--------------------------------------------
   0 C :   -0.769849    0.011920
   1 Cl:   -0.271370    0.000005
   2 N :   -0.775476    0.001500
   3 O :   -0.368977    0.003227
   4 Al:    0.907560    0.003445
   5 C :   -0.969109   -0.008508
   6 S :    0.114995    0.103303
   7 H :    0.226768    0.003527
   8 H :    0.281586   -0.000187
   9 H :    0.260096   -0.001264
  10 N :   -0.572538    0.830265
  11 H :    0.295374    0.003360
  12 C :    0.502160    0.000967
  13 B :    0.440355    0.081656
  14 H :    0.344983   -0.033154
  15 H :    0.353443   -0.000062
Sum of atomic charges         :   -0.0000000
Sum of atomic spin populations:    1.0000000

-----------------------------------------------------
MULLIKEN REDUCED ORBITAL CHARGES AND SPIN POPULATIONS
-----------------------------------------------------
CHARGE
  0 C s       :     3.369013  s :     3.369013
      pz      :     1.014177  p :     3.376940
      px      :     1.181595
      py      :     1.181167
      dz2     :     0.004288  d :     0.023896
      dxz     :     0.005978
      dyz     :     0.003748
      dx2y2   :     0.004825
      dxy     :     0.005057
  1 Cls       :     5.938820  s :     5.938820
      pz      :     3.634370  p :    11.318403
      px      :     3.810578
      py      :     3.873455
      dz2     :     0.005294  d :     0.014146
      dxz     :     0.005050
      dyz     :     0.002410
      dx2y2   :     0.000749
      dxy     :     0.000644
  2 N s       :     3.621375  s :     3.621375
      pz      :     1.349370  p :     4.131571
      px      :     1.227443
      py      :     1.554759
      dz2     :     0.002292  d :     0.022530
      dxz     :     0.009019
      dyz     :     0.002516
      dx2y2   :     0.004085
      dxy     :     0.004618
  3 O s       :     3.761055  s :     3.761055
      pz      :     1.386946  p :     4.577695
      px      :     1.718853
      py      :     1.471895
      dz2     :     0.010551  d :     0.030228
      dxz     :     0.008078
      dyz     :     0.010478
      dx2y2   :     0.000583
      dxy     :     0.000539
  4 Als       :     4.757963  s :     4.757963
      pz      :     2.304198  p :     7.005565
      px      :     2.401075
      py      :     2.300292
      dz2     :     0.095022  d :     0.328912
      dxz     :     0.097410
      dyz     :     0.068549
      dx2y2   :     0.034939
      dxy     :     0.032991
  5 C s       :     3.464859  s :     3.464859
      pz      :     1.193726  p :     3.477217
      px      :     1.099732
      py      :     1.183759
      dz2     :     0.004445  d :     0.027033
      dxz     :     0.005516
      dyz     :     0.007969
      dx2y2   :     0.006478
      dxy     :     0.002624
  6 S s       :     5.800591  s :     5.800591
      pz      :     3.542370  p :     9.956857
      px      :     3.285514
      py      :     3.128973
      dz2     :     0.015289  d :     0.127557
      dxz     :     0.020610
      dyz     :     0.022269
      dx2y2   :     0.038315
      dxy     :     0.031074
  7 H s       :     0.773232  s :     0.773232
  8 H s       :     0.718414  s :     0.718414
  9 H s       :     0.739904  s :     0.739904
 10 N s       :     3.786205  s :     3.786205
      pz      :     1.204786  p :     3.750401
      px      :     1.439407
      py      :     1.106208
      dz2     :     0.003967  d :     0.035932
      dxz     :     0.010043
      dyz     :     0.004687
      dx2y2   :     0.006581
      dxy     :     0.010654
 11 H s       :     0.704626  s :     0.704626
 12 C s       :     3.007847  s :     3.007847
      pz      :     0.825905  p :     2.365481
      px      :     0.772412
      py      :     0.767164
      dz2     :     0.031443  d :     0.124511
      dxz     :     0.043883
      dyz     :     0.027047
      dx2y2   :     0.011456
      dxy     :     0.010682
 13 B s       :     2.769856  s :     2.769856
      pz      :     0.513809  p :     1.751665
      px      :     0.561605
      py      :     0.676251
      dz2     :     0.005227  d :     0.038124
      dxz     :     0.006417
      dyz     :     0.006484
      dx2y2   :     0.009466
      dxy     :     0.010530
 14 H s       :     0.655017  s :     0.655017
 15 H s       :     0.646557  s :     0.646557

SPIN
  0 C s       :     0.000979  s :     0.000979
      pz      :     0.007952  p :     0.010731
      px      :     0.003122
      py      :    -0.000343
      dz2     :     0.000042  d :     0.000210
      dxz     :     0.000176
      dyz     :    -0.000021
      dx2y2   :     0.000004
      dxy     :     0.000009
  1 Cls       :     0.000032  s :     0.000032
      pz      :     0.000206  p :    -0.000028
      px      :    -0.000202
      py      :    -0.000033
      dz2     :    -0.000002  d :     0.000002
      dxz     :     0.000003
      dyz     :     0.000001
      dx2y2   :    -0.000001
      dxy     :     0.000000
  2 N s       :     0.000139  s :     0.000139
      pz      :     0.000859  p :     0.001362
      px      :     0.000324
      py      :     0.000180
      dz2     :     0.000005  d :    -0.000002
      dxz     :    -0.000005
      dyz     :     0.000003
      dx2y2   :    -0.000002
      dxy     :    -0.000003
  3 O s       :     0.000110  s :     0.000110
      pz      :     0.001009  p :     0.003135
      px      :     0.002324
      py      :    -0.000198
      dz2     :    -0.000007  d :    -0.000018
      dxz     :    -0.000012
      dyz     :     0.000002
      dx2y2   :    -0.000001
      dxy     :    -0.000001
  4 Als       :     0.002332  s :     0.002332
      pz      :     0.000647  p :     0.000061
      px      :    -0.002272
      py      :     0.001687
      dz2     :     0.000155  d :     0.001052
      dxz     :     0.000558
      dyz     :     0.000190
      dx2y2   :    -0.000101
      dxy     :     0.000250
  5 C s       :    -0.002055  s :    -0.002055
      pz      :    -0.000588  p :    -0.006771
      px      :    -0.002314
      py      :    -0.003869
      dz2     :     0.000027  d :     0.000318
      dxz     :     0.000062
      dyz     :     0.000138
      dx2y2   :     0.000112
      dxy     :    -0.000020
  6 S s       :    -0.002395  s :    -0.002395
      pz      :     0.066499  p :     0.089505
      px      :     0.014824
      py      :     0.008183
      dz2     :    -0.000249  d :     0.016192
      dxz     :     0.004367
      dyz     :     0.004350
      dx2y2   :     0.007952
      dxy     :    -0.000228
  7 H s       :     0.003527  s :     0.003527
  8 H s       :    -0.000187  s :    -0.000187
  9 H s       :    -0.001264  s :    -0.001264
 10 N s       :     0.034823  s :     0.034823
      pz      :     0.391500  p :     0.796501
      px      :     0.185561
      py      :     0.219440
      dz2     :     0.000440  d :    -0.001059
      dxz     :    -0.000448
      dyz     :    -0.000991
      dx2y2   :    -0.000436
      dxy     :     0.000377
 11 H s       :     0.003360  s :     0.003360
 12 C s       :     0.000346  s :     0.000346
      pz      :     0.000321  p :     0.000552
      px      :     0.000436
      py      :    -0.000205
      dz2     :     0.000003  d :     0.000069
      dxz     :     0.000075
      dyz     :    -0.000020
      dx2y2   :     0.000014
      dxy     :    -0.000004
 13 B s       :     0.010623  s :     0.010623
      pz      :     0.037481  p :     0.070086
      px      :     0.015178
      py      :     0.017427
      dz2     :     0.000550  d :     0.000947
      dxz     :     0.000038
      dyz     :    -0.000006
      dx2y2   :     0.000178
      dxy     :     0.000187
 14 H s       :    -0.033154  s :    -0.033154
 15 H s       :    -0.000062  s :    -0.000062


                     *******************************
                     * LOEWDIN POPULATION ANALYSIS *
                     *******************************

-------------------------------------------
LOEWDIN ATOMIC CHARGES AND SPIN POPULATIONS
-------------------------------------------
   0 C :   -0.382594    0.016276
   1 Cl:   -0.020882   -0.000020
   2 N :   -0.359505    0.001386
   3 O :   -0.230417    0.003211
   4 Al:    0.378233    0.007009
   5 C :   -0.463301   -0.002746
   6 S :    0.383731    0.134868
   7 H :    0.162487    0.002933
   8 H :    0.168701   -0.000039
   9 H :    0.168996   -0.000562
  10 N :   -0.451780    0.791949
  11 H :    0.184827    0.003413
  12 C :    0.148148    0.002255
  13 B :   -0.169285    0.061110
  14 H :    0.220148   -0.021029
  15 H :    0.262492   -0.000015

----------------------------------------------------
LOEWDIN REDUCED ORBITAL CHARGES AND SPIN POPULATIONS
----------------------------------------------------
CHARGE
  0 C s       :     2.926170  s :     2.926170
      pz      :     1.076632  p :     3.404778
      px      :     1.169121
      py      :     1.159025
      dz2     :     0.008416  d :     0.051646
      dxz     :     0.014409
      dyz     :     0.008099
      dx2y2   :     0.009430
      dxy     :     0.011292
  1 Cls       :     5.762963  s :     5.762963
      pz      :     3.616344  p :    11.244084
      px      :     3.786000
      py      :     3.841740
      dz2     :     0.005419  d :     0.013836
      dxz     :     0.005268
      dyz     :     0.001936
      dx2y2   :     0.000702
      dxy     :     0.000512
  2 N s       :     3.180210  s :     3.180210
      pz      :     1.358281  p :     4.130886
      px      :     1.255044
      py      :     1.517560
      dz2     :     0.006377  d :     0.048409
      dxz     :     0.018926
      dyz     :     0.005220
      dx2y2   :     0.008481
      dxy     :     0.009407
  3 O s       :     3.519092  s :     3.519092
      pz      :     1.478294  p :     4.654936
      px      :     1.710107
      py      :     1.466535
      dz2     :     0.025428  d :     0.056388
      dxz     :     0.014758
      dyz     :     0.014414
      dx2y2   :     0.000906
      dxy     :     0.000883
  4 Als       :     4.651313  s :     4.651313
      pz      :     2.543553  p :     7.414638
      px      :     2.509786
      py      :     2.361298
      dz2     :     0.159642  d :     0.555816
      dxz     :     0.172514
      dyz     :     0.110222
      dx2y2   :     0.055840
      dxy     :     0.057599
  5 C s       :     2.973505  s :     2.973505
      pz      :     1.151924  p :     3.441894
      px      :     1.095526
      py      :     1.194444
      dz2     :     0.007111  d :     0.047902
      dxz     :     0.008929
      dyz     :     0.013328
      dx2y2   :     0.012200
      dxy     :     0.006333
  6 S s       :     5.509279  s :     5.509279
      pz      :     3.514450  p :     9.939625
      px      :     3.244839
      py      :     3.180337
      dz2     :     0.019931  d :     0.167364
      dxz     :     0.024369
      dyz     :     0.028529
      dx2y2   :     0.049308
      dxy     :     0.045227
  7 H s       :     0.837513  s :     0.837513
  8 H s       :     0.831299  s :     0.831299
  9 H s       :     0.831004  s :     0.831004
 10 N s       :     3.501213  s :     3.501213
      pz      :     1.234791  p :     3.891025
      px      :     1.463340
      py      :     1.192894
      dz2     :     0.006993  d :     0.059542
      dxz     :     0.013446
      dyz     :     0.009766
      dx2y2   :     0.011671
      dxy     :     0.017667
 11 H s       :     0.815173  s :     0.815173
 12 C s       :     2.805950  s :     2.805950
      pz      :     1.025997  p :     2.763699
      px      :     0.933585
      py      :     0.804117
      dz2     :     0.072390  d :     0.282202
      dxz     :     0.107435
      dyz     :     0.055923
      dx2y2   :     0.023701
      dxy     :     0.022753
 13 B s       :     2.735489  s :     2.735489
      pz      :     0.656343  p :     2.349197
      px      :     0.831083
      py      :     0.861771
      dz2     :     0.010713  d :     0.084599
      dxz     :     0.014265
      dyz     :     0.014245
      dx2y2   :     0.022303
      dxy     :     0.023074
 14 H s       :     0.779852  s :     0.779852
 15 H s       :     0.737508  s :     0.737508

SPIN
  0 C s       :     0.000311  s :     0.000311
      pz      :     0.010159  p :     0.015507
      px      :     0.004826
      py      :     0.000522
      dz2     :     0.000094  d :     0.000458
      dxz     :     0.000334
      dyz     :     0.000025
      dx2y2   :    -0.000006
      dxy     :     0.000010
  1 Cls       :     0.000009  s :     0.000009
      pz      :     0.000197  p :    -0.000038
      px      :    -0.000218
      py      :    -0.000017
      dz2     :    -0.000000  d :     0.000010
      dxz     :     0.000011
      dyz     :     0.000002
      dx2y2   :    -0.000003
      dxy     :     0.000000
  2 N s       :     0.000105  s :     0.000105
      pz      :     0.000727  p :     0.001234
      px      :     0.000283
      py      :     0.000223
      dz2     :     0.000022  d :     0.000047
      dxz     :     0.000019
      dyz     :     0.000013
      dx2y2   :     0.000000
      dxy     :    -0.000007
  3 O s       :     0.000091  s :     0.000091
      pz      :     0.000939  p :     0.003099
      px      :     0.002344
      py      :    -0.000184
      dz2     :     0.000005  d :     0.000021
      dxz     :     0.000018
      dyz     :     0.000000
      dx2y2   :    -0.000001
      dxy     :    -0.000001
  4 Als       :     0.002234  s :     0.002234
      pz      :     0.000137  p :     0.002267
      px      :     0.000157
      py      :     0.001974
      dz2     :     0.000525  d :     0.002508
      dxz     :     0.000857
      dyz     :     0.000259
      dx2y2   :     0.000328
      dxy     :     0.000539
  5 C s       :    -0.000839  s :    -0.000839
      pz      :    -0.000333  p :    -0.002698
      px      :    -0.000740
      py      :    -0.001625
      dz2     :     0.000065  d :     0.000791
      dxz     :     0.000135
      dyz     :     0.000281
      dx2y2   :     0.000318
      dxy     :    -0.000007
  6 S s       :     0.001161  s :     0.001161
      pz      :     0.068235  p :     0.108698
      px      :     0.022293
      py      :     0.018169
      dz2     :     0.000524  d :     0.025010
      dxz     :     0.005854
      dyz     :     0.006414
      dx2y2   :     0.011598
      dxy     :     0.000621
  7 H s       :     0.002933  s :     0.002933
  8 H s       :    -0.000039  s :    -0.000039
  9 H s       :    -0.000562  s :    -0.000562
 10 N s       :     0.021831  s :     0.021831
      pz      :     0.381404  p :     0.771308
      px      :     0.180725
      py      :     0.209179
      dz2     :     0.000433  d :    -0.001190
      dxz     :    -0.000604
      dyz     :    -0.000597
      dx2y2   :    -0.000492
      dxy     :     0.000070
 11 H s       :     0.003413  s :     0.003413
 12 C s       :     0.000536  s :     0.000536
      pz      :     0.000838  p :     0.001534
      px      :     0.000824
      py      :    -0.000127
      dz2     :     0.000047  d :     0.000184
      dxz     :     0.000170
      dyz     :    -0.000032
      dx2y2   :     0.000007
      dxy     :    -0.000008
 13 B s       :     0.001662  s :     0.001662
      pz      :     0.037200  p :     0.057236
      px      :     0.009045
      py      :     0.010991
      dz2     :     0.001296  d :     0.002211
      dxz     :     0.000081
      dyz     :     0.000045
      dx2y2   :     0.000372
      dxy     :     0.000417
 14 H s       :    -0.021029  s :    -0.021029
 15 H s       :    -0.000015  s :    -0.000015


                      *****************************
                      * MAYER POPULATION ANALYSIS *
                      *****************************

  NA   - Mulliken gross atomic population
  ZA   - Total nuclear charge
  QA   - Mulliken gross atomic charge
  VA   - Mayer's total valence
  BVA  - Mayer's bonded valence
  FA   - Mayer's free valence

  ATOM       NA         ZA         QA         VA         BVA        FA
  0 C      6.7698     6.0000    -0.7698     3.6197     3.6194     0.0003
  1 Cl    17.2714    17.0000    -0.2714     1.1918     1.1918     0.0000
  2 N      7.7755     7.0000    -0.7755     2.9255     2.9255     0.0000
  3 O      8.3690     8.0000    -0.3690     2.2484     2.2484     0.0000
  4 Al    12.0924    13.0000     0.9076     3.1515     3.1514     0.0001
  5 C      6.9691     6.0000    -0.9691     3.6634     3.6633     0.0000
  6 S     15.8850    16.0000     0.1150     2.6069     2.5722     0.0347
  7 H      0.7732     1.0000     0.2268     0.8998     0.8998     0.0000
  8 H      0.7184     1.0000     0.2816     0.8887     0.8887     0.0000
  9 H      0.7399     1.0000     0.2601     0.9129     0.9129     0.0000
 10 N      7.5725     7.0000    -0.5725     2.8406     2.2482     0.5924
 11 H      0.7046     1.0000     0.2954     0.8812     0.8812     0.0000
 12 C      5.4978     6.0000     0.5022     4.0504     4.0504     0.0000
 13 B      4.5596     5.0000     0.4404     3.3163     3.3112     0.0050
 14 H      0.6550     1.0000     0.3450     0.8526     0.8515     0.0011
 15 H      0.6466     1.0000     0.3534     0.8582     0.8582     0.0000

  Mayer bond orders larger than 0.100000
B(  0-C ,  4-Al) :   0.6851 B(  0-C ,  9-H ) :   0.8845 B(  0-C , 12-C ) :   0.8935 
B(  0-C , 13-B ) :   1.0700 B(  1-Cl,  4-Al) :   1.1399 B(  2-N ,  4-Al) :   0.9326 
B(  2-N , 12-C ) :   1.0676 B(  2-N , 15-H ) :   0.8182 B(  3-O , 12-C ) :   2.0749 
B(  4-Al,  5-C ) :   0.1289 B(  4-Al, 13-B ) :   0.1141 B(  5-C ,  7-H ) :   0.8517 
B(  5-C ,  8-H ) :   0.8944 B(  5-C , 11-H ) :   0.8787 B(  5-C , 13-B ) :   0.8732 
B(  6-S , 10-N ) :   1.3135 B(  6-S , 13-B ) :   1.1824 B( 10-N , 14-H ) :   0.8097 


-------
TIMINGS
-------

Total SCF time: 0 days 0 hours 4 min 55 sec 

Total time                  ....     295.500 sec
Sum of individual times     ....     281.106 sec  ( 95.1%)

Fock matrix formation       ....     232.599 sec  ( 78.7%)
  Split-RI-J                ....      19.672 sec  (  8.5% of F)
  Chain of spheres X        ....      93.618 sec  ( 40.2% of F)
  XC integration            ....      57.840 sec  ( 24.9% of F)
    Basis function eval.    ....       9.405 sec  ( 16.3% of XC)
    Density eval.           ....       9.501 sec  ( 16.4% of XC)
    XC-Functional eval.     ....       4.524 sec  (  7.8% of XC)
    XC-Potential eval.      ....       5.479 sec  (  9.5% of XC)
Diagonalization             ....      15.222 sec  (  5.2%)
Density matrix formation    ....       0.658 sec  (  0.2%)
Population analysis         ....       2.164 sec  (  0.7%)
Initial guess               ....       0.148 sec  (  0.1%)
Orbital Transformation      ....       0.000 sec  (  0.0%)
Orbital Orthonormalization  ....       0.000 sec  (  0.0%)
DIIS solution               ....      21.419 sec  (  7.2%)
Grid generation             ....       8.895 sec  (  3.0%)

Maximum memory used throughout the entire SCF-calculation: 59.7 MB


-------------------------------------------------------------------------------
                          DFT DISPERSION CORRECTION                            
                                                                               
                              DFTD3 V3.1  Rev 1                                
                          USING Becke-Johnson damping                          
-------------------------------------------------------------------------------
The PBEh-3c composite method is recognized
Using three-body term ABC
Active option DFTDOPT                   ...         4   

molecular C6(AA) [au] = 5391.266504 


            DFT-D V3
 parameters
 s6 scaling factor         :     1.0000 
 a1 scaling factor         :     0.4860 
 s8 scaling factor         :     0.0000 
 a2 scaling factor         :     4.5000 
 Damping factor alpha9(ATM):    16.0000 
 ad hoc parameters k1-k3   :    16.0000     1.3333    -4.0000 

 Edisp/kcal,au: -6.318177295672  -0.010068655348 
 E6   /kcal   :  -6.361756183 
 E8   /kcal   :  -0.000000000 
 E6(ABC)      :   0.043578887 
 % E8         :   0.000000000 
 % E6(ABC)    :  -0.689738279 

-------------------------   ----------------
Dispersion correction           -0.010068655
-------------------------   ----------------

------------------   -----------------
gCP correction             0.020803327
------------------   -----------------

-------------------------   --------------------
FINAL SINGLE POINT ENERGY     -1426.443604109016
-------------------------   --------------------


                            ***************************************
                            *     ORCA property calculations      *
                            ***************************************

                                    ---------------------
                                    Active property flags
                                    ---------------------
   (+) Dipole Moment


------------------------------------------------------------------------------
                       ORCA ELECTRIC PROPERTIES CALCULATION
------------------------------------------------------------------------------

Dipole Moment Calculation                       ... on
Quadrupole Moment Calculation                   ... off
Polarizability Calculation                      ... off
GBWName                                         ... pbeh-3c.gbw
Electron density                                ... pbeh-3c.scfp
The origin for moment calculation is the CENTER OF MASS  = ( 0.348453, -0.536439  0.803146)

-------------
DIPOLE MOMENT
-------------
                                X             Y             Z
Electronic contribution:      6.15332      -3.46417       6.08408
Nuclear contribution   :     -4.78544       4.15385      -5.54136
                        -----------------------------------------
Total Dipole Moment    :      1.36789       0.68968       0.54272
                        -----------------------------------------
Magnitude (a.u.)       :      1.62521
Magnitude (Debye)      :      4.13096



--------------------
Rotational spectrum 
--------------------
 
Rotational constants in cm-1:     0.031799     0.021387     0.015047 
Rotational constants in MHz :   953.296934   641.162911   451.099908 

 Dipole components along the rotational axes: 
x,y,z [a.u.] :     1.422028     0.445995     0.648259 
x,y,z [Debye]:     3.614507     1.133629     1.647744 

 

Timings for individual modules:

Sum of individual times         ...      298.395 sec (=   4.973 min)
GTO integral calculation        ...        2.102 sec (=   0.035 min)   0.7 %
SCF iterations                  ...      296.293 sec (=   4.938 min)  99.3 %
                             ****ORCA TERMINATED NORMALLY****
TOTAL RUN TIME: 0 days 0 hours 5 minutes 3 seconds 950 msec
