
                                 *****************
                                 * O   R   C   A *
                                 *****************

                                            #,                                       
                                            ###                                      
                                            ####                                     
                                            #####                                    
                                            ######                                   
                                           ########,                                 
                                     ,,################,,,,,                         
                               ,,#################################,,                 
                          ,,##########################################,,             
                       ,#########################################, ''#####,          
                    ,#############################################,,   '####,        
                  ,##################################################,,,,####,       
                ,###########''''           ''''###############################       
              ,#####''   ,,,,##########,,,,          '''####'''          '####       
            ,##' ,,,,###########################,,,                        '##       
           ' ,,###''''                  '''############,,,                           
         ,,##''                                '''############,,,,        ,,,,,,###''
      ,#''                                            '''#######################'''  
     '                                                          ''''####''''         
             ,#######,   #######,   ,#######,      ##                                
            ,#'     '#,  ##    ##  ,#'     '#,    #''#        ######   ,####,        
            ##       ##  ##   ,#'  ##            #'  '#       #        #'  '#        
            ##       ##  #######   ##           ,######,      #####,   #    #        
            '#,     ,#'  ##    ##  '#,     ,#' ,#      #,         ##   #,  ,#        
             '#######'   ##     ##  '#######'  #'      '#     #####' # '####'        



                  #######################################################
                  #                        -***-                        #
                  #          Department of theory and spectroscopy      #
                  #    Directorship and core code : Frank Neese         #
                  #        Max Planck Institute fuer Kohlenforschung    #
                  #                Kaiser Wilhelm Platz 1               #
                  #                 D-45470 Muelheim/Ruhr               #
                  #                      Germany                        #
                  #                                                     #
                  #                  All rights reserved                #
                  #                        -***-                        #
                  #######################################################


                         Program Version 5.0.3 -  RELEASE  -


 With contributions from (in alphabetic order):
   Daniel Aravena         : Magnetic Suceptibility
   Michael Atanasov       : Ab Initio Ligand Field Theory (pilot matlab implementation)
   Alexander A. Auer      : GIAO ZORA, VPT2 properties, NMR spectrum
   Ute Becker             : Parallelization
   Giovanni Bistoni       : ED, misc. LED, open-shell LED, HFLD
   Martin Brehm           : Molecular dynamics
   Dmytro Bykov           : SCF Hessian
   Vijay G. Chilkuri      : MRCI spin determinant printing, contributions to CSF-ICE
   Dipayan Datta          : RHF DLPNO-CCSD density
   Achintya Kumar Dutta   : EOM-CC, STEOM-CC
   Dmitry Ganyushin       : Spin-Orbit,Spin-Spin,Magnetic field MRCI
   Miquel Garcia          : C-PCM and meta-GGA Hessian, CC/C-PCM, Gaussian charge scheme
   Yang Guo               : DLPNO-NEVPT2, F12-NEVPT2, CIM, IAO-localization
   Andreas Hansen         : Spin unrestricted coupled pair/coupled cluster methods
   Benjamin Helmich-Paris : MC-RPA, TRAH-SCF, COSX integrals
   Lee Huntington         : MR-EOM, pCC
   Robert Izsak           : Overlap fitted RIJCOSX, COSX-SCS-MP3, EOM
   Marcus Kettner         : VPT2
   Christian Kollmar      : KDIIS, OOCD, Brueckner-CCSD(T), CCSD density, CASPT2, CASPT2-K
   Simone Kossmann        : Meta GGA functionals, TD-DFT gradient, OOMP2, MP2 Hessian
   Martin Krupicka        : Initial AUTO-CI
   Lucas Lang             : DCDCAS
   Marvin Lechner         : AUTO-CI (C++ implementation), FIC-MRCC
   Dagmar Lenk            : GEPOL surface, SMD
   Dimitrios Liakos       : Extrapolation schemes; Compound Job, initial MDCI parallelization
   Dimitrios Manganas     : Further ROCIS development; embedding schemes
   Dimitrios Pantazis     : SARC Basis sets
   Anastasios Papadopoulos: AUTO-CI, single reference methods and gradients
   Taras Petrenko         : DFT Hessian,TD-DFT gradient, ASA, ECA, R-Raman, ABS, FL, XAS/XES, NRVS
   Peter Pinski           : DLPNO-MP2, DLPNO-MP2 Gradient
   Christoph Reimann      : Effective Core Potentials
   Marius Retegan         : Local ZFS, SOC
   Christoph Riplinger    : Optimizer, TS searches, QM/MM, DLPNO-CCSD(T), (RO)-DLPNO pert. Triples
   Tobias Risthaus        : Range-separated hybrids, TD-DFT gradient, RPA, STAB
   Michael Roemelt        : Original ROCIS implementation
   Masaaki Saitow         : Open-shell DLPNO-CCSD energy and density
   Barbara Sandhoefer     : DKH picture change effects
   Avijit Sen             : IP-ROCIS
   Kantharuban Sivalingam : CASSCF convergence, NEVPT2, FIC-MRCI
   Bernardo de Souza      : ESD, SOC TD-DFT
   Georgi Stoychev        : AutoAux, RI-MP2 NMR, DLPNO-MP2 response
   Willem Van den Heuvel  : Paramagnetic NMR
   Boris Wezisla          : Elementary symmetry handling
   Frank Wennmohs         : Technical directorship


 We gratefully acknowledge several colleagues who have allowed us to
 interface, adapt or use parts of their codes:
   Stefan Grimme, W. Hujo, H. Kruse, P. Pracht,  : VdW corrections, initial TS optimization,
                  C. Bannwarth, S. Ehlert          DFT functionals, gCP, sTDA/sTD-DF
   Ed Valeev, F. Pavosevic, A. Kumar             : LibInt (2-el integral package), F12 methods
   Garnet Chan, S. Sharma, J. Yang, R. Olivares  : DMRG
   Ulf Ekstrom                                   : XCFun DFT Library
   Mihaly Kallay                                 : mrcc  (arbitrary order and MRCC methods)
   Jiri Pittner, Ondrej Demel                    : Mk-CCSD
   Frank Weinhold                                : gennbo (NPA and NBO analysis)
   Christopher J. Cramer and Donald G. Truhlar   : smd solvation model
   Lars Goerigk                                  : TD-DFT with DH, B97 family of functionals
   V. Asgeirsson, H. Jonsson                     : NEB implementation
   FAccTs GmbH                                   : IRC, NEB, NEB-TS, DLPNO-Multilevel, CI-OPT
                                                   MM, QMMM, 2- and 3-layer-ONIOM, Crystal-QMMM,
                                                   LR-CPCM, SF, NACMEs, symmetry and pop. for TD-DFT,
                                                   nearIR, NL-DFT gradient (VV10), updates on ESD,
                                                   ML-optimized integration grids
   S Lehtola, MJT Oliveira, MAL Marques          : LibXC Library
   Liviu Ungur et al                             : ANISO software


 Your calculation uses the libint2 library for the computation of 2-el integrals
 For citations please refer to: http://libint.valeyev.net

 Your ORCA version has been built with support for libXC version: 5.1.0
 For citations please refer to: https://tddft.org/programs/libxc/

 This ORCA versions uses:
   CBLAS   interface :  Fast vector & matrix operations
   LAPACKE interface :  Fast linear algebra routines
   SCALAPACK package :  Parallel linear algebra routines
   Shared memory     :  Shared parallel matrices
   BLAS/LAPACK       :  OpenBLAS 0.3.15  USE64BITINT DYNAMIC_ARCH NO_AFFINITY Haswell SINGLE_THREADED
        Core in use  :  Haswell
   Copyright (c) 2011-2014, The OpenBLAS Project




***************************************
The coordinates will be read from file: 13ts_9a.xyz
***************************************


Your calculation utilizes the geometrical counterpoise correction gCP
Please cite in your paper:
H.Kruse, S. Grimme J.Chem.Phys., 136, (2012), 154101 
   

Your calculation utilizes the atom-pairwise dispersion correction
with the Becke-Johnson damping scheme (D3BJ)
Cite in your paper:
S.Grimme, S.Ehrlich, L.Goerigk, J Comput Chem, (2011), 32, 1456–1465 
S.Grimme, J.Antony, S.Ehrlich and H.Krieg, J.Chem.Phys., 132, (2010), 154104 
   

Your calculation employs the composite approach PBEh-3c.
Please cite in your paper:
S. Grimme, J. G. Brandenburg, C. Bannwarth, A. Hansen J.Chem.Phys., 143, (2015), 054107 
   

================================================================================

----- Orbital basis set information -----
Your calculation utilizes the basis: def2-mSVP

----- AuxJ basis set information -----
Your calculation utilizes the auxiliary basis: def2/J
   F. Weigend, Phys. Chem. Chem. Phys. 8, 1057 (2006).

================================================================================
                                        WARNINGS
                       Please study these warnings very carefully!
================================================================================


INFO   : the flag for use of the SHARK integral package has been found!

================================================================================
                                       INPUT FILE
================================================================================
NAME = pbeh-3c.inp
|  1> ! PBEh-3c def2/J TightSCF DefGrid3
|  2> 
|  3> %maxcore 60000
|  4> 
|  5> %pal
|  6> nprocs 4
|  7> end
|  8> 
|  9> *xyzfile 0 1 13ts_9a.xyz
| 10> 
| 11>                          ****END OF INPUT****
================================================================================

                       ****************************
                       * Single Point Calculation *
                       ****************************

---------------------------------
CARTESIAN COORDINATES (ANGSTROEM)
---------------------------------
  C      1.433624   -0.071723    0.682001
  C      1.433624   -0.071723   -0.682001
  C     -0.965829    0.171833   -1.199581
  N     -1.342659   -0.307346    0.000000
  C     -0.965829    0.171833    1.199581
  H      1.473497   -0.996497    1.244155
  H      1.659326    0.827211    1.242876
  H      1.473497   -0.996497   -1.244155
  H      1.659326    0.827211   -1.242876
  H     -0.816227    1.237067   -1.285514
  H     -1.295519   -0.375993   -2.070481
  H     -1.635083   -1.276449    0.000000
  H     -0.816227    1.237067    1.285514
  H     -1.295519   -0.375993    2.070481

----------------------------
CARTESIAN COORDINATES (A.U.)
----------------------------
  NO LB      ZA    FRAG     MASS         X           Y           Z
   0 C     6.0000    0    12.011    2.709156   -0.135538    1.288795
   1 C     6.0000    0    12.011    2.709156   -0.135538   -1.288795
   2 C     6.0000    0    12.011   -1.825152    0.324717   -2.266880
   3 N     7.0000    0    14.007   -2.537258   -0.580799    0.000000
   4 C     6.0000    0    12.011   -1.825152    0.324717    2.266880
   5 H     1.0000    0     1.008    2.784506   -1.883107    2.351112
   6 H     1.0000    0     1.008    3.135671    1.563202    2.348696
   7 H     1.0000    0     1.008    2.784506   -1.883107   -2.351112
   8 H     1.0000    0     1.008    3.135671    1.563202   -2.348696
   9 H     1.0000    0     1.008   -1.542445    2.337717   -2.429269
  10 H     1.0000    0     1.008   -2.448177   -0.710523   -3.912642
  11 H     1.0000    0     1.008   -3.089859   -2.412139    0.000000
  12 H     1.0000    0     1.008   -1.542445    2.337717    2.429269
  13 H     1.0000    0     1.008   -2.448177   -0.710523    3.912642

--------------------------------
INTERNAL COORDINATES (ANGSTROEM)
--------------------------------
 C      0   0   0     0.000000000000     0.00000000     0.00000000
 C      1   0   0     1.364001800000     0.00000000     0.00000000
 C      2   1   0     2.466694768734   102.11224596     0.00000000
 N      3   2   1     1.345588553668    92.87705350   337.47700111
 C      4   3   2     1.345588553668   126.12266183    55.76158442
 H      1   2   3     1.082965213411   121.27107474    98.26483980
 H      1   2   3     1.083330880526   121.18027430   261.70164848
 H      2   1   3     1.082965213411   121.27107474   261.73516020
 H      2   1   3     1.083330880526   121.18027430    98.29835152
 H      3   2   1     1.079114345691    88.81515166    94.92785658
 H      3   2   1     1.080404815177   114.57658908   216.05801179
 H      4   3   2     1.012261464503   114.95010790   259.48163049
 H      5   4   3     1.079114345691   117.47399773    34.39866321
 H      5   4   3     1.080404815177   116.91019131   184.73270640

---------------------------
INTERNAL COORDINATES (A.U.)
---------------------------
 C      0   0   0     0.000000000000     0.00000000     0.00000000
 C      1   0   0     2.577589848176     0.00000000     0.00000000
 C      2   1   0     4.661377568884   102.11224596     0.00000000
 N      3   2   1     2.542793855372    92.87705350   337.47700111
 C      4   3   2     2.542793855372   126.12266183    55.76158442
 H      1   2   3     2.046507665911   121.27107474    98.26483980
 H      1   2   3     2.047198676615   121.18027430   261.70164848
 H      2   1   3     2.046507665911   121.27107474   261.73516020
 H      2   1   3     2.047198676615   121.18027430    98.29835152
 H      3   2   1     2.039230580542    88.81515166    94.92785658
 H      3   2   1     2.041669214454   114.57658908   216.05801179
 H      4   3   2     1.912896943834   114.95010790   259.48163049
 H      5   4   3     2.039230580542   117.47399773    34.39866321
 H      5   4   3     2.041669214454   116.91019131   184.73270640

---------------------
BASIS SET INFORMATION
---------------------
There are 3 groups of distinct atoms

 Group   1 Type C   : 8s4p1d contracted to 4s2p1d pattern {5111/31/1}
 Group   2 Type N   : 8s4p1d contracted to 4s2p1d pattern {5111/31/1}
 Group   3 Type H   : 4s contracted to 2s pattern {31}

Atom   0C    basis set group =>   1
Atom   1C    basis set group =>   1
Atom   2C    basis set group =>   1
Atom   3N    basis set group =>   2
Atom   4C    basis set group =>   1
Atom   5H    basis set group =>   3
Atom   6H    basis set group =>   3
Atom   7H    basis set group =>   3
Atom   8H    basis set group =>   3
Atom   9H    basis set group =>   3
Atom  10H    basis set group =>   3
Atom  11H    basis set group =>   3
Atom  12H    basis set group =>   3
Atom  13H    basis set group =>   3
---------------------------------
AUXILIARY/J BASIS SET INFORMATION
---------------------------------
There are 3 groups of distinct atoms

 Group   1 Type C   : 12s5p4d2f1g contracted to 6s4p3d1f1g pattern {711111/2111/211/2/1}
 Group   2 Type N   : 12s5p4d2f1g contracted to 6s4p3d1f1g pattern {711111/2111/211/2/1}
 Group   3 Type H   : 5s2p1d contracted to 3s1p1d pattern {311/2/1}

Atom   0C    basis set group =>   1
Atom   1C    basis set group =>   1
Atom   2C    basis set group =>   1
Atom   3N    basis set group =>   2
Atom   4C    basis set group =>   1
Atom   5H    basis set group =>   3
Atom   6H    basis set group =>   3
Atom   7H    basis set group =>   3
Atom   8H    basis set group =>   3
Atom   9H    basis set group =>   3
Atom  10H    basis set group =>   3
Atom  11H    basis set group =>   3
Atom  12H    basis set group =>   3
Atom  13H    basis set group =>   3


           ************************************************************
           *        Program running with 4 parallel MPI-processes     *
           *              working on a common directory               *
           ************************************************************
------------------------------------------------------------------------------
                           ORCA GTO INTEGRAL CALCULATION
                           -- RI-GTO INTEGRALS CHOSEN --
------------------------------------------------------------------------------
------------------------------------------------------------------------------
                   ___                                                        
                  /   \      - P O W E R E D   B Y -                         
                 /     \                                                     
                 |  |  |   _    _      __       _____    __    __             
                 |  |  |  | |  | |    /  \     |  _  \  |  |  /  |          
                  \  \/   | |  | |   /    \    | | | |  |  | /  /          
                 / \  \   | |__| |  /  /\  \   | |_| |  |  |/  /          
                |  |  |   |  __  | /  /__\  \  |    /   |      \           
                |  |  |   | |  | | |   __   |  |    \   |  |\   \          
                \     /   | |  | | |  |  |  |  | |\  \  |  | \   \       
                 \___/    |_|  |_| |__|  |__|  |_| \__\ |__|  \__/        
                                                                              
                      - O R C A' S   B I G   F R I E N D -                    
                                      &                                       
                       - I N T E G R A L  F E E D E R -                       
                                                                              
 v1 FN, 2020, v2 2021                                                         
------------------------------------------------------------------------------


Reading SHARK input file pbeh-3c.SHARKINP.tmp ... ok
----------------------
SHARK INTEGRAL PACKAGE
----------------------

Number of atoms                             ...     14
Number of basis functions                   ...     93
Number of shells                            ...     53
Maximum angular momentum                    ...      2
Integral batch strategy                     ... SHARK/LIBINT Hybrid
RI-J (if used) integral strategy            ... SPLIT-RIJ (Revised 2003 algorithm where possible)
Printlevel                                  ...      1
Contraction scheme used                     ... SEGMENTED contraction
Coulomb Range Separation                    ... NOT USED
Exchange Range Separation                   ... NOT USED
Finite Nucleus Model                        ... NOT USED
Auxiliary Coulomb fitting basis             ... AVAILABLE
   # of basis functions in Aux-J            ...    344
   # of shells in Aux-J                     ...    120
   Maximum angular momentum in Aux-J        ...      4
Auxiliary J/K fitting basis                 ... NOT available
Auxiliary Correlation fitting basis         ... NOT available
Auxiliary 'external' fitting basis          ... NOT available
Integral threshold                          ...     2.500000e-11
Primitive cut-off                           ...     2.500000e-12
Primitive pair pre-selection threshold      ...     2.500000e-12

Calculating pre-screening integrals         ... done (  0.0 sec) Dimension = 53
Organizing shell pair data                  ... done (  0.3 sec)
Shell pair information
Total number of shell pairs                 ...      1431
Shell pairs after pre-screening             ...      1390
Total number of primitive shell pairs       ...      5243
Primitive shell pairs kept                  ...      3836
          la=0 lb=0:    700 shell pairs
          la=1 lb=0:    380 shell pairs
          la=1 lb=1:     55 shell pairs
          la=2 lb=0:    190 shell pairs
          la=2 lb=1:     50 shell pairs
          la=2 lb=2:     15 shell pairs

Calculating one electron integrals          ... done (  0.0 sec)
Calculating RI/J V-Matrix + Cholesky decomp.... done (  0.4 sec)
Calculating Nuclear repulsion               ... done (  0.1 sec) ENN=    174.977622463733 Eh

SHARK setup successfully completed in   1.8 seconds

Maximum memory used throughout the entire GTOINT-calculation: 10.1 MB


           ************************************************************
           *        Program running with 4 parallel MPI-processes     *
           *              working on a common directory               *
           ************************************************************
-------------------------------------------------------------------------------
                                 ORCA SCF
-------------------------------------------------------------------------------

------------
SCF SETTINGS
------------
Hamiltonian:
 Density Functional     Method          .... DFT(GTOs)
 Exchange Functional    Exchange        .... PBE
   PBE kappa parameter   XKappa         ....  1.024500
   PBE mue parameter    XMuePBE         ....  0.123457
 Correlation Functional Correlation     .... PBE
   PBE beta parameter  CBetaPBE         ....  0.030000
 LDA part of GGA corr.  LDAOpt          .... PW91-LDA
 Gradients option       PostSCFGGA      .... off
 Hybrid DFT is turned on
   Fraction HF Exchange ScalHFX         ....  0.420000
   Scaling of DF-GGA-X  ScalDFX         ....  0.580000
   Scaling of DF-GGA-C  ScalDFC         ....  1.000000
   Scaling of DF-LDA-C  ScalLDAC        ....  1.000000
   Perturbative correction              ....  0.000000
   Density functional embedding theory  .... OFF
 RI-approximation to the Coulomb term is turned on
   Number of AuxJ basis functions       .... 344
   RIJ-ON(X) (HFX calculated with O(N)) .... on
   Number of AuxJ basis functions       .... 344
   RIJ-COSX (HFX calculated with COS-X)).... on


General Settings:
 Integral files         IntName         .... pbeh-3c
 Hartree-Fock type      HFTyp           .... RHF
 Total Charge           Charge          ....    0
 Multiplicity           Mult            ....    1
 Number of Electrons    NEL             ....   40
 Basis Dimension        Dim             ....   93
 Nuclear Repulsion      ENuc            ....    174.9776224637 Eh

Convergence Acceleration:
 DIIS                   CNVDIIS         .... on
   Start iteration      DIISMaxIt       ....    12
   Startup error        DIISStart       ....  0.200000
   # of expansion vecs  DIISMaxEq       ....     5
   Bias factor          DIISBfac        ....   1.050
   Max. coefficient     DIISMaxC        ....  10.000
 Trust-Rad. Augm. Hess. CNVTRAH         .... auto
   Auto Start mean grad. ratio tolernc. ....  1.125000
   Auto Start start iteration           ....    20
   Auto Start num. interpolation iter.  ....    10
   Max. Number of Micro iterations      ....    16
   Max. Number of Macro iterations      .... Maxiter - #DIIS iter
   Number of Davidson start vectors     ....     2
   Converg. threshold I  (grad. norm)   ....   1.000e-05
   Converg. threshold II (energy diff.) ....   1.000e-08
   Grad. Scal. Fac. for Micro threshold ....   0.100
   Minimum threshold for Micro iter.    ....   0.010
   NR start threshold (gradient norm)   ....   0.001
   Initial trust radius                 ....   0.400
   Minimum AH scaling param. (alpha)    ....   1.000
   Maximum AH scaling param. (alpha)    .... 1000.000
   Orbital update algorithm             .... Taylor
   White noise on init. David. guess    .... on
   Maximum white noise                  ....   0.010
   Quad. conv. algorithm                .... NR
   COSX micro iterations for RIJONX calc.... off
 SOSCF                  CNVSOSCF        .... on
   Start iteration      SOSCFMaxIt      ....   150
   Startup grad/error   SOSCFStart      ....  0.003300
 Level Shifting         CNVShift        .... on
   Level shift para.    LevelShift      ....    0.2500
   Turn off err/grad.   ShiftErr        ....    0.0010
 Zerner damping         CNVZerner       .... off
 Static damping         CNVDamp         .... on
   Fraction old density DampFac         ....    0.7000
   Max. Damping (<1)    DampMax         ....    0.9800
   Min. Damping (>=0)   DampMin         ....    0.0000
   Turn off err/grad.   DampErr         ....    0.1000
 Fernandez-Rico         CNVRico         .... off

SCF Procedure:
 Maximum # iterations   MaxIter         ....   125
 SCF integral mode      SCFMode         .... Direct
   Integral package                     .... SHARK and LIBINT hybrid scheme
 Reset frequency        DirectResetFreq ....    20
 Integral Threshold     Thresh          ....  2.500e-11 Eh
 Primitive CutOff       TCut            ....  2.500e-12 Eh

Convergence Tolerance:
 Convergence Check Mode ConvCheckMode   .... Total+1el-Energy
 Convergence forced     ConvForced      .... 0
 Energy Change          TolE            ....  1.000e-08 Eh
 1-El. energy change                    ....  1.000e-05 Eh
 Orbital Gradient       TolG            ....  1.000e-05
 Orbital Rotation angle TolX            ....  1.000e-05
 DIIS Error             TolErr          ....  5.000e-07


Diagonalization of the overlap matrix:
Smallest eigenvalue                        ... 7.796e-03
Time for diagonalization                   ...    0.003 sec
Threshold for overlap eigenvalues          ... 1.000e-08
Number of eigenvalues below threshold      ... 0
Time for construction of square roots      ...    0.169 sec
Total time needed                          ...    0.172 sec

--------------------------------
INITIAL GUESS: MINIMAL BASIS EHT
--------------------------------
The minimal basis has 34 functions
EHT matrix was diagonalized
Basis set overlap was calculated now projecting the orbitals
Using GuessMode=FMatrix for the initial guess
C*T matrix was formed
Effective Fockian was calculated
Effective Fockian was diagonalized
Initial density was built
                      ------------------
                      INITIAL GUESS DONE
                      ------------------
-------------------
DFT GRID GENERATION
-------------------

General Integration Accuracy     IntAcc      ... 4.959
Radial Grid Type                 RadialGrid  ... OptM3 with GC (2021)
Angular Grid (max. ang.)         AngularGrid ... 6 (Lebedev-590)
Angular grid pruning method      GridPruning ... 4 (adaptive)
Weight generation scheme         WeightScheme... Becke
Basis function cutoff            BFCut       ... 1.0000e-11
Integration weight cutoff        WCut        ... 1.0000e-14
Angular grids for H and He will be reduced by one unit
Partially contracted basis set               ... off
Rotationally invariant grid construction     ... off

Total number of grid points                  ...   150410
Total number of batches                      ...     2357
Average number of points per batch           ...       63
Average number of grid points per atom       ...    10744
Time for grid setup =    2.583 sec

--------------------
COSX GRID GENERATION
--------------------

GRIDX 1
-------
General Integration Accuracy     IntAcc      ... 4.020
Radial Grid Type                 RadialGrid  ... OptM3 with GC (2021)
Angular Grid (max. ang.)         AngularGrid ... 2 (Lebedev-110)
Angular grid pruning method      GridPruning ... 4 (adaptive)
Weight generation scheme         WeightScheme... Becke
Basis function cutoff            BFCut       ... 1.0000e-11
Integration weight cutoff        WCut        ... 1.0000e-14
Angular grids for H and He will be reduced by one unit
Partially contracted basis set               ... on
Rotationally invariant grid construction     ... off

Total number of grid points                  ...    15996
Total number of batches                      ...      258
Average number of points per batch           ...       62
Average number of grid points per atom       ...     1143
UseSFitting                                  ... on

GRIDX 2
-------
General Integration Accuracy     IntAcc      ... 4.338
Radial Grid Type                 RadialGrid  ... OptM3 with GC (2021)
Angular Grid (max. ang.)         AngularGrid ... 3 (Lebedev-194)
Angular grid pruning method      GridPruning ... 4 (adaptive)
Weight generation scheme         WeightScheme... Becke
Basis function cutoff            BFCut       ... 1.0000e-11
Integration weight cutoff        WCut        ... 1.0000e-14
Angular grids for H and He will be reduced by one unit
Partially contracted basis set               ... on
Rotationally invariant grid construction     ... off

Total number of grid points                  ...    34892
Total number of batches                      ...      553
Average number of points per batch           ...       63
Average number of grid points per atom       ...     2492
UseSFitting                                  ... on

GRIDX 3
-------
General Integration Accuracy     IntAcc      ... 4.871
Radial Grid Type                 RadialGrid  ... OptM3 with GC (2021)
Angular Grid (max. ang.)         AngularGrid ... 4 (Lebedev-302)
Angular grid pruning method      GridPruning ... 4 (adaptive)
Weight generation scheme         WeightScheme... Becke
Basis function cutoff            BFCut       ... 1.0000e-11
Integration weight cutoff        WCut        ... 1.0000e-14
Angular grids for H and He will be reduced by one unit
Partially contracted basis set               ... on
Rotationally invariant grid construction     ... off

Total number of grid points                  ...    69190
Total number of batches                      ...     1085
Average number of points per batch           ...       63
Average number of grid points per atom       ...     4942
UseSFitting                                  ... on

Time for X-Grid setup             =    4.396 sec

--------------
SCF ITERATIONS
--------------
ITER       Energy         Delta-E        Max-DP      RMS-DP      [F,P]     Damp
               ***  Starting incremental Fock matrix formation  ***
  0   -211.5269070933   0.000000000000 0.08115139  0.00355868  0.3919442 0.7000
  1   -211.6630101643  -0.136103071015 0.05784223  0.00260022  0.2740885 0.7000
                               ***Turning on DIIS***
  2   -211.7613744656  -0.098364301332 0.04056443  0.00190752  0.1908860 0.7000
  3   -211.8320125848  -0.070638119196 0.02928834  0.00149259  0.1332711 0.7000
  4   -211.8825918381  -0.050579253322 0.07449394  0.00376186  0.0936185 0.0000
  5   -212.0052072937  -0.122615455570 0.00486093  0.00020291  0.0046191 0.0000
                      *** Initiating the SOSCF procedure ***
                           *** Shutting down DIIS ***
                      *** Re-Reading the Fockian *** 
                      *** Removing any level shift *** 
ITER      Energy       Delta-E        Grad      Rot      Max-DP    RMS-DP
  6   -212.00531771  -0.0001104127  0.000961  0.000961  0.001320  0.000087
               *** Restarting incremental Fock matrix formation ***
  7   -212.00531399   0.0000037199  0.000358  0.000743  0.001095  0.000057
  8   -212.00531631  -0.0000023239  0.000255  0.000425  0.000418  0.000027
  9   -212.00531743  -0.0000011147  0.000055  0.000124  0.000179  0.000008
 10   -212.00531747  -0.0000000470  0.000037  0.000033  0.000073  0.000002
 11   -212.00531748  -0.0000000100  0.000010  0.000018  0.000025  0.000002
                  ***Gradient check signals convergence***
              ***Rediagonalizing the Fockian in SOSCF/NRSCF***

               *****************************************************
               *                     SUCCESS                       *
               *           SCF CONVERGED AFTER  12 CYCLES          *
               *****************************************************

Old exchange energy                            =    -12.755931386 Eh
New exchange energy                            =    -12.755929476 Eh
Exchange energy change after final integration =      0.000001910 Eh
Total energy after final integration           =   -212.005315577 Eh
Final COS-X integration done in                =     3.468 sec

----------------
TOTAL SCF ENERGY
----------------

Total Energy       :         -212.00531558 Eh           -5768.95792 eV

Components:
Nuclear Repulsion  :          174.97762246 Eh            4761.38317 eV
Electronic Energy  :         -386.98293804 Eh          -10530.34110 eV
One Electron Energy:         -631.41645078 Eh          -17181.71513 eV
Two Electron Energy:          244.43351274 Eh            6651.37403 eV
Max COSX asymmetry :            0.00000065 Eh               0.00002 eV

Virial components:
Potential Energy   :         -422.18204950 Eh          -11488.15761 eV
Kinetic Energy     :          210.17673393 Eh            5719.19969 eV
Virial Ratio       :            2.00870021


DFT components:
N(Alpha)           :       19.999999966673 electrons
N(Beta)            :       19.999999966673 electrons
N(Total)           :       39.999999933347 electrons
E(X)               :      -16.951619071265 Eh       
E(C)               :       -1.694233777764 Eh       
E(XC)              :      -18.645852849029 Eh       
DFET-embed. en.    :        0.000000000000 Eh       

---------------
SCF CONVERGENCE
---------------

  Last Energy change         ...   -4.6872e-09  Tolerance :   1.0000e-08
  Last MAX-Density change    ...    3.1086e-15  Tolerance :   1.0000e-07
  Last RMS-Density change    ...    6.1463e-17  Tolerance :   5.0000e-09
  Last Orbital Gradient      ...    2.4071e-06  Tolerance :   1.0000e-05
  Last Orbital Rotation      ...    3.5351e-06  Tolerance :   1.0000e-05

             **** THE GBW FILE WAS UPDATED (pbeh-3c.gbw) ****
             **** DENSITY pbeh-3c.scfp WAS UPDATED ****
             **** ENERGY FILE WAS UPDATED (pbeh-3c.en.tmp) ****
             **** THE GBW FILE WAS UPDATED (pbeh-3c.gbw) ****
             **** DENSITY pbeh-3c.scfp WAS UPDATED ****
----------------
ORBITAL ENERGIES
----------------

  NO   OCC          E(Eh)            E(eV) 
   0   2.0000     -14.702179      -400.0666 
   1   2.0000     -10.454891      -284.4921 
   2   2.0000     -10.454825      -284.4903 
   3   2.0000     -10.411884      -283.3218 
   4   2.0000     -10.411130      -283.3012 
   5   2.0000      -1.065198       -28.9855 
   6   2.0000      -0.812127       -22.0991 
   7   2.0000      -0.793866       -21.6022 
   8   2.0000      -0.695474       -18.9248 
   9   2.0000      -0.624125       -16.9833 
  10   2.0000      -0.589985       -16.0543 
  11   2.0000      -0.532223       -14.4825 
  12   2.0000      -0.497728       -13.5439 
  13   2.0000      -0.455586       -12.3971 
  14   2.0000      -0.453466       -12.3394 
  15   2.0000      -0.442261       -12.0345 
  16   2.0000      -0.436592       -11.8803 
  17   2.0000      -0.377956       -10.2847 
  18   2.0000      -0.263830        -7.1792 
  19   2.0000      -0.209682        -5.7057 
  20   0.0000       0.035324         0.9612 
  21   0.0000       0.096256         2.6192 
  22   0.0000       0.117334         3.1928 
  23   0.0000       0.169478         4.6117 
  24   0.0000       0.194368         5.2890 
  25   0.0000       0.210090         5.7168 
  26   0.0000       0.216494         5.8911 
  27   0.0000       0.228908         6.2289 
  28   0.0000       0.241643         6.5754 
  29   0.0000       0.260432         7.0867 
  30   0.0000       0.298796         8.1306 
  31   0.0000       0.299795         8.1578 
  32   0.0000       0.338330         9.2064 
  33   0.0000       0.371824        10.1178 
  34   0.0000       0.484638        13.1877 
  35   0.0000       0.518291        14.1034 
  36   0.0000       0.538210        14.6454 
  37   0.0000       0.576125        15.6772 
  38   0.0000       0.586533        15.9604 
  39   0.0000       0.588117        16.0035 
  40   0.0000       0.637548        17.3486 
  41   0.0000       0.669050        18.2058 
  42   0.0000       0.683629        18.6025 
  43   0.0000       0.693151        18.8616 
  44   0.0000       0.696636        18.9564 
  45   0.0000       0.818997        22.2860 
  46   0.0000       0.865922        23.5629 
  47   0.0000       0.930707        25.3258 
  48   0.0000       0.952361        25.9151 
  49   0.0000       0.990415        26.9506 
  50   0.0000       0.998105        27.1598 
  51   0.0000       1.005810        27.3695 
  52   0.0000       1.043675        28.3998 
  53   0.0000       1.050244        28.5786 
  54   0.0000       1.077792        29.3282 
  55   0.0000       1.082076        29.4448 
  56   0.0000       1.102470        29.9997 
  57   0.0000       1.125445        30.6249 
  58   0.0000       1.170845        31.8603 
  59   0.0000       1.303801        35.4782 
  60   0.0000       1.314424        35.7673 
  61   0.0000       1.437025        39.1034 
  62   0.0000       1.498026        40.7634 
  63   0.0000       1.569439        42.7066 
  64   0.0000       1.589396        43.2497 
  65   0.0000       1.616658        43.9915 
  66   0.0000       1.683641        45.8142 
  67   0.0000       1.855362        50.4870 
  68   0.0000       1.907192        51.8973 
  69   0.0000       1.940874        52.8139 
  70   0.0000       1.983611        53.9768 
  71   0.0000       2.008726        54.6602 
  72   0.0000       2.109233        57.3951 
  73   0.0000       2.111451        57.4555 
  74   0.0000       2.158399        58.7330 
  75   0.0000       2.159803        58.7712 
  76   0.0000       2.184073        59.4316 
  77   0.0000       2.321506        63.1714 
  78   0.0000       2.327946        63.3466 
  79   0.0000       2.349730        63.9394 
  80   0.0000       2.395708        65.1905 
  81   0.0000       2.518806        68.5402 
  82   0.0000       2.581979        70.2592 
  83   0.0000       2.653092        72.1943 
  84   0.0000       2.746282        74.7301 
  85   0.0000       2.777707        75.5853 
  86   0.0000       2.833049        77.0912 
  87   0.0000       2.988386        81.3181 
  88   0.0000      13.519252       367.8776 
  89   0.0000      13.776080       374.8662 
  90   0.0000      13.802319       375.5802 
  91   0.0000      14.197013       386.3204 
  92   0.0000      19.191070       522.2156 

                    ********************************
                    * MULLIKEN POPULATION ANALYSIS *
                    ********************************

-----------------------
MULLIKEN ATOMIC CHARGES
-----------------------
   0 C :   -0.456736
   1 C :   -0.456735
   2 C :   -0.401021
   3 N :   -0.343023
   4 C :   -0.401021
   5 H :    0.202127
   6 H :    0.203089
   7 H :    0.202127
   8 H :    0.203089
   9 H :    0.226776
  10 H :    0.213233
  11 H :    0.368087
  12 H :    0.226776
  13 H :    0.213233
Sum of atomic charges:   -0.0000000

--------------------------------
MULLIKEN REDUCED ORBITAL CHARGES
--------------------------------
  0 C s       :     3.309162  s :     3.309162
      pz      :     0.978309  p :     3.113809
      px      :     1.046466
      py      :     1.089034
      dz2     :     0.006656  d :     0.033765
      dxz     :     0.006246
      dyz     :     0.014435
      dx2y2   :     0.005540
      dxy     :     0.000888
  1 C s       :     3.309161  s :     3.309161
      pz      :     0.978309  p :     3.113809
      px      :     1.046466
      py      :     1.089034
      dz2     :     0.006656  d :     0.033765
      dxz     :     0.006246
      dyz     :     0.014435
      dx2y2   :     0.005540
      dxy     :     0.000888
  2 C s       :     3.273003  s :     3.273003
      pz      :     0.856103  p :     3.080639
      px      :     1.128213
      py      :     1.096323
      dz2     :     0.013518  d :     0.047379
      dxz     :     0.010573
      dyz     :     0.012203
      dx2y2   :     0.009053
      dxy     :     0.002032
  3 N s       :     3.474828  s :     3.474828
      pz      :     1.140599  p :     3.816474
      px      :     1.409225
      py      :     1.266650
      dz2     :     0.013806  d :     0.051721
      dxz     :     0.019025
      dyz     :     0.009091
      dx2y2   :     0.007113
      dxy     :     0.002687
  4 C s       :     3.273003  s :     3.273003
      pz      :     0.856103  p :     3.080639
      px      :     1.128213
      py      :     1.096323
      dz2     :     0.013518  d :     0.047379
      dxz     :     0.010573
      dyz     :     0.012203
      dx2y2   :     0.009053
      dxy     :     0.002032
  5 H s       :     0.797873  s :     0.797873
  6 H s       :     0.796911  s :     0.796911
  7 H s       :     0.797873  s :     0.797873
  8 H s       :     0.796911  s :     0.796911
  9 H s       :     0.773224  s :     0.773224
 10 H s       :     0.786767  s :     0.786767
 11 H s       :     0.631913  s :     0.631913
 12 H s       :     0.773224  s :     0.773224
 13 H s       :     0.786767  s :     0.786767


                     *******************************
                     * LOEWDIN POPULATION ANALYSIS *
                     *******************************

----------------------
LOEWDIN ATOMIC CHARGES
----------------------
   0 C :   -0.305583
   1 C :   -0.305583
   2 C :   -0.294119
   3 N :   -0.065677
   4 C :   -0.294119
   5 H :    0.122732
   6 H :    0.122410
   7 H :    0.122732
   8 H :    0.122410
   9 H :    0.130761
  10 H :    0.125196
  11 H :    0.262881
  12 H :    0.130761
  13 H :    0.125196

-------------------------------
LOEWDIN REDUCED ORBITAL CHARGES
-------------------------------
  0 C s       :     2.969282  s :     2.969282
      pz      :     1.114751  p :     3.268504
      px      :     1.054252
      py      :     1.099501
      dz2     :     0.017579  d :     0.067796
      dxz     :     0.011588
      dyz     :     0.029708
      dx2y2   :     0.007629
      dxy     :     0.001291
  1 C s       :     2.969282  s :     2.969282
      pz      :     1.114751  p :     3.268504
      px      :     1.054252
      py      :     1.099501
      dz2     :     0.017579  d :     0.067796
      dxz     :     0.011588
      dyz     :     0.029708
      dx2y2   :     0.007629
      dxy     :     0.001291
  2 C s       :     2.964049  s :     2.964049
      pz      :     0.976795  p :     3.235709
      px      :     1.148779
      py      :     1.110135
      dz2     :     0.029223  d :     0.094361
      dxz     :     0.020585
      dyz     :     0.026383
      dx2y2   :     0.014673
      dxy     :     0.003496
  3 N s       :     3.078679  s :     3.078679
      pz      :     1.240148  p :     3.867908
      px      :     1.377501
      py      :     1.250259
      dz2     :     0.033955  d :     0.119090
      dxz     :     0.043522
      dyz     :     0.025362
      dx2y2   :     0.010934
      dxy     :     0.005317
  4 C s       :     2.964049  s :     2.964049
      pz      :     0.976795  p :     3.235709
      px      :     1.148779
      py      :     1.110135
      dz2     :     0.029223  d :     0.094361
      dxz     :     0.020585
      dyz     :     0.026383
      dx2y2   :     0.014673
      dxy     :     0.003496
  5 H s       :     0.877268  s :     0.877268
  6 H s       :     0.877590  s :     0.877590
  7 H s       :     0.877268  s :     0.877268
  8 H s       :     0.877590  s :     0.877590
  9 H s       :     0.869239  s :     0.869239
 10 H s       :     0.874804  s :     0.874804
 11 H s       :     0.737119  s :     0.737119
 12 H s       :     0.869239  s :     0.869239
 13 H s       :     0.874804  s :     0.874804


                      *****************************
                      * MAYER POPULATION ANALYSIS *
                      *****************************

  NA   - Mulliken gross atomic population
  ZA   - Total nuclear charge
  QA   - Mulliken gross atomic charge
  VA   - Mayer's total valence
  BVA  - Mayer's bonded valence
  FA   - Mayer's free valence

  ATOM       NA         ZA         QA         VA         BVA        FA
  0 C      6.4567     6.0000    -0.4567     3.8051     3.8051     0.0000
  1 C      6.4567     6.0000    -0.4567     3.8051     3.8051     0.0000
  2 C      6.4010     6.0000    -0.4010     3.6980     3.6980     0.0000
  3 N      7.3430     7.0000    -0.3430     3.4425     3.4425    -0.0000
  4 C      6.4010     6.0000    -0.4010     3.6980     3.6980    -0.0000
  5 H      0.7979     1.0000     0.2021     0.9267     0.9267     0.0000
  6 H      0.7969     1.0000     0.2031     0.9246     0.9246     0.0000
  7 H      0.7979     1.0000     0.2021     0.9267     0.9267     0.0000
  8 H      0.7969     1.0000     0.2031     0.9246     0.9246     0.0000
  9 H      0.7732     1.0000     0.2268     0.9228     0.9228    -0.0000
 10 H      0.7868     1.0000     0.2132     0.9272     0.9272     0.0000
 11 H      0.6319     1.0000     0.3681     0.8269     0.8269    -0.0000
 12 H      0.7732     1.0000     0.2268     0.9228     0.9228    -0.0000
 13 H      0.7868     1.0000     0.2132     0.9272     0.9272    -0.0000

  Mayer bond orders larger than 0.100000
B(  0-C ,  1-C ) :   1.6765 B(  0-C ,  4-C ) :   0.2723 B(  0-C ,  5-H ) :   0.9339 
B(  0-C ,  6-H ) :   0.9322 B(  1-C ,  2-C ) :   0.2723 B(  1-C ,  7-H ) :   0.9339 
B(  1-C ,  8-H ) :   0.9322 B(  2-C ,  3-N ) :   1.3055 B(  2-C ,  4-C ) :   0.2644 
B(  2-C ,  9-H ) :   0.9230 B(  2-C , 10-H ) :   0.9278 B(  3-N ,  4-C ) :   1.3055 
B(  3-N , 11-H ) :   0.8246 B(  4-C , 12-H ) :   0.9230 B(  4-C , 13-H ) :   0.9278 


-------
TIMINGS
-------

Total SCF time: 0 days 0 hours 1 min 30 sec 

Total time                  ....      90.345 sec
Sum of individual times     ....      81.621 sec  ( 90.3%)

Fock matrix formation       ....      66.176 sec  ( 73.2%)
  Split-RI-J                ....       6.385 sec  (  9.6% of F)
  Chain of spheres X        ....      17.829 sec  ( 26.9% of F)
  XC integration            ....      21.121 sec  ( 31.9% of F)
    Basis function eval.    ....       2.395 sec  ( 11.3% of XC)
    Density eval.           ....       1.421 sec  (  6.7% of XC)
    XC-Functional eval.     ....       1.459 sec  (  6.9% of XC)
    XC-Potential eval.      ....       0.741 sec  (  3.5% of XC)
Diagonalization             ....       2.464 sec  (  2.7%)
Density matrix formation    ....       0.249 sec  (  0.3%)
Population analysis         ....       0.937 sec  (  1.0%)
Initial guess               ....       0.006 sec  (  0.0%)
Orbital Transformation      ....       0.000 sec  (  0.0%)
Orbital Orthonormalization  ....       0.000 sec  (  0.0%)
DIIS solution               ....       3.196 sec  (  3.5%)
SOSCF solution              ....       1.613 sec  (  1.8%)
Grid generation             ....       6.979 sec  (  7.7%)

Maximum memory used throughout the entire SCF-calculation: 50.9 MB


-------------------------------------------------------------------------------
                          DFT DISPERSION CORRECTION                            
                                                                               
                              DFTD3 V3.1  Rev 1                                
                          USING Becke-Johnson damping                          
-------------------------------------------------------------------------------
The PBEh-3c composite method is recognized
Using three-body term ABC
Active option DFTDOPT                   ...         4   

molecular C6(AA) [au] = 1593.292799 


            DFT-D V3
 parameters
 s6 scaling factor         :     1.0000 
 a1 scaling factor         :     0.4860 
 s8 scaling factor         :     0.0000 
 a2 scaling factor         :     4.5000 
 Damping factor alpha9(ATM):    16.0000 
 ad hoc parameters k1-k3   :    16.0000     1.3333    -4.0000 

 Edisp/kcal,au: -3.978970748049  -0.006340892828 
 E6   /kcal   :  -4.001154479 
 E8   /kcal   :  -0.000000000 
 E6(ABC)      :   0.022183731 
 % E8         :   0.000000000 
 % E6(ABC)    :  -0.557524352 

-------------------------   ----------------
Dispersion correction           -0.006340893
-------------------------   ----------------

------------------   -----------------
gCP correction             0.018785850
------------------   -----------------

-------------------------   --------------------
FINAL SINGLE POINT ENERGY      -211.992870619683
-------------------------   --------------------


                            ***************************************
                            *     ORCA property calculations      *
                            ***************************************

                                    ---------------------
                                    Active property flags
                                    ---------------------
   (+) Dipole Moment


------------------------------------------------------------------------------
                       ORCA ELECTRIC PROPERTIES CALCULATION
------------------------------------------------------------------------------

Dipole Moment Calculation                       ... on
Quadrupole Moment Calculation                   ... off
Polarizability Calculation                      ... off
GBWName                                         ... pbeh-3c.gbw
Electron density                                ... pbeh-3c.scfp
The origin for moment calculation is the CENTER OF MASS  = (-0.190212, -0.047618  0.000000)

-------------
DIPOLE MOMENT
-------------
                                X             Y             Z
Electronic contribution:     -2.02744      -0.63504       0.00000
Nuclear contribution   :      1.22496       0.31171      -0.00000
                        -----------------------------------------
Total Dipole Moment    :     -0.80248      -0.32332       0.00000
                        -----------------------------------------
Magnitude (a.u.)       :      0.86517
Magnitude (Debye)      :      2.19908



--------------------
Rotational spectrum 
--------------------
 
Rotational constants in cm-1:     0.226416     0.135768     0.094914 
Rotational constants in MHz :  6787.785858  4070.233675  2845.453107 

 Dipole components along the rotational axes: 
x,y,z [a.u.] :     0.802483     0.000000    -0.323321 
x,y,z [Debye]:     2.039749     0.000000    -0.821816 

 

Timings for individual modules:

Sum of individual times         ...       93.731 sec (=   1.562 min)
GTO integral calculation        ...        2.516 sec (=   0.042 min)   2.7 %
SCF iterations                  ...       91.216 sec (=   1.520 min)  97.3 %
                             ****ORCA TERMINATED NORMALLY****
TOTAL RUN TIME: 0 days 0 hours 1 minutes 37 seconds 702 msec
