
                                 *****************
                                 * O   R   C   A *
                                 *****************

                                            #,                                       
                                            ###                                      
                                            ####                                     
                                            #####                                    
                                            ######                                   
                                           ########,                                 
                                     ,,################,,,,,                         
                               ,,#################################,,                 
                          ,,##########################################,,             
                       ,#########################################, ''#####,          
                    ,#############################################,,   '####,        
                  ,##################################################,,,,####,       
                ,###########''''           ''''###############################       
              ,#####''   ,,,,##########,,,,          '''####'''          '####       
            ,##' ,,,,###########################,,,                        '##       
           ' ,,###''''                  '''############,,,                           
         ,,##''                                '''############,,,,        ,,,,,,###''
      ,#''                                            '''#######################'''  
     '                                                          ''''####''''         
             ,#######,   #######,   ,#######,      ##                                
            ,#'     '#,  ##    ##  ,#'     '#,    #''#        ######   ,####,        
            ##       ##  ##   ,#'  ##            #'  '#       #        #'  '#        
            ##       ##  #######   ##           ,######,      #####,   #    #        
            '#,     ,#'  ##    ##  '#,     ,#' ,#      #,         ##   #,  ,#        
             '#######'   ##     ##  '#######'  #'      '#     #####' # '####'        



                  #######################################################
                  #                        -***-                        #
                  #          Department of theory and spectroscopy      #
                  #    Directorship and core code : Frank Neese         #
                  #        Max Planck Institute fuer Kohlenforschung    #
                  #                Kaiser Wilhelm Platz 1               #
                  #                 D-45470 Muelheim/Ruhr               #
                  #                      Germany                        #
                  #                                                     #
                  #                  All rights reserved                #
                  #                        -***-                        #
                  #######################################################


                         Program Version 5.0.3 -  RELEASE  -


 With contributions from (in alphabetic order):
   Daniel Aravena         : Magnetic Suceptibility
   Michael Atanasov       : Ab Initio Ligand Field Theory (pilot matlab implementation)
   Alexander A. Auer      : GIAO ZORA, VPT2 properties, NMR spectrum
   Ute Becker             : Parallelization
   Giovanni Bistoni       : ED, misc. LED, open-shell LED, HFLD
   Martin Brehm           : Molecular dynamics
   Dmytro Bykov           : SCF Hessian
   Vijay G. Chilkuri      : MRCI spin determinant printing, contributions to CSF-ICE
   Dipayan Datta          : RHF DLPNO-CCSD density
   Achintya Kumar Dutta   : EOM-CC, STEOM-CC
   Dmitry Ganyushin       : Spin-Orbit,Spin-Spin,Magnetic field MRCI
   Miquel Garcia          : C-PCM and meta-GGA Hessian, CC/C-PCM, Gaussian charge scheme
   Yang Guo               : DLPNO-NEVPT2, F12-NEVPT2, CIM, IAO-localization
   Andreas Hansen         : Spin unrestricted coupled pair/coupled cluster methods
   Benjamin Helmich-Paris : MC-RPA, TRAH-SCF, COSX integrals
   Lee Huntington         : MR-EOM, pCC
   Robert Izsak           : Overlap fitted RIJCOSX, COSX-SCS-MP3, EOM
   Marcus Kettner         : VPT2
   Christian Kollmar      : KDIIS, OOCD, Brueckner-CCSD(T), CCSD density, CASPT2, CASPT2-K
   Simone Kossmann        : Meta GGA functionals, TD-DFT gradient, OOMP2, MP2 Hessian
   Martin Krupicka        : Initial AUTO-CI
   Lucas Lang             : DCDCAS
   Marvin Lechner         : AUTO-CI (C++ implementation), FIC-MRCC
   Dagmar Lenk            : GEPOL surface, SMD
   Dimitrios Liakos       : Extrapolation schemes; Compound Job, initial MDCI parallelization
   Dimitrios Manganas     : Further ROCIS development; embedding schemes
   Dimitrios Pantazis     : SARC Basis sets
   Anastasios Papadopoulos: AUTO-CI, single reference methods and gradients
   Taras Petrenko         : DFT Hessian,TD-DFT gradient, ASA, ECA, R-Raman, ABS, FL, XAS/XES, NRVS
   Peter Pinski           : DLPNO-MP2, DLPNO-MP2 Gradient
   Christoph Reimann      : Effective Core Potentials
   Marius Retegan         : Local ZFS, SOC
   Christoph Riplinger    : Optimizer, TS searches, QM/MM, DLPNO-CCSD(T), (RO)-DLPNO pert. Triples
   Tobias Risthaus        : Range-separated hybrids, TD-DFT gradient, RPA, STAB
   Michael Roemelt        : Original ROCIS implementation
   Masaaki Saitow         : Open-shell DLPNO-CCSD energy and density
   Barbara Sandhoefer     : DKH picture change effects
   Avijit Sen             : IP-ROCIS
   Kantharuban Sivalingam : CASSCF convergence, NEVPT2, FIC-MRCI
   Bernardo de Souza      : ESD, SOC TD-DFT
   Georgi Stoychev        : AutoAux, RI-MP2 NMR, DLPNO-MP2 response
   Willem Van den Heuvel  : Paramagnetic NMR
   Boris Wezisla          : Elementary symmetry handling
   Frank Wennmohs         : Technical directorship


 We gratefully acknowledge several colleagues who have allowed us to
 interface, adapt or use parts of their codes:
   Stefan Grimme, W. Hujo, H. Kruse, P. Pracht,  : VdW corrections, initial TS optimization,
                  C. Bannwarth, S. Ehlert          DFT functionals, gCP, sTDA/sTD-DF
   Ed Valeev, F. Pavosevic, A. Kumar             : LibInt (2-el integral package), F12 methods
   Garnet Chan, S. Sharma, J. Yang, R. Olivares  : DMRG
   Ulf Ekstrom                                   : XCFun DFT Library
   Mihaly Kallay                                 : mrcc  (arbitrary order and MRCC methods)
   Jiri Pittner, Ondrej Demel                    : Mk-CCSD
   Frank Weinhold                                : gennbo (NPA and NBO analysis)
   Christopher J. Cramer and Donald G. Truhlar   : smd solvation model
   Lars Goerigk                                  : TD-DFT with DH, B97 family of functionals
   V. Asgeirsson, H. Jonsson                     : NEB implementation
   FAccTs GmbH                                   : IRC, NEB, NEB-TS, DLPNO-Multilevel, CI-OPT
                                                   MM, QMMM, 2- and 3-layer-ONIOM, Crystal-QMMM,
                                                   LR-CPCM, SF, NACMEs, symmetry and pop. for TD-DFT,
                                                   nearIR, NL-DFT gradient (VV10), updates on ESD,
                                                   ML-optimized integration grids
   S Lehtola, MJT Oliveira, MAL Marques          : LibXC Library
   Liviu Ungur et al                             : ANISO software


 Your calculation uses the libint2 library for the computation of 2-el integrals
 For citations please refer to: http://libint.valeyev.net

 Your ORCA version has been built with support for libXC version: 5.1.0
 For citations please refer to: https://tddft.org/programs/libxc/

 This ORCA versions uses:
   CBLAS   interface :  Fast vector & matrix operations
   LAPACKE interface :  Fast linear algebra routines
   SCALAPACK package :  Parallel linear algebra routines
   Shared memory     :  Shared parallel matrices
   BLAS/LAPACK       :  OpenBLAS 0.3.15  USE64BITINT DYNAMIC_ARCH NO_AFFINITY Haswell SINGLE_THREADED
        Core in use  :  Haswell
   Copyright (c) 2011-2014, The OpenBLAS Project




***************************************
The coordinates will be read from file: P2.xyz
***************************************


Your calculation utilizes the geometrical counterpoise correction gCP
Please cite in your paper:
H.Kruse, S. Grimme J.Chem.Phys., 136, (2012), 154101 
   

Your calculation utilizes the atom-pairwise dispersion correction
with the Becke-Johnson damping scheme (D3BJ)
Cite in your paper:
S.Grimme, S.Ehrlich, L.Goerigk, J Comput Chem, (2011), 32, 1456–1465 
S.Grimme, J.Antony, S.Ehrlich and H.Krieg, J.Chem.Phys., 132, (2010), 154104 
   

Your calculation employs the composite approach PBEh-3c.
Please cite in your paper:
S. Grimme, J. G. Brandenburg, C. Bannwarth, A. Hansen J.Chem.Phys., 143, (2015), 054107 
   

================================================================================

----- Orbital basis set information -----
Your calculation utilizes the basis: def2-mSVP

----- AuxJ basis set information -----
Your calculation utilizes the auxiliary basis: def2/J
   F. Weigend, Phys. Chem. Chem. Phys. 8, 1057 (2006).

================================================================================
                                        WARNINGS
                       Please study these warnings very carefully!
================================================================================


WARNING: your system is open-shell and RHF/RKS was chosen
  ===> : WILL SWITCH to UHF/UKS


INFO   : the flag for use of the SHARK integral package has been found!

================================================================================
                                       INPUT FILE
================================================================================
NAME = pbeh-3c.inp
|  1> ! PBEh-3c def2/J TightSCF DefGrid3
|  2> 
|  3> %maxcore 60000
|  4> 
|  5> %pal
|  6> nprocs 4
|  7> end
|  8> 
|  9> *xyzfile 0 2 P2.xyz
| 10> 
| 11>                          ****END OF INPUT****
================================================================================

                       ****************************
                       * Single Point Calculation *
                       ****************************

---------------------------------
CARTESIAN COORDINATES (ANGSTROEM)
---------------------------------
  C      0.000000    0.000000    0.920033
  C      1.215106    0.000000    0.177886
  C      1.208385    0.000000   -1.203440
  C      0.000000    0.000000   -1.907345
  C     -1.208385    0.000000   -1.203440
  C     -1.215106    0.000000    0.177886
  C      0.000000    0.000000    2.322639
  H      2.155861    0.000000    0.716719
  H      2.146970    0.000000   -1.745431
  H      0.000000    0.000000   -2.990359
  H     -2.146970    0.000000   -1.745431
  H     -2.155861    0.000000    0.716719
  H      0.926381    0.000000    2.881783
  H     -0.926381    0.000000    2.881783

----------------------------
CARTESIAN COORDINATES (A.U.)
----------------------------
  NO LB      ZA    FRAG     MASS         X           Y           Z
   0 C     6.0000    0    12.011    0.000000    0.000000    1.738610
   1 C     6.0000    0    12.011    2.296218    0.000000    0.336155
   2 C     6.0000    0    12.011    2.283517    0.000000   -2.274173
   3 C     6.0000    0    12.011    0.000000    0.000000   -3.604360
   4 C     6.0000    0    12.011   -2.283517    0.000000   -2.274173
   5 C     6.0000    0    12.011   -2.296218    0.000000    0.336155
   6 C     6.0000    0    12.011    0.000000    0.000000    4.389151
   7 H     1.0000    0     1.008    4.073988    0.000000    1.354403
   8 H     1.0000    0     1.008    4.057186    0.000000   -3.298387
   9 H     1.0000    0     1.008    0.000000    0.000000   -5.650960
  10 H     1.0000    0     1.008   -4.057186    0.000000   -3.298387
  11 H     1.0000    0     1.008   -4.073988    0.000000    1.354403
  12 H     1.0000    0     1.008    1.750607    0.000000    5.445781
  13 H     1.0000    0     1.008   -1.750607    0.000000    5.445781

--------------------------------
INTERNAL COORDINATES (ANGSTROEM)
--------------------------------
 C      0   0   0     0.000000000000     0.00000000     0.00000000
 C      1   0   0     1.423820821919     0.00000000     0.00000000
 C      2   1   0     1.381342553232   121.13641439     0.00000000
 C      3   2   1     1.398454722781   120.50031613     0.00000000
 C      4   3   2     1.398454722781   119.55696311     0.00000000
 C      5   4   3     1.381342553232   120.50031613     0.00000000
 C      1   2   3     1.402605700000   121.41521207   180.00000000
 H      2   1   3     1.084140809680   118.78213575   180.00000000
 H      3   2   1     1.083833980158   119.72570183   180.00000085
 H      4   3   2     1.083014500000   120.22151844   180.00000000
 H      5   4   3     1.083833980158   119.77398205   180.00000000
 H      6   5   4     1.084140809680   120.08144987   180.00000085
 H      7   1   2     1.082046670296   121.11431273     0.00000000
 H      7   1   2     1.082046670296   121.11431273   180.00000000

---------------------------
INTERNAL COORDINATES (A.U.)
---------------------------
 C      0   0   0     0.000000000000     0.00000000     0.00000000
 C      1   0   0     2.690631417201     0.00000000     0.00000000
 C      2   1   0     2.610359122739   121.13641439     0.00000000
 C      3   2   1     2.642696436745   120.50031613     0.00000000
 C      4   3   2     2.642696436745   119.55696311     0.00000000
 C      5   4   3     2.610359122739   120.50031613     0.00000000
 C      1   2   3     2.650540646877   121.41521207   180.00000000
 H      2   1   3     2.048729220903   118.78213575   180.00000000
 H      3   2   1     2.048149397137   119.72570183   180.00000085
 H      4   3   2     2.046600804066   120.22151844   180.00000000
 H      5   4   3     2.048149397137   119.77398205   180.00000000
 H      6   5   4     2.048729220903   120.08144987   180.00000085
 H      7   1   2     2.044771870981   121.11431273     0.00000000
 H      7   1   2     2.044771870981   121.11431273   180.00000000

---------------------
BASIS SET INFORMATION
---------------------
There are 2 groups of distinct atoms

 Group   1 Type C   : 8s4p1d contracted to 4s2p1d pattern {5111/31/1}
 Group   2 Type H   : 4s contracted to 2s pattern {31}

Atom   0C    basis set group =>   1
Atom   1C    basis set group =>   1
Atom   2C    basis set group =>   1
Atom   3C    basis set group =>   1
Atom   4C    basis set group =>   1
Atom   5C    basis set group =>   1
Atom   6C    basis set group =>   1
Atom   7H    basis set group =>   2
Atom   8H    basis set group =>   2
Atom   9H    basis set group =>   2
Atom  10H    basis set group =>   2
Atom  11H    basis set group =>   2
Atom  12H    basis set group =>   2
Atom  13H    basis set group =>   2
---------------------------------
AUXILIARY/J BASIS SET INFORMATION
---------------------------------
There are 2 groups of distinct atoms

 Group   1 Type C   : 12s5p4d2f1g contracted to 6s4p3d1f1g pattern {711111/2111/211/2/1}
 Group   2 Type H   : 5s2p1d contracted to 3s1p1d pattern {311/2/1}

Atom   0C    basis set group =>   1
Atom   1C    basis set group =>   1
Atom   2C    basis set group =>   1
Atom   3C    basis set group =>   1
Atom   4C    basis set group =>   1
Atom   5C    basis set group =>   1
Atom   6C    basis set group =>   1
Atom   7H    basis set group =>   2
Atom   8H    basis set group =>   2
Atom   9H    basis set group =>   2
Atom  10H    basis set group =>   2
Atom  11H    basis set group =>   2
Atom  12H    basis set group =>   2
Atom  13H    basis set group =>   2


           ************************************************************
           *        Program running with 4 parallel MPI-processes     *
           *              working on a common directory               *
           ************************************************************
------------------------------------------------------------------------------
                           ORCA GTO INTEGRAL CALCULATION
                           -- RI-GTO INTEGRALS CHOSEN --
------------------------------------------------------------------------------
------------------------------------------------------------------------------
                   ___                                                        
                  /   \      - P O W E R E D   B Y -                         
                 /     \                                                     
                 |  |  |   _    _      __       _____    __    __             
                 |  |  |  | |  | |    /  \     |  _  \  |  |  /  |          
                  \  \/   | |  | |   /    \    | | | |  |  | /  /          
                 / \  \   | |__| |  /  /\  \   | |_| |  |  |/  /          
                |  |  |   |  __  | /  /__\  \  |    /   |      \           
                |  |  |   | |  | | |   __   |  |    \   |  |\   \          
                \     /   | |  | | |  |  |  |  | |\  \  |  | \   \       
                 \___/    |_|  |_| |__|  |__|  |_| \__\ |__|  \__/        
                                                                              
                      - O R C A' S   B I G   F R I E N D -                    
                                      &                                       
                       - I N T E G R A L  F E E D E R -                       
                                                                              
 v1 FN, 2020, v2 2021                                                         
------------------------------------------------------------------------------


Reading SHARK input file pbeh-3c.SHARKINP.tmp ... ok
----------------------
SHARK INTEGRAL PACKAGE
----------------------

Number of atoms                             ...     14
Number of basis functions                   ...    119
Number of shells                            ...     63
Maximum angular momentum                    ...      2
Integral batch strategy                     ... SHARK/LIBINT Hybrid
RI-J (if used) integral strategy            ... SPLIT-RIJ (Revised 2003 algorithm where possible)
Printlevel                                  ...      1
Contraction scheme used                     ... SEGMENTED contraction
Coulomb Range Separation                    ... NOT USED
Exchange Range Separation                   ... NOT USED
Finite Nucleus Model                        ... NOT USED
Auxiliary Coulomb fitting basis             ... AVAILABLE
   # of basis functions in Aux-J            ...    420
   # of shells in Aux-J                     ...    140
   Maximum angular momentum in Aux-J        ...      4
Auxiliary J/K fitting basis                 ... NOT available
Auxiliary Correlation fitting basis         ... NOT available
Auxiliary 'external' fitting basis          ... NOT available
Integral threshold                          ...     2.500000e-11
Primitive cut-off                           ...     2.500000e-12
Primitive pair pre-selection threshold      ...     2.500000e-12

Calculating pre-screening integrals         ... done (  0.1 sec) Dimension = 63
Organizing shell pair data                  ... done (  0.5 sec)
Shell pair information
Total number of shell pairs                 ...      2016
Shell pairs after pre-screening             ...      1888
Total number of primitive shell pairs       ...      7252
Primitive shell pairs kept                  ...      5007
          la=0 lb=0:    795 shell pairs
          la=1 lb=0:    583 shell pairs
          la=1 lb=1:    105 shell pairs
          la=2 lb=0:    279 shell pairs
          la=2 lb=1:     98 shell pairs
          la=2 lb=2:     28 shell pairs

Calculating one electron integrals          ... done (  0.0 sec)
Calculating RI/J V-Matrix + Cholesky decomp.... done (  0.5 sec)
Calculating Nuclear repulsion               ... done (  0.1 sec) ENN=    260.362839969703 Eh

SHARK setup successfully completed in   2.2 seconds

Maximum memory used throughout the entire GTOINT-calculation: 10.6 MB


           ************************************************************
           *        Program running with 4 parallel MPI-processes     *
           *              working on a common directory               *
           ************************************************************
-------------------------------------------------------------------------------
                                 ORCA SCF
-------------------------------------------------------------------------------

------------
SCF SETTINGS
------------
Hamiltonian:
 Density Functional     Method          .... DFT(GTOs)
 Exchange Functional    Exchange        .... PBE
   PBE kappa parameter   XKappa         ....  1.024500
   PBE mue parameter    XMuePBE         ....  0.123457
 Correlation Functional Correlation     .... PBE
   PBE beta parameter  CBetaPBE         ....  0.030000
 LDA part of GGA corr.  LDAOpt          .... PW91-LDA
 Gradients option       PostSCFGGA      .... off
 Hybrid DFT is turned on
   Fraction HF Exchange ScalHFX         ....  0.420000
   Scaling of DF-GGA-X  ScalDFX         ....  0.580000
   Scaling of DF-GGA-C  ScalDFC         ....  1.000000
   Scaling of DF-LDA-C  ScalLDAC        ....  1.000000
   Perturbative correction              ....  0.000000
   Density functional embedding theory  .... OFF
 RI-approximation to the Coulomb term is turned on
   Number of AuxJ basis functions       .... 420
   RIJ-ON(X) (HFX calculated with O(N)) .... on
   Number of AuxJ basis functions       .... 420
   RIJ-COSX (HFX calculated with COS-X)).... on


General Settings:
 Integral files         IntName         .... pbeh-3c
 Hartree-Fock type      HFTyp           .... UHF
 Total Charge           Charge          ....    0
 Multiplicity           Mult            ....    2
 Number of Electrons    NEL             ....   49
 Basis Dimension        Dim             ....  119
 Nuclear Repulsion      ENuc            ....    260.3628399697 Eh

Convergence Acceleration:
 DIIS                   CNVDIIS         .... on
   Start iteration      DIISMaxIt       ....    12
   Startup error        DIISStart       ....  0.200000
   # of expansion vecs  DIISMaxEq       ....     5
   Bias factor          DIISBfac        ....   1.050
   Max. coefficient     DIISMaxC        ....  10.000
 Trust-Rad. Augm. Hess. CNVTRAH         .... auto
   Auto Start mean grad. ratio tolernc. ....  1.125000
   Auto Start start iteration           ....    20
   Auto Start num. interpolation iter.  ....    10
   Max. Number of Micro iterations      ....    16
   Max. Number of Macro iterations      .... Maxiter - #DIIS iter
   Number of Davidson start vectors     ....     2
   Converg. threshold I  (grad. norm)   ....   1.000e-05
   Converg. threshold II (energy diff.) ....   1.000e-08
   Grad. Scal. Fac. for Micro threshold ....   0.100
   Minimum threshold for Micro iter.    ....   0.010
   NR start threshold (gradient norm)   ....   0.001
   Initial trust radius                 ....   0.400
   Minimum AH scaling param. (alpha)    ....   1.000
   Maximum AH scaling param. (alpha)    .... 1000.000
   Orbital update algorithm             .... Taylor
   White noise on init. David. guess    .... on
   Maximum white noise                  ....   0.010
   Quad. conv. algorithm                .... NR
   COSX micro iterations for RIJONX calc.... off
 SOSCF                  CNVSOSCF        .... off
 Level Shifting         CNVShift        .... on
   Level shift para.    LevelShift      ....    0.2500
   Turn off err/grad.   ShiftErr        ....    0.0010
 Zerner damping         CNVZerner       .... off
 Static damping         CNVDamp         .... on
   Fraction old density DampFac         ....    0.7000
   Max. Damping (<1)    DampMax         ....    0.9800
   Min. Damping (>=0)   DampMin         ....    0.0000
   Turn off err/grad.   DampErr         ....    0.1000
 Fernandez-Rico         CNVRico         .... off

SCF Procedure:
 Maximum # iterations   MaxIter         ....   125
 SCF integral mode      SCFMode         .... Direct
   Integral package                     .... SHARK and LIBINT hybrid scheme
 Reset frequency        DirectResetFreq ....    20
 Integral Threshold     Thresh          ....  2.500e-11 Eh
 Primitive CutOff       TCut            ....  2.500e-12 Eh

Convergence Tolerance:
 Convergence Check Mode ConvCheckMode   .... Total+1el-Energy
 Convergence forced     ConvForced      .... 0
 Energy Change          TolE            ....  1.000e-08 Eh
 1-El. energy change                    ....  1.000e-05 Eh
 DIIS Error             TolErr          ....  5.000e-07


Diagonalization of the overlap matrix:
Smallest eigenvalue                        ... 4.658e-04
Time for diagonalization                   ...    0.004 sec
Threshold for overlap eigenvalues          ... 1.000e-08
Number of eigenvalues below threshold      ... 0
Time for construction of square roots      ...    0.247 sec
Total time needed                          ...    0.275 sec

--------------------------------
INITIAL GUESS: MINIMAL BASIS EHT
--------------------------------
The minimal basis has 42 functions
EHT matrix was diagonalized
Basis set overlap was calculated now projecting the orbitals
Using GuessMode=FMatrix for the initial guess
C*T matrix was formed
Effective Fockian was calculated
Effective Fockian was diagonalized
Initial density was built
                      ------------------
                      INITIAL GUESS DONE
                      ------------------
-------------------
DFT GRID GENERATION
-------------------

General Integration Accuracy     IntAcc      ... 4.959
Radial Grid Type                 RadialGrid  ... OptM3 with GC (2021)
Angular Grid (max. ang.)         AngularGrid ... 6 (Lebedev-590)
Angular grid pruning method      GridPruning ... 4 (adaptive)
Weight generation scheme         WeightScheme... Becke
Basis function cutoff            BFCut       ... 1.0000e-11
Integration weight cutoff        WCut        ... 1.0000e-14
Angular grids for H and He will be reduced by one unit
Partially contracted basis set               ... off
Rotationally invariant grid construction     ... off

Total number of grid points                  ...   161357
Total number of batches                      ...     2529
Average number of points per batch           ...       63
Average number of grid points per atom       ...    11526
Time for grid setup =    2.572 sec

--------------------
COSX GRID GENERATION
--------------------

GRIDX 1
-------
General Integration Accuracy     IntAcc      ... 4.020
Radial Grid Type                 RadialGrid  ... OptM3 with GC (2021)
Angular Grid (max. ang.)         AngularGrid ... 2 (Lebedev-110)
Angular grid pruning method      GridPruning ... 4 (adaptive)
Weight generation scheme         WeightScheme... Becke
Basis function cutoff            BFCut       ... 1.0000e-11
Integration weight cutoff        WCut        ... 1.0000e-14
Angular grids for H and He will be reduced by one unit
Partially contracted basis set               ... on
Rotationally invariant grid construction     ... off

Total number of grid points                  ...    17963
Total number of batches                      ...      288
Average number of points per batch           ...       62
Average number of grid points per atom       ...     1283
UseSFitting                                  ... on

GRIDX 2
-------
General Integration Accuracy     IntAcc      ... 4.338
Radial Grid Type                 RadialGrid  ... OptM3 with GC (2021)
Angular Grid (max. ang.)         AngularGrid ... 3 (Lebedev-194)
Angular grid pruning method      GridPruning ... 4 (adaptive)
Weight generation scheme         WeightScheme... Becke
Basis function cutoff            BFCut       ... 1.0000e-11
Integration weight cutoff        WCut        ... 1.0000e-14
Angular grids for H and He will be reduced by one unit
Partially contracted basis set               ... on
Rotationally invariant grid construction     ... off

Total number of grid points                  ...    39516
Total number of batches                      ...      624
Average number of points per batch           ...       63
Average number of grid points per atom       ...     2823
UseSFitting                                  ... on

GRIDX 3
-------
General Integration Accuracy     IntAcc      ... 4.871
Radial Grid Type                 RadialGrid  ... OptM3 with GC (2021)
Angular Grid (max. ang.)         AngularGrid ... 4 (Lebedev-302)
Angular grid pruning method      GridPruning ... 4 (adaptive)
Weight generation scheme         WeightScheme... Becke
Basis function cutoff            BFCut       ... 1.0000e-11
Integration weight cutoff        WCut        ... 1.0000e-14
Angular grids for H and He will be reduced by one unit
Partially contracted basis set               ... on
Rotationally invariant grid construction     ... off

Total number of grid points                  ...    75724
Total number of batches                      ...     1189
Average number of points per batch           ...       63
Average number of grid points per atom       ...     5409
UseSFitting                                  ... on

Time for X-Grid setup             =    3.048 sec

--------------
SCF ITERATIONS
--------------
ITER       Energy         Delta-E        Max-DP      RMS-DP      [F,P]     Damp
               ***  Starting incremental Fock matrix formation  ***
  0   -269.6572711742   0.000000000000 0.05942002  0.00236407  0.2050942 0.7000
  1   -269.8452122305  -0.187941056290 0.04041851  0.00173446  0.1449003 0.7000
                               ***Turning on DIIS***
  2   -269.9809683151  -0.135756084537 0.02835783  0.00127758  0.1019206 0.7000
  3   -270.0782572850  -0.097288969923 0.07018582  0.00334111  0.0716944 0.0000
  4   -270.3151800390  -0.236922754023 0.01191216  0.00024223  0.0069050 0.0000
  5   -270.3161363435  -0.000956304534 0.00513710  0.00012268  0.0045636 0.0000
  6   -270.3164951077  -0.000358764172 0.00323175  0.00008773  0.0030975 0.0000
  7   -270.3166901037  -0.000194996035 0.00273915  0.00008708  0.0015626 0.0000
  8   -270.3168201848  -0.000130081029 0.00326359  0.00010120  0.0008972 0.0000
               *** Restarting incremental Fock matrix formation ***
                                   *** Resetting DIIS ***
  9   -270.3168921481  -0.000071963311 0.00078894  0.00002224  0.0004698 0.0000
 10   -270.3169011746  -0.000009026535 0.00072207  0.00001833  0.0003513 0.0000
 11   -270.3169065549  -0.000005380264 0.00118998  0.00003263  0.0002658 0.0000
 12   -270.3169116695  -0.000005114649 0.00033453  0.00000911  0.0000731 0.0000
 13   -270.3169120489  -0.000000379413 0.00007597  0.00000175  0.0000295 0.0000
 14   -270.3169120837  -0.000000034777 0.00004386  0.00000099  0.0000166 0.0000
 15   -270.3169120954  -0.000000011653 0.00002582  0.00000051  0.0000097 0.0000
 16   -270.3169120946   0.000000000773 0.00001125  0.00000027  0.0000046 0.0000
 17   -270.3169120989  -0.000000004320 0.00000293  0.00000010  0.0000023 0.0000
 18   -270.3169120996  -0.000000000712 0.00000233  0.00000007  0.0000014 0.0000
                            ***DIIS convergence achieved***

               *****************************************************
               *                     SUCCESS                       *
               *           SCF CONVERGED AFTER  19 CYCLES          *
               *****************************************************

Old exchange energy                            =    -16.273340025 Eh
New exchange energy                            =    -16.273329075 Eh
Exchange energy change after final integration =      0.000010949 Eh
Total energy after final integration           =   -270.316901147 Eh
Final COS-X integration done in                =     3.426 sec

----------------
TOTAL SCF ENERGY
----------------

Total Energy       :         -270.31690115 Eh           -7355.69684 eV

Components:
Nuclear Repulsion  :          260.36283997 Eh            7084.83306 eV
Electronic Energy  :         -530.67974112 Eh          -14440.52990 eV
One Electron Energy:         -878.77737587 Eh          -23912.74810 eV
Two Electron Energy:          348.09763476 Eh            9472.21820 eV
Max COSX asymmetry :            0.00000029 Eh               0.00001 eV

Virial components:
Potential Energy   :         -538.42890994 Eh          -14651.39550 eV
Kinetic Energy     :          268.11200879 Eh            7295.69867 eV
Virial Ratio       :            2.00822377


DFT components:
N(Alpha)           :       25.000001648179 electrons
N(Beta)            :       24.000001648324 electrons
N(Total)           :       49.000003296503 electrons
E(X)               :      -21.593108875112 Eh       
E(C)               :       -2.095530307183 Eh       
E(XC)              :      -23.688639182294 Eh       
DFET-embed. en.    :        0.000000000000 Eh       

---------------
SCF CONVERGENCE
---------------

  Last Energy change         ...    3.8584e-09  Tolerance :   1.0000e-08
  Last MAX-Density change    ...    0.0000e+00  Tolerance :   1.0000e-07
  Last RMS-Density change    ...    0.0000e+00  Tolerance :   5.0000e-09
  Last DIIS Error            ...    9.0988e-07  Tolerance :   5.0000e-07

             **** THE GBW FILE WAS UPDATED (pbeh-3c.gbw) ****
             **** DENSITY pbeh-3c.scfp WAS UPDATED ****
             **** ENERGY FILE WAS UPDATED (pbeh-3c.en.tmp) ****
----------------------
UHF SPIN CONTAMINATION
----------------------

Warning: in a DFT calculation there is little theoretical justification to 
         calculate <S**2> as in Hartree-Fock theory. We will do it anyways
         but you should keep in mind that the values have only limited relevance

Expectation value of <S**2>     :     0.825746
Ideal value S*(S+1) for S=0.5   :     0.750000
Deviation                       :     0.075746

             **** THE GBW FILE WAS UPDATED (pbeh-3c.gbw) ****
             **** DENSITY pbeh-3c.scfp WAS UPDATED ****
----------------
ORBITAL ENERGIES
----------------
                 SPIN UP ORBITALS
  NO   OCC          E(Eh)            E(eV) 
   0   1.0000     -10.458411      -284.5878 
   1   1.0000     -10.451746      -284.4065 
   2   1.0000     -10.451720      -284.4058 
   3   1.0000     -10.451569      -284.4016 
   4   1.0000     -10.450949      -284.3848 
   5   1.0000     -10.447582      -284.2932 
   6   1.0000     -10.447554      -284.2924 
   7   1.0000      -0.959452       -26.1080 
   8   1.0000      -0.870590       -23.6900 
   9   1.0000      -0.840439       -22.8695 
  10   1.0000      -0.765650       -20.8344 
  11   1.0000      -0.683186       -18.5904 
  12   1.0000      -0.656608       -17.8672 
  13   1.0000      -0.580924       -15.8078 
  14   1.0000      -0.533758       -14.5243 
  15   1.0000      -0.526565       -14.3286 
  16   1.0000      -0.483423       -13.1546 
  17   1.0000      -0.478122       -13.0104 
  18   1.0000      -0.456120       -12.4117 
  19   1.0000      -0.436076       -11.8662 
  20   1.0000      -0.410682       -11.1752 
  21   1.0000      -0.391134       -10.6433 
  22   1.0000      -0.345591        -9.4040 
  23   1.0000      -0.304402        -8.2832 
  24   1.0000      -0.227807        -6.1989 
  25   0.0000       0.017918         0.4876 
  26   0.0000       0.042013         1.1432 
  27   0.0000       0.142718         3.8836 
  28   0.0000       0.174823         4.7572 
  29   0.0000       0.187485         5.1017 
  30   0.0000       0.196009         5.3337 
  31   0.0000       0.210060         5.7160 
  32   0.0000       0.229956         6.2574 
  33   0.0000       0.239161         6.5079 
  34   0.0000       0.243805         6.6343 
  35   0.0000       0.272678         7.4200 
  36   0.0000       0.319491         8.6938 
  37   0.0000       0.323280         8.7969 
  38   0.0000       0.364099         9.9076 
  39   0.0000       0.379102        10.3159 
  40   0.0000       0.446646        12.1539 
  41   0.0000       0.501618        13.6497 
  42   0.0000       0.529699        14.4138 
  43   0.0000       0.542233        14.7549 
  44   0.0000       0.582111        15.8400 
  45   0.0000       0.585942        15.9443 
  46   0.0000       0.588682        16.0189 
  47   0.0000       0.610099        16.6016 
  48   0.0000       0.620269        16.8784 
  49   0.0000       0.622791        16.9470 
  50   0.0000       0.631888        17.1946 
  51   0.0000       0.638416        17.3722 
  52   0.0000       0.654038        17.7973 
  53   0.0000       0.662220        18.0199 
  54   0.0000       0.695046        18.9132 
  55   0.0000       0.706975        19.2378 
  56   0.0000       0.756714        20.5912 
  57   0.0000       0.763223        20.7684 
  58   0.0000       0.886918        24.1343 
  59   0.0000       0.938696        25.5432 
  60   0.0000       0.942401        25.6440 
  61   0.0000       0.973077        26.4788 
  62   0.0000       0.979513        26.6539 
  63   0.0000       1.008128        27.4326 
  64   0.0000       1.015108        27.6225 
  65   0.0000       1.046948        28.4889 
  66   0.0000       1.051589        28.6152 
  67   0.0000       1.068673        29.0801 
  68   0.0000       1.081316        29.4241 
  69   0.0000       1.099489        29.9186 
  70   0.0000       1.122107        30.5341 
  71   0.0000       1.152938        31.3730 
  72   0.0000       1.211225        32.9591 
  73   0.0000       1.296976        35.2925 
  74   0.0000       1.298052        35.3218 
  75   0.0000       1.346756        36.6471 
  76   0.0000       1.360141        37.0113 
  77   0.0000       1.379002        37.5245 
  78   0.0000       1.488682        40.5091 
  79   0.0000       1.521855        41.4118 
  80   0.0000       1.541359        41.9425 
  81   0.0000       1.563827        42.5539 
  82   0.0000       1.575660        42.8759 
  83   0.0000       1.715437        46.6794 
  84   0.0000       1.807624        49.1880 
  85   0.0000       1.834459        49.9182 
  86   0.0000       1.894941        51.5640 
  87   0.0000       1.979361        53.8611 
  88   0.0000       2.009623        54.6846 
  89   0.0000       2.047589        55.7177 
  90   0.0000       2.062392        56.1205 
  91   0.0000       2.112080        57.4726 
  92   0.0000       2.133365        58.0518 
  93   0.0000       2.199679        59.8563 
  94   0.0000       2.212554        60.2067 
  95   0.0000       2.245023        61.0902 
  96   0.0000       2.283362        62.1334 
  97   0.0000       2.349806        63.9415 
  98   0.0000       2.375781        64.6483 
  99   0.0000       2.383257        64.8517 
 100   0.0000       2.399279        65.2877 
 101   0.0000       2.502485        68.0961 
 102   0.0000       2.607154        70.9443 
 103   0.0000       2.640210        71.8438 
 104   0.0000       2.718335        73.9697 
 105   0.0000       2.760696        75.1224 
 106   0.0000       2.796677        76.1015 
 107   0.0000       2.805707        76.3472 
 108   0.0000       2.868321        78.0510 
 109   0.0000       2.920477        79.4702 
 110   0.0000       3.145109        85.5828 
 111   0.0000       3.453776        93.9820 
 112   0.0000      13.205664       359.3444 
 113   0.0000      13.552438       368.7806 
 114   0.0000      13.645721       371.3190 
 115   0.0000      13.844937       376.7399 
 116   0.0000      14.141931       384.8215 
 117   0.0000      14.142393       384.8341 
 118   0.0000      14.526822       395.2949 

                 SPIN DOWN ORBITALS
  NO   OCC          E(Eh)            E(eV) 
   0   1.0000     -10.462575      -284.7011 
   1   1.0000     -10.450637      -284.3763 
   2   1.0000     -10.450612      -284.3756 
   3   1.0000     -10.446984      -284.2769 
   4   1.0000     -10.446974      -284.2766 
   5   1.0000     -10.446506      -284.2639 
   6   1.0000     -10.438727      -284.0522 
   7   1.0000      -0.954824       -25.9821 
   8   1.0000      -0.860528       -23.4162 
   9   1.0000      -0.836841       -22.7716 
  10   1.0000      -0.739897       -20.1336 
  11   1.0000      -0.680884       -18.5278 
  12   1.0000      -0.650304       -17.6957 
  13   1.0000      -0.576365       -15.6837 
  14   1.0000      -0.529995       -14.4219 
  15   1.0000      -0.523658       -14.2495 
  16   1.0000      -0.482556       -13.1310 
  17   1.0000      -0.474191       -12.9034 
  18   1.0000      -0.449800       -12.2397 
  19   1.0000      -0.421072       -11.4579 
  20   1.0000      -0.407574       -11.0906 
  21   1.0000      -0.390162       -10.6168 
  22   1.0000      -0.309860        -8.4317 
  23   1.0000      -0.292583        -7.9616 
  24   0.0000      -0.054152        -1.4735 
  25   0.0000       0.027875         0.7585 
  26   0.0000       0.070623         1.9218 
  27   0.0000       0.144759         3.9391 
  28   0.0000       0.183989         5.0066 
  29   0.0000       0.188665         5.1338 
  30   0.0000       0.206140         5.6094 
  31   0.0000       0.214178         5.8281 
  32   0.0000       0.233696         6.3592 
  33   0.0000       0.241168         6.5625 
  34   0.0000       0.248739         6.7685 
  35   0.0000       0.275081         7.4853 
  36   0.0000       0.321258         8.7419 
  37   0.0000       0.323790         8.8108 
  38   0.0000       0.365425         9.9437 
  39   0.0000       0.381660        10.3855 
  40   0.0000       0.449541        12.2326 
  41   0.0000       0.521238        14.1836 
  42   0.0000       0.533201        14.5091 
  43   0.0000       0.578300        15.7363 
  44   0.0000       0.587338        15.9823 
  45   0.0000       0.587784        15.9944 
  46   0.0000       0.591341        16.0912 
  47   0.0000       0.616661        16.7802 
  48   0.0000       0.622326        16.9344 
  49   0.0000       0.636943        17.3321 
  50   0.0000       0.645925        17.5765 
  51   0.0000       0.652721        17.7614 
  52   0.0000       0.658909        17.9298 
  53   0.0000       0.666263        18.1299 
  54   0.0000       0.696320        18.9478 
  55   0.0000       0.714459        19.4414 
  56   0.0000       0.758773        20.6473 
  57   0.0000       0.766314        20.8525 
  58   0.0000       0.892925        24.2977 
  59   0.0000       0.940789        25.6002 
  60   0.0000       0.948861        25.8198 
  61   0.0000       0.975435        26.5429 
  62   0.0000       0.979907        26.6646 
  63   0.0000       1.016729        27.6666 
  64   0.0000       1.021683        27.8014 
  65   0.0000       1.049377        28.5550 
  66   0.0000       1.050140        28.5758 
  67   0.0000       1.077385        29.3171 
  68   0.0000       1.084762        29.5179 
  69   0.0000       1.105449        30.0808 
  70   0.0000       1.124850        30.6087 
  71   0.0000       1.154617        31.4187 
  72   0.0000       1.220021        33.1985 
  73   0.0000       1.299151        35.3517 
  74   0.0000       1.301942        35.4276 
  75   0.0000       1.351657        36.7805 
  76   0.0000       1.365481        37.1566 
  77   0.0000       1.396655        38.0049 
  78   0.0000       1.493258        40.6336 
  79   0.0000       1.528799        41.6007 
  80   0.0000       1.551571        42.2204 
  81   0.0000       1.567147        42.6442 
  82   0.0000       1.579307        42.9751 
  83   0.0000       1.764838        48.0237 
  84   0.0000       1.816275        49.4234 
  85   0.0000       1.835876        49.9567 
  86   0.0000       1.901793        51.7504 
  87   0.0000       2.004883        54.5556 
  88   0.0000       2.014552        54.8187 
  89   0.0000       2.048768        55.7498 
  90   0.0000       2.067865        56.2695 
  91   0.0000       2.113902        57.5222 
  92   0.0000       2.146101        58.3984 
  93   0.0000       2.203453        59.9590 
  94   0.0000       2.210300        60.1453 
  95   0.0000       2.264149        61.6106 
  96   0.0000       2.289955        62.3128 
  97   0.0000       2.354608        64.0721 
  98   0.0000       2.383033        64.8456 
  99   0.0000       2.387440        64.9655 
 100   0.0000       2.418485        65.8103 
 101   0.0000       2.514253        68.4163 
 102   0.0000       2.613262        71.1105 
 103   0.0000       2.645168        71.9787 
 104   0.0000       2.722533        74.0839 
 105   0.0000       2.761882        75.1546 
 106   0.0000       2.797690        76.1290 
 107   0.0000       2.807769        76.4033 
 108   0.0000       2.870006        78.0968 
 109   0.0000       2.923814        79.5610 
 110   0.0000       3.146413        85.6182 
 111   0.0000       3.454727        94.0079 
 112   0.0000      13.208265       359.4152 
 113   0.0000      13.558662       368.9500 
 114   0.0000      13.646564       371.3419 
 115   0.0000      13.855492       377.0271 
 116   0.0000      14.143320       384.8593 
 117   0.0000      14.143657       384.8685 
 118   0.0000      14.527938       395.3253 

                    ********************************
                    * MULLIKEN POPULATION ANALYSIS *
                    ********************************

--------------------------------------------
MULLIKEN ATOMIC CHARGES AND SPIN POPULATIONS
--------------------------------------------
   0 C :    0.202851   -0.285307
   1 C :   -0.278524    0.321139
   2 C :   -0.199983   -0.215483
   3 C :   -0.239294    0.350577
   4 C :   -0.199983   -0.215483
   5 C :   -0.278524    0.321139
   6 C :   -0.541872    0.855852
   7 H :    0.213374   -0.018400
   8 H :    0.219742    0.010692
   9 H :    0.221403   -0.020483
  10 H :    0.219743    0.010692
  11 H :    0.213374   -0.018401
  12 H :    0.223846   -0.048268
  13 H :    0.223846   -0.048268
Sum of atomic charges         :   -0.0000000
Sum of atomic spin populations:    1.0000000

-----------------------------------------------------
MULLIKEN REDUCED ORBITAL CHARGES AND SPIN POPULATIONS
-----------------------------------------------------
CHARGE
  0 C s       :     3.152030  s :     3.152030
      pz      :     0.811199  p :     2.597100
      px      :     0.822042
      py      :     0.963859
      dz2     :     0.011728  d :     0.048020
      dxz     :     0.015578
      dyz     :     0.008640
      dx2y2   :     0.006021
      dxy     :     0.006053
  1 C s       :     3.281977  s :     3.281977
      pz      :     0.954422  p :     2.957690
      px      :     1.008359
      py      :     0.994908
      dz2     :     0.009403  d :     0.038858
      dxz     :     0.014654
      dyz     :     0.005973
      dx2y2   :     0.006177
      dxy     :     0.002651
  2 C s       :     3.239399  s :     3.239399
      pz      :     0.932777  p :     2.920357
      px      :     0.997313
      py      :     0.990267
      dz2     :     0.009722  d :     0.040226
      dxz     :     0.014501
      dyz     :     0.006313
      dx2y2   :     0.006238
      dxy     :     0.003452
  3 C s       :     3.253707  s :     3.253707
      pz      :     1.051761  p :     2.946248
      px      :     0.900822
      py      :     0.993666
      dz2     :     0.013128  d :     0.039339
      dxz     :     0.011153
      dyz     :     0.002315
      dx2y2   :     0.006156
      dxy     :     0.006587
  4 C s       :     3.239399  s :     3.239399
      pz      :     0.932777  p :     2.920358
      px      :     0.997313
      py      :     0.990267
      dz2     :     0.009722  d :     0.040226
      dxz     :     0.014501
      dyz     :     0.006313
      dx2y2   :     0.006238
      dxy     :     0.003452
  5 C s       :     3.281977  s :     3.281977
      pz      :     0.954423  p :     2.957689
      px      :     1.008359
      py      :     0.994908
      dz2     :     0.009403  d :     0.038858
      dxz     :     0.014654
      dyz     :     0.005973
      dx2y2   :     0.006177
      dxy     :     0.002651
  6 C s       :     3.385735  s :     3.385735
      pz      :     0.974878  p :     3.125874
      px      :     1.143330
      py      :     1.007666
      dz2     :     0.007127  d :     0.030263
      dxz     :     0.013288
      dyz     :     0.004033
      dx2y2   :     0.005763
      dxy     :     0.000052
  7 H s       :     0.786626  s :     0.786626
  8 H s       :     0.780258  s :     0.780258
  9 H s       :     0.778597  s :     0.778597
 10 H s       :     0.780257  s :     0.780257
 11 H s       :     0.786626  s :     0.786626
 12 H s       :     0.776154  s :     0.776154
 13 H s       :     0.776154  s :     0.776154

SPIN
  0 C s       :    -0.044637  s :    -0.044637
      pz      :    -0.029254  p :    -0.250088
      px      :    -0.028034
      py      :    -0.192800
      dz2     :     0.000272  d :     0.009418
      dxz     :     0.000189
      dyz     :     0.007562
      dx2y2   :     0.000359
      dxy     :     0.001036
  1 C s       :     0.037318  s :     0.037318
      pz      :     0.013243  p :     0.286572
      px      :     0.021145
      py      :     0.252184
      dz2     :    -0.000287  d :    -0.002750
      dxz     :    -0.000126
      dyz     :    -0.001223
      dx2y2   :    -0.000623
      dxy     :    -0.000491
  2 C s       :    -0.027782  s :    -0.027782
      pz      :    -0.018875  p :    -0.192147
      px      :    -0.017806
      py      :    -0.155466
      dz2     :     0.000168  d :     0.004446
      dxz     :     0.000114
      dyz     :     0.002846
      dx2y2   :     0.000343
      dxy     :     0.000976
  3 C s       :     0.038346  s :     0.038346
      pz      :     0.019822  p :     0.314786
      px      :     0.017422
      py      :     0.277542
      dz2     :    -0.000323  d :    -0.002555
      dxz     :    -0.000090
      dyz     :    -0.000313
      dx2y2   :    -0.000594
      dxy     :    -0.001235
  4 C s       :    -0.027781  s :    -0.027781
      pz      :    -0.018875  p :    -0.192148
      px      :    -0.017807
      py      :    -0.155466
      dz2     :     0.000168  d :     0.004446
      dxz     :     0.000114
      dyz     :     0.002846
      dx2y2   :     0.000343
      dxy     :     0.000976
  5 C s       :     0.037317  s :     0.037317
      pz      :     0.013243  p :     0.286572
      px      :     0.021145
      py      :     0.252184
      dz2     :    -0.000287  d :    -0.002750
      dxz     :    -0.000126
      dyz     :    -0.001223
      dx2y2   :    -0.000623
      dxy     :    -0.000491
  6 C s       :     0.079183  s :     0.079183
      pz      :     0.024126  p :     0.780040
      px      :     0.044591
      py      :     0.711323
      dz2     :    -0.000660  d :    -0.003371
      dxz     :    -0.000135
      dyz     :    -0.000773
      dx2y2   :    -0.001810
      dxy     :     0.000007
  7 H s       :    -0.018400  s :    -0.018400
  8 H s       :     0.010692  s :     0.010692
  9 H s       :    -0.020483  s :    -0.020483
 10 H s       :     0.010692  s :     0.010692
 11 H s       :    -0.018401  s :    -0.018401
 12 H s       :    -0.048268  s :    -0.048268
 13 H s       :    -0.048268  s :    -0.048268


                     *******************************
                     * LOEWDIN POPULATION ANALYSIS *
                     *******************************

-------------------------------------------
LOEWDIN ATOMIC CHARGES AND SPIN POPULATIONS
-------------------------------------------
   0 C :   -0.066411   -0.158729
   1 C :   -0.121968    0.245982
   2 C :   -0.135340   -0.140226
   3 C :   -0.136730    0.269131
   4 C :   -0.135340   -0.140226
   5 C :   -0.121968    0.245982
   6 C :   -0.232735    0.740171
   7 H :    0.135973   -0.008647
   8 H :    0.136825    0.004923
   9 H :    0.136401   -0.009358
  10 H :    0.136825    0.004923
  11 H :    0.135973   -0.008647
  12 H :    0.134248   -0.022640
  13 H :    0.134248   -0.022640

----------------------------------------------------
LOEWDIN REDUCED ORBITAL CHARGES AND SPIN POPULATIONS
----------------------------------------------------
CHARGE
  0 C s       :     2.844879  s :     2.844879
      pz      :     1.077881  p :     3.104942
      px      :     1.080201
      py      :     0.946860
      dz2     :     0.031052  d :     0.116590
      dxz     :     0.040437
      dyz     :     0.018105
      dx2y2   :     0.014682
      dxy     :     0.012314
  1 C s       :     2.894924  s :     2.894924
      pz      :     1.083668  p :     3.140193
      px      :     1.069187
      py      :     0.987338
      dz2     :     0.024440  d :     0.086852
      dxz     :     0.035133
      dyz     :     0.011631
      dx2y2   :     0.010905
      dxy     :     0.004744
  2 C s       :     2.891905  s :     2.891905
      pz      :     1.090957  p :     3.151883
      px      :     1.080315
      py      :     0.980610
      dz2     :     0.025644  d :     0.091553
      dxz     :     0.035161
      dyz     :     0.012966
      dx2y2   :     0.011466
      dxy     :     0.006316
  3 C s       :     2.896198  s :     2.896198
      pz      :     1.078868  p :     3.151921
      px      :     1.087504
      py      :     0.985549
      dz2     :     0.026948  d :     0.088611
      dxz     :     0.028863
      dyz     :     0.003568
      dx2y2   :     0.015491
      dxy     :     0.013740
  4 C s       :     2.891905  s :     2.891905
      pz      :     1.090957  p :     3.151883
      px      :     1.080315
      py      :     0.980610
      dz2     :     0.025644  d :     0.091553
      dxz     :     0.035161
      dyz     :     0.012966
      dx2y2   :     0.011466
      dxy     :     0.006316
  5 C s       :     2.894924  s :     2.894924
      pz      :     1.083668  p :     3.140193
      px      :     1.069187
      py      :     0.987338
      dz2     :     0.024440  d :     0.086852
      dxz     :     0.035133
      dyz     :     0.011631
      dx2y2   :     0.010905
      dxy     :     0.004744
  6 C s       :     2.977925  s :     2.977925
      pz      :     1.082035  p :     3.195316
      px      :     1.108222
      py      :     1.005059
      dz2     :     0.017138  d :     0.059494
      dxz     :     0.027335
      dyz     :     0.007536
      dx2y2   :     0.007425
      dxy     :     0.000060
  7 H s       :     0.864027  s :     0.864027
  8 H s       :     0.863175  s :     0.863175
  9 H s       :     0.863599  s :     0.863599
 10 H s       :     0.863175  s :     0.863175
 11 H s       :     0.864027  s :     0.864027
 12 H s       :     0.865752  s :     0.865752
 13 H s       :     0.865752  s :     0.865752

SPIN
  0 C s       :    -0.011509  s :    -0.011509
      pz      :    -0.013057  p :    -0.169156
      px      :    -0.009170
      py      :    -0.146930
      dz2     :     0.001296  d :     0.021936
      dxz     :     0.001032
      dyz     :     0.016422
      dx2y2   :     0.000591
      dxy     :     0.002595
  1 C s       :     0.010612  s :     0.010612
      pz      :     0.007163  p :     0.241734
      px      :     0.007668
      py      :     0.226903
      dz2     :    -0.000782  d :    -0.006364
      dxz     :    -0.000617
      dyz     :    -0.002918
      dx2y2   :    -0.000740
      dxy     :    -0.001307
  2 C s       :    -0.007849  s :    -0.007849
      pz      :    -0.007445  p :    -0.142870
      px      :    -0.006008
      py      :    -0.129417
      dz2     :     0.000623  d :     0.010494
      dxz     :     0.000578
      dyz     :     0.006423
      dx2y2   :     0.000482
      dxy     :     0.002386
  3 C s       :     0.011416  s :     0.011416
      pz      :     0.007043  p :     0.263354
      px      :     0.008041
      py      :     0.248270
      dz2     :    -0.000578  d :    -0.005639
      dxz     :    -0.000599
      dyz     :    -0.000672
      dx2y2   :    -0.000789
      dxy     :    -0.003001
  4 C s       :    -0.007849  s :    -0.007849
      pz      :    -0.007445  p :    -0.142870
      px      :    -0.006008
      py      :    -0.129417
      dz2     :     0.000623  d :     0.010494
      dxz     :     0.000578
      dyz     :     0.006423
      dx2y2   :     0.000482
      dxy     :     0.002386
  5 C s       :     0.010612  s :     0.010612
      pz      :     0.007163  p :     0.241734
      px      :     0.007668
      py      :     0.226903
      dz2     :    -0.000782  d :    -0.006364
      dxz     :    -0.000617
      dyz     :    -0.002918
      dx2y2   :    -0.000740
      dxy     :    -0.001307
  6 C s       :     0.030255  s :     0.030255
      pz      :     0.016868  p :     0.715727
      px      :     0.017789
      py      :     0.681069
      dz2     :    -0.001264  d :    -0.005811
      dxz     :    -0.000816
      dyz     :    -0.001909
      dx2y2   :    -0.001836
      dxy     :     0.000014
  7 H s       :    -0.008647  s :    -0.008647
  8 H s       :     0.004923  s :     0.004923
  9 H s       :    -0.009358  s :    -0.009358
 10 H s       :     0.004923  s :     0.004923
 11 H s       :    -0.008647  s :    -0.008647
 12 H s       :    -0.022640  s :    -0.022640
 13 H s       :    -0.022640  s :    -0.022640


                      *****************************
                      * MAYER POPULATION ANALYSIS *
                      *****************************

  NA   - Mulliken gross atomic population
  ZA   - Total nuclear charge
  QA   - Mulliken gross atomic charge
  VA   - Mayer's total valence
  BVA  - Mayer's bonded valence
  FA   - Mayer's free valence

  ATOM       NA         ZA         QA         VA         BVA        FA
  0 C      5.7971     6.0000     0.2029     3.7203     3.6823     0.0380
  1 C      6.2785     6.0000    -0.2785     3.8081     3.7433     0.0648
  2 C      6.2000     6.0000    -0.2000     3.8122     3.7874     0.0248
  3 C      6.2393     6.0000    -0.2393     3.8181     3.7398     0.0783
  4 C      6.2000     6.0000    -0.2000     3.8122     3.7874     0.0248
  5 C      6.2785     6.0000    -0.2785     3.8081     3.7433     0.0648
  6 C      6.5419     6.0000    -0.5419     3.7444     3.2276     0.5168
  7 H      0.7866     1.0000     0.2134     0.9170     0.9167     0.0003
  8 H      0.7803     1.0000     0.2197     0.9117     0.9116     0.0001
  9 H      0.7786     1.0000     0.2214     0.9119     0.9115     0.0004
 10 H      0.7803     1.0000     0.2197     0.9117     0.9116     0.0001
 11 H      0.7866     1.0000     0.2134     0.9170     0.9167     0.0003
 12 H      0.7762     1.0000     0.2238     0.9215     0.9192     0.0023
 13 H      0.7762     1.0000     0.2238     0.9215     0.9192     0.0023

  Mayer bond orders larger than 0.100000
B(  0-C ,  1-C ) :   1.2472 B(  0-C ,  5-C ) :   1.2472 B(  0-C ,  6-C ) :   1.2365 
B(  1-C ,  2-C ) :   1.4725 B(  1-C ,  7-H ) :   0.9232 B(  2-C ,  3-C ) :   1.3699 
B(  2-C ,  8-H ) :   0.9197 B(  3-C ,  4-C ) :   1.3699 B(  3-C ,  9-H ) :   0.9184 
B(  4-C ,  5-C ) :   1.4725 B(  4-C , 10-H ) :   0.9197 B(  5-C , 11-H ) :   0.9232 
B(  6-C , 12-H ) :   0.9278 B(  6-C , 13-H ) :   0.9278 

-------
TIMINGS
-------

Total SCF time: 0 days 0 hours 3 min 12 sec 

Total time                  ....     192.038 sec
Sum of individual times     ....     178.415 sec  ( 92.9%)

Fock matrix formation       ....     157.792 sec  ( 82.2%)
  Split-RI-J                ....      12.702 sec  (  8.0% of F)
  Chain of spheres X        ....      36.338 sec  ( 23.0% of F)
  XC integration            ....      49.002 sec  ( 31.1% of F)
    Basis function eval.    ....       3.358 sec  (  6.9% of XC)
    Density eval.           ....       3.842 sec  (  7.8% of XC)
    XC-Functional eval.     ....       1.959 sec  (  4.0% of XC)
    XC-Potential eval.      ....       2.341 sec  (  4.8% of XC)
Diagonalization             ....       2.704 sec  (  1.4%)
Density matrix formation    ....       0.101 sec  (  0.1%)
Population analysis         ....       1.915 sec  (  1.0%)
Initial guess               ....       0.010 sec  (  0.0%)
Orbital Transformation      ....       0.000 sec  (  0.0%)
Orbital Orthonormalization  ....       0.000 sec  (  0.0%)
DIIS solution               ....      10.274 sec  (  5.4%)
Grid generation             ....       5.620 sec  (  2.9%)

Maximum memory used throughout the entire SCF-calculation: 53.5 MB


-------------------------------------------------------------------------------
                          DFT DISPERSION CORRECTION                            
                                                                               
                              DFTD3 V3.1  Rev 1                                
                          USING Becke-Johnson damping                          
-------------------------------------------------------------------------------
The PBEh-3c composite method is recognized
Using three-body term ABC
Active option DFTDOPT                   ...         4   

molecular C6(AA) [au] = 2257.830676 


            DFT-D V3
 parameters
 s6 scaling factor         :     1.0000 
 a1 scaling factor         :     0.4860 
 s8 scaling factor         :     0.0000 
 a2 scaling factor         :     4.5000 
 Damping factor alpha9(ATM):    16.0000 
 ad hoc parameters k1-k3   :    16.0000     1.3333    -4.0000 

 Edisp/kcal,au: -4.609372866598  -0.007345502443 
 E6   /kcal   :  -4.615653605 
 E8   /kcal   :  -0.000000000 
 E6(ABC)      :   0.006280738 
 % E8         :   0.000000000 
 % E6(ABC)    :  -0.136260146 

-------------------------   ----------------
Dispersion correction           -0.007345502
-------------------------   ----------------

------------------   -----------------
gCP correction             0.016825339
------------------   -----------------

-------------------------   --------------------
FINAL SINGLE POINT ENERGY      -270.307421310541
-------------------------   --------------------


                            ***************************************
                            *     ORCA property calculations      *
                            ***************************************

                                    ---------------------
                                    Active property flags
                                    ---------------------
   (+) Dipole Moment


------------------------------------------------------------------------------
                       ORCA ELECTRIC PROPERTIES CALCULATION
------------------------------------------------------------------------------

Dipole Moment Calculation                       ... on
Quadrupole Moment Calculation                   ... off
Polarizability Calculation                      ... off
GBWName                                         ... pbeh-3c.gbw
Electron density                                ... pbeh-3c.scfp
The origin for moment calculation is the CENTER OF MASS  = ( 0.000000,  0.000000 -0.163311)

-------------
DIPOLE MOMENT
-------------
                                X             Y             Z
Electronic contribution:     -0.00000      -0.00000      -1.25938
Nuclear contribution   :     -0.00000       0.00000       1.23907
                        -----------------------------------------
Total Dipole Moment    :     -0.00000      -0.00000      -0.02030
                        -----------------------------------------
Magnitude (a.u.)       :      0.02030
Magnitude (Debye)      :      0.05161



--------------------
Rotational spectrum 
--------------------
 
Rotational constants in cm-1:     0.185376     0.090409     0.060771 
Rotational constants in MHz :  5557.436413  2710.379344  1821.854925 

 Dipole components along the rotational axes: 
x,y,z [a.u.] :    -0.020304     0.000000     0.000000 
x,y,z [Debye]:    -0.051610     0.000000     0.000000 

 

Timings for individual modules:

Sum of individual times         ...      196.047 sec (=   3.267 min)
GTO integral calculation        ...        3.065 sec (=   0.051 min)   1.6 %
SCF iterations                  ...      192.982 sec (=   3.216 min)  98.4 %
                             ****ORCA TERMINATED NORMALLY****
TOTAL RUN TIME: 0 days 0 hours 3 minutes 33 seconds 673 msec
