
                                 *****************
                                 * O   R   C   A *
                                 *****************

                                            #,                                       
                                            ###                                      
                                            ####                                     
                                            #####                                    
                                            ######                                   
                                           ########,                                 
                                     ,,################,,,,,                         
                               ,,#################################,,                 
                          ,,##########################################,,             
                       ,#########################################, ''#####,          
                    ,#############################################,,   '####,        
                  ,##################################################,,,,####,       
                ,###########''''           ''''###############################       
              ,#####''   ,,,,##########,,,,          '''####'''          '####       
            ,##' ,,,,###########################,,,                        '##       
           ' ,,###''''                  '''############,,,                           
         ,,##''                                '''############,,,,        ,,,,,,###''
      ,#''                                            '''#######################'''  
     '                                                          ''''####''''         
             ,#######,   #######,   ,#######,      ##                                
            ,#'     '#,  ##    ##  ,#'     '#,    #''#        ######   ,####,        
            ##       ##  ##   ,#'  ##            #'  '#       #        #'  '#        
            ##       ##  #######   ##           ,######,      #####,   #    #        
            '#,     ,#'  ##    ##  '#,     ,#' ,#      #,         ##   #,  ,#        
             '#######'   ##     ##  '#######'  #'      '#     #####' # '####'        



                  #######################################################
                  #                        -***-                        #
                  #          Department of theory and spectroscopy      #
                  #    Directorship and core code : Frank Neese         #
                  #        Max Planck Institute fuer Kohlenforschung    #
                  #                Kaiser Wilhelm Platz 1               #
                  #                 D-45470 Muelheim/Ruhr               #
                  #                      Germany                        #
                  #                                                     #
                  #                  All rights reserved                #
                  #                        -***-                        #
                  #######################################################


                         Program Version 5.0.3 -  RELEASE  -


 With contributions from (in alphabetic order):
   Daniel Aravena         : Magnetic Suceptibility
   Michael Atanasov       : Ab Initio Ligand Field Theory (pilot matlab implementation)
   Alexander A. Auer      : GIAO ZORA, VPT2 properties, NMR spectrum
   Ute Becker             : Parallelization
   Giovanni Bistoni       : ED, misc. LED, open-shell LED, HFLD
   Martin Brehm           : Molecular dynamics
   Dmytro Bykov           : SCF Hessian
   Vijay G. Chilkuri      : MRCI spin determinant printing, contributions to CSF-ICE
   Dipayan Datta          : RHF DLPNO-CCSD density
   Achintya Kumar Dutta   : EOM-CC, STEOM-CC
   Dmitry Ganyushin       : Spin-Orbit,Spin-Spin,Magnetic field MRCI
   Miquel Garcia          : C-PCM and meta-GGA Hessian, CC/C-PCM, Gaussian charge scheme
   Yang Guo               : DLPNO-NEVPT2, F12-NEVPT2, CIM, IAO-localization
   Andreas Hansen         : Spin unrestricted coupled pair/coupled cluster methods
   Benjamin Helmich-Paris : MC-RPA, TRAH-SCF, COSX integrals
   Lee Huntington         : MR-EOM, pCC
   Robert Izsak           : Overlap fitted RIJCOSX, COSX-SCS-MP3, EOM
   Marcus Kettner         : VPT2
   Christian Kollmar      : KDIIS, OOCD, Brueckner-CCSD(T), CCSD density, CASPT2, CASPT2-K
   Simone Kossmann        : Meta GGA functionals, TD-DFT gradient, OOMP2, MP2 Hessian
   Martin Krupicka        : Initial AUTO-CI
   Lucas Lang             : DCDCAS
   Marvin Lechner         : AUTO-CI (C++ implementation), FIC-MRCC
   Dagmar Lenk            : GEPOL surface, SMD
   Dimitrios Liakos       : Extrapolation schemes; Compound Job, initial MDCI parallelization
   Dimitrios Manganas     : Further ROCIS development; embedding schemes
   Dimitrios Pantazis     : SARC Basis sets
   Anastasios Papadopoulos: AUTO-CI, single reference methods and gradients
   Taras Petrenko         : DFT Hessian,TD-DFT gradient, ASA, ECA, R-Raman, ABS, FL, XAS/XES, NRVS
   Peter Pinski           : DLPNO-MP2, DLPNO-MP2 Gradient
   Christoph Reimann      : Effective Core Potentials
   Marius Retegan         : Local ZFS, SOC
   Christoph Riplinger    : Optimizer, TS searches, QM/MM, DLPNO-CCSD(T), (RO)-DLPNO pert. Triples
   Tobias Risthaus        : Range-separated hybrids, TD-DFT gradient, RPA, STAB
   Michael Roemelt        : Original ROCIS implementation
   Masaaki Saitow         : Open-shell DLPNO-CCSD energy and density
   Barbara Sandhoefer     : DKH picture change effects
   Avijit Sen             : IP-ROCIS
   Kantharuban Sivalingam : CASSCF convergence, NEVPT2, FIC-MRCI
   Bernardo de Souza      : ESD, SOC TD-DFT
   Georgi Stoychev        : AutoAux, RI-MP2 NMR, DLPNO-MP2 response
   Willem Van den Heuvel  : Paramagnetic NMR
   Boris Wezisla          : Elementary symmetry handling
   Frank Wennmohs         : Technical directorship


 We gratefully acknowledge several colleagues who have allowed us to
 interface, adapt or use parts of their codes:
   Stefan Grimme, W. Hujo, H. Kruse, P. Pracht,  : VdW corrections, initial TS optimization,
                  C. Bannwarth, S. Ehlert          DFT functionals, gCP, sTDA/sTD-DF
   Ed Valeev, F. Pavosevic, A. Kumar             : LibInt (2-el integral package), F12 methods
   Garnet Chan, S. Sharma, J. Yang, R. Olivares  : DMRG
   Ulf Ekstrom                                   : XCFun DFT Library
   Mihaly Kallay                                 : mrcc  (arbitrary order and MRCC methods)
   Jiri Pittner, Ondrej Demel                    : Mk-CCSD
   Frank Weinhold                                : gennbo (NPA and NBO analysis)
   Christopher J. Cramer and Donald G. Truhlar   : smd solvation model
   Lars Goerigk                                  : TD-DFT with DH, B97 family of functionals
   V. Asgeirsson, H. Jonsson                     : NEB implementation
   FAccTs GmbH                                   : IRC, NEB, NEB-TS, DLPNO-Multilevel, CI-OPT
                                                   MM, QMMM, 2- and 3-layer-ONIOM, Crystal-QMMM,
                                                   LR-CPCM, SF, NACMEs, symmetry and pop. for TD-DFT,
                                                   nearIR, NL-DFT gradient (VV10), updates on ESD,
                                                   ML-optimized integration grids
   S Lehtola, MJT Oliveira, MAL Marques          : LibXC Library
   Liviu Ungur et al                             : ANISO software


 Your calculation uses the libint2 library for the computation of 2-el integrals
 For citations please refer to: http://libint.valeyev.net

 Your ORCA version has been built with support for libXC version: 5.1.0
 For citations please refer to: https://tddft.org/programs/libxc/

 This ORCA versions uses:
   CBLAS   interface :  Fast vector & matrix operations
   LAPACKE interface :  Fast linear algebra routines
   SCALAPACK package :  Parallel linear algebra routines
   Shared memory     :  Shared parallel matrices
   BLAS/LAPACK       :  OpenBLAS 0.3.15  USE64BITINT DYNAMIC_ARCH NO_AFFINITY Haswell SINGLE_THREADED
        Core in use  :  Haswell
   Copyright (c) 2011-2014, The OpenBLAS Project




***************************************
The coordinates will be read from file: h11.xyz
***************************************


Your calculation utilizes the geometrical counterpoise correction gCP
Please cite in your paper:
H.Kruse, S. Grimme J.Chem.Phys., 136, (2012), 154101 
   

Your calculation utilizes the atom-pairwise dispersion correction
with the Becke-Johnson damping scheme (D3BJ)
Cite in your paper:
S.Grimme, S.Ehrlich, L.Goerigk, J Comput Chem, (2011), 32, 1456–1465 
S.Grimme, J.Antony, S.Ehrlich and H.Krieg, J.Chem.Phys., 132, (2010), 154104 
   

Your calculation employs the composite approach PBEh-3c.
Please cite in your paper:
S. Grimme, J. G. Brandenburg, C. Bannwarth, A. Hansen J.Chem.Phys., 143, (2015), 054107 
   

================================================================================

----- Orbital basis set information -----
Your calculation utilizes the basis: def2-mSVP

----- AuxJ basis set information -----
Your calculation utilizes the auxiliary basis: def2/J
   F. Weigend, Phys. Chem. Chem. Phys. 8, 1057 (2006).

================================================================================
                                        WARNINGS
                       Please study these warnings very carefully!
================================================================================


INFO   : the flag for use of the SHARK integral package has been found!

================================================================================
                                       INPUT FILE
================================================================================
NAME = pbeh-3c.inp
|  1> ! PBEh-3c def2/J TightSCF DefGrid3
|  2> 
|  3> %maxcore 60000
|  4> 
|  5> %pal
|  6> nprocs 4
|  7> end
|  8> 
|  9> *xyzfile 0 1 h11.xyz
| 10> 
| 11>                          ****END OF INPUT****
================================================================================

                       ****************************
                       * Single Point Calculation *
                       ****************************

---------------------------------
CARTESIAN COORDINATES (ANGSTROEM)
---------------------------------
  C     -1.224760   -1.165232    0.000000
  C     -0.598621    0.229015    0.000000
  C      0.949146    0.177004    0.000000
  C      1.538150   -0.491789    1.241162
  C      1.538150   -0.491789   -1.241162
  C     -1.088313    0.987726    1.235100
  C     -1.088313    0.987726   -1.235100
  H     -0.940162   -1.735569    0.883791
  H     -2.312513   -1.079567    0.000000
  H     -0.940162   -1.735569   -0.883791
  H      1.278634    1.222625    0.000000
  H      1.263852   -1.546314    1.284591
  H      1.215797   -0.017424    2.165380
  H      2.626325   -0.441333    1.207369
  H      1.263852   -1.546314   -1.284591
  H      2.626325   -0.441333   -1.207369
  H      1.215797   -0.017424   -2.165380
  H     -0.883723    0.443127    2.155362
  H     -2.166437    1.142418    1.176845
  H     -0.611432    1.967236    1.304569
  H     -0.883723    0.443127   -2.155362
  H     -0.611432    1.967236   -1.304569
  H     -2.166437    1.142418   -1.176845

----------------------------
CARTESIAN COORDINATES (A.U.)
----------------------------
  NO LB      ZA    FRAG     MASS         X           Y           Z
   0 C     6.0000    0    12.011   -2.314460   -2.201969    0.000000
   1 C     6.0000    0    12.011   -1.131229    0.432775    0.000000
   2 C     6.0000    0    12.011    1.793626    0.334489    0.000000
   3 C     6.0000    0    12.011    2.906683   -0.929346    2.345456
   4 C     6.0000    0    12.011    2.906683   -0.929346   -2.345456
   5 C     6.0000    0    12.011   -2.056613    1.866532    2.334000
   6 C     6.0000    0    12.011   -2.056613    1.866532   -2.334000
   7 H     1.0000    0     1.008   -1.776648   -3.279751    1.670123
   8 H     1.0000    0     1.008   -4.370017   -2.040086    0.000000
   9 H     1.0000    0     1.008   -1.776648   -3.279751   -1.670123
  10 H     1.0000    0     1.008    2.416268    2.310426    0.000000
  11 H     1.0000    0     1.008    2.388335   -2.922109    2.427526
  12 H     1.0000    0     1.008    2.297523   -0.032927    4.091976
  13 H     1.0000    0     1.008    4.963036   -0.833999    2.281597
  14 H     1.0000    0     1.008    2.388335   -2.922109   -2.427526
  15 H     1.0000    0     1.008    4.963036   -0.833999   -2.281597
  16 H     1.0000    0     1.008    2.297523   -0.032927   -4.091976
  17 H     1.0000    0     1.008   -1.669995    0.837389    4.073043
  18 H     1.0000    0     1.008   -4.093973    2.158857    2.223915
  19 H     1.0000    0     1.008   -1.155440    3.717537    2.465278
  20 H     1.0000    0     1.008   -1.669995    0.837389   -4.073043
  21 H     1.0000    0     1.008   -1.155440    3.717537   -2.465278
  22 H     1.0000    0     1.008   -4.093973    2.158857   -2.223915

--------------------------------
INTERNAL COORDINATES (ANGSTROEM)
--------------------------------
 C      0   0   0     0.000000000000     0.00000000     0.00000000
 C      1   0   0     1.528388912272     0.00000000     0.00000000
 C      2   1   0     1.548640629457   112.25963711     0.00000000
 C      3   2   1     1.527970101668   113.57592505   297.59166644
 C      3   2   1     1.527970101668   113.57592505    62.40833356
 C      2   1   3     1.530004138568   108.73830886   238.47753761
 C      2   1   3     1.530004138568   108.73830886   121.52246239
 H      1   2   3     1.089664139151   111.74465886    60.83275487
 H      1   2   3     1.091121710423   109.68128830   180.00000085
 H      1   2   3     1.089664139151   111.74465886   299.16724513
 H      3   2   1     1.096305129034   105.56563589   180.00000085
 H      4   3   2     1.090480533361   111.01762386    64.94119995
 H      4   3   2     1.087709976625   112.64821340   303.33738987
 H      4   3   2     1.089868250231   109.84230996   183.43535695
 H      5   3   2     1.090480533361   111.01762386   295.05880005
 H      5   3   2     1.089868250231   109.84230996   176.56464305
 H      5   3   2     1.087709976625   112.64821340    56.66261013
 H      6   2   1     1.088727129679   111.97152398    55.33394439
 H      6   2   1     1.090722583569   110.09496091   295.71880193
 H      6   2   1     1.091640946483   110.88578896   176.34102151
 H      7   2   1     1.088727129679   111.97152398   304.66605561
 H      7   2   1     1.091640946483   110.88578896   183.65897849
 H      7   2   1     1.090722583569   110.09496091    64.28119807

---------------------------
INTERNAL COORDINATES (A.U.)
---------------------------
 C      0   0   0     0.000000000000     0.00000000     0.00000000
 C      1   0   0     2.888236470316     0.00000000     0.00000000
 C      2   1   0     2.926506669536   112.25963711     0.00000000
 C      3   2   1     2.887445032973   113.57592505   297.59166644
 C      3   2   1     2.887445032973   113.57592505    62.40833356
 C      2   1   3     2.891288805660   108.73830886   238.47753761
 C      2   1   3     2.891288805660   108.73830886   121.52246239
 H      1   2   3     2.059166800951   111.74465886    60.83275487
 H      1   2   3     2.061921211475   109.68128830   180.00000085
 H      1   2   3     2.059166800951   111.74465886   299.16724513
 H      3   2   1     2.071716453088   105.56563589   180.00000085
 H      4   3   2     2.060709562424   111.01762386    64.94119995
 H      4   3   2     2.055473968956   112.64821340   303.33738987
 H      4   3   2     2.059552514993   109.84230996   183.43535695
 H      5   3   2     2.060709562424   111.01762386   295.05880005
 H      5   3   2     2.059552514993   109.84230996   176.56464305
 H      5   3   2     2.055473968956   112.64821340    56.66261013
 H      6   2   1     2.057396109664   111.97152398    55.33394439
 H      6   2   1     2.061166971029   110.09496091   295.71880193
 H      6   2   1     2.062902425428   110.88578896   176.34102151
 H      7   2   1     2.057396109664   111.97152398   304.66605561
 H      7   2   1     2.062902425428   110.88578896   183.65897849
 H      7   2   1     2.061166971029   110.09496091    64.28119807

---------------------
BASIS SET INFORMATION
---------------------
There are 2 groups of distinct atoms

 Group   1 Type C   : 8s4p1d contracted to 4s2p1d pattern {5111/31/1}
 Group   2 Type H   : 4s contracted to 2s pattern {31}

Atom   0C    basis set group =>   1
Atom   1C    basis set group =>   1
Atom   2C    basis set group =>   1
Atom   3C    basis set group =>   1
Atom   4C    basis set group =>   1
Atom   5C    basis set group =>   1
Atom   6C    basis set group =>   1
Atom   7H    basis set group =>   2
Atom   8H    basis set group =>   2
Atom   9H    basis set group =>   2
Atom  10H    basis set group =>   2
Atom  11H    basis set group =>   2
Atom  12H    basis set group =>   2
Atom  13H    basis set group =>   2
Atom  14H    basis set group =>   2
Atom  15H    basis set group =>   2
Atom  16H    basis set group =>   2
Atom  17H    basis set group =>   2
Atom  18H    basis set group =>   2
Atom  19H    basis set group =>   2
Atom  20H    basis set group =>   2
Atom  21H    basis set group =>   2
Atom  22H    basis set group =>   2
---------------------------------
AUXILIARY/J BASIS SET INFORMATION
---------------------------------
There are 2 groups of distinct atoms

 Group   1 Type C   : 12s5p4d2f1g contracted to 6s4p3d1f1g pattern {711111/2111/211/2/1}
 Group   2 Type H   : 5s2p1d contracted to 3s1p1d pattern {311/2/1}

Atom   0C    basis set group =>   1
Atom   1C    basis set group =>   1
Atom   2C    basis set group =>   1
Atom   3C    basis set group =>   1
Atom   4C    basis set group =>   1
Atom   5C    basis set group =>   1
Atom   6C    basis set group =>   1
Atom   7H    basis set group =>   2
Atom   8H    basis set group =>   2
Atom   9H    basis set group =>   2
Atom  10H    basis set group =>   2
Atom  11H    basis set group =>   2
Atom  12H    basis set group =>   2
Atom  13H    basis set group =>   2
Atom  14H    basis set group =>   2
Atom  15H    basis set group =>   2
Atom  16H    basis set group =>   2
Atom  17H    basis set group =>   2
Atom  18H    basis set group =>   2
Atom  19H    basis set group =>   2
Atom  20H    basis set group =>   2
Atom  21H    basis set group =>   2
Atom  22H    basis set group =>   2


           ************************************************************
           *        Program running with 4 parallel MPI-processes     *
           *              working on a common directory               *
           ************************************************************
------------------------------------------------------------------------------
                           ORCA GTO INTEGRAL CALCULATION
                           -- RI-GTO INTEGRALS CHOSEN --
------------------------------------------------------------------------------
------------------------------------------------------------------------------
                   ___                                                        
                  /   \      - P O W E R E D   B Y -                         
                 /     \                                                     
                 |  |  |   _    _      __       _____    __    __             
                 |  |  |  | |  | |    /  \     |  _  \  |  |  /  |          
                  \  \/   | |  | |   /    \    | | | |  |  | /  /          
                 / \  \   | |__| |  /  /\  \   | |_| |  |  |/  /          
                |  |  |   |  __  | /  /__\  \  |    /   |      \           
                |  |  |   | |  | | |   __   |  |    \   |  |\   \          
                \     /   | |  | | |  |  |  |  | |\  \  |  | \   \       
                 \___/    |_|  |_| |__|  |__|  |_| \__\ |__|  \__/        
                                                                              
                      - O R C A' S   B I G   F R I E N D -                    
                                      &                                       
                       - I N T E G R A L  F E E D E R -                       
                                                                              
 v1 FN, 2020, v2 2021                                                         
------------------------------------------------------------------------------


Reading SHARK input file pbeh-3c.SHARKINP.tmp ... ok
----------------------
SHARK INTEGRAL PACKAGE
----------------------

Number of atoms                             ...     23
Number of basis functions                   ...    137
Number of shells                            ...     81
Maximum angular momentum                    ...      2
Integral batch strategy                     ... SHARK/LIBINT Hybrid
RI-J (if used) integral strategy            ... SPLIT-RIJ (Revised 2003 algorithm where possible)
Printlevel                                  ...      1
Contraction scheme used                     ... SEGMENTED contraction
Coulomb Range Separation                    ... NOT USED
Exchange Range Separation                   ... NOT USED
Finite Nucleus Model                        ... NOT USED
Auxiliary Coulomb fitting basis             ... AVAILABLE
   # of basis functions in Aux-J            ...    519
   # of shells in Aux-J                     ...    185
   Maximum angular momentum in Aux-J        ...      4
Auxiliary J/K fitting basis                 ... NOT available
Auxiliary Correlation fitting basis         ... NOT available
Auxiliary 'external' fitting basis          ... NOT available
Integral threshold                          ...     2.500000e-11
Primitive cut-off                           ...     2.500000e-12
Primitive pair pre-selection threshold      ...     2.500000e-12

Calculating pre-screening integrals         ... done (  0.0 sec) Dimension = 81
Organizing shell pair data                  ... done (  0.4 sec)
Shell pair information
Total number of shell pairs                 ...      3321
Shell pairs after pre-screening             ...      3161
Total number of primitive shell pairs       ...     12229
Primitive shell pairs kept                  ...      8319
          la=0 lb=0:   1682 shell pairs
          la=1 lb=0:    836 shell pairs
          la=1 lb=1:    105 shell pairs
          la=2 lb=0:    412 shell pairs
          la=2 lb=1:     98 shell pairs
          la=2 lb=2:     28 shell pairs

Calculating one electron integrals          ... done (  0.0 sec)
Calculating RI/J V-Matrix + Cholesky decomp.... done (  0.8 sec)
Calculating Nuclear repulsion               ... done (  0.1 sec) ENN=    347.553304963947 Eh

SHARK setup successfully completed in   3.2 seconds

Maximum memory used throughout the entire GTOINT-calculation: 11.8 MB


           ************************************************************
           *        Program running with 4 parallel MPI-processes     *
           *              working on a common directory               *
           ************************************************************
-------------------------------------------------------------------------------
                                 ORCA SCF
-------------------------------------------------------------------------------

------------
SCF SETTINGS
------------
Hamiltonian:
 Density Functional     Method          .... DFT(GTOs)
 Exchange Functional    Exchange        .... PBE
   PBE kappa parameter   XKappa         ....  1.024500
   PBE mue parameter    XMuePBE         ....  0.123457
 Correlation Functional Correlation     .... PBE
   PBE beta parameter  CBetaPBE         ....  0.030000
 LDA part of GGA corr.  LDAOpt          .... PW91-LDA
 Gradients option       PostSCFGGA      .... off
 Hybrid DFT is turned on
   Fraction HF Exchange ScalHFX         ....  0.420000
   Scaling of DF-GGA-X  ScalDFX         ....  0.580000
   Scaling of DF-GGA-C  ScalDFC         ....  1.000000
   Scaling of DF-LDA-C  ScalLDAC        ....  1.000000
   Perturbative correction              ....  0.000000
   Density functional embedding theory  .... OFF
 RI-approximation to the Coulomb term is turned on
   Number of AuxJ basis functions       .... 519
   RIJ-ON(X) (HFX calculated with O(N)) .... on
   Number of AuxJ basis functions       .... 519
   RIJ-COSX (HFX calculated with COS-X)).... on


General Settings:
 Integral files         IntName         .... pbeh-3c
 Hartree-Fock type      HFTyp           .... RHF
 Total Charge           Charge          ....    0
 Multiplicity           Mult            ....    1
 Number of Electrons    NEL             ....   58
 Basis Dimension        Dim             ....  137
 Nuclear Repulsion      ENuc            ....    347.5533049639 Eh

Convergence Acceleration:
 DIIS                   CNVDIIS         .... on
   Start iteration      DIISMaxIt       ....    12
   Startup error        DIISStart       ....  0.200000
   # of expansion vecs  DIISMaxEq       ....     5
   Bias factor          DIISBfac        ....   1.050
   Max. coefficient     DIISMaxC        ....  10.000
 Trust-Rad. Augm. Hess. CNVTRAH         .... auto
   Auto Start mean grad. ratio tolernc. ....  1.125000
   Auto Start start iteration           ....    20
   Auto Start num. interpolation iter.  ....    10
   Max. Number of Micro iterations      ....    16
   Max. Number of Macro iterations      .... Maxiter - #DIIS iter
   Number of Davidson start vectors     ....     2
   Converg. threshold I  (grad. norm)   ....   1.000e-05
   Converg. threshold II (energy diff.) ....   1.000e-08
   Grad. Scal. Fac. for Micro threshold ....   0.100
   Minimum threshold for Micro iter.    ....   0.010
   NR start threshold (gradient norm)   ....   0.001
   Initial trust radius                 ....   0.400
   Minimum AH scaling param. (alpha)    ....   1.000
   Maximum AH scaling param. (alpha)    .... 1000.000
   Orbital update algorithm             .... Taylor
   White noise on init. David. guess    .... on
   Maximum white noise                  ....   0.010
   Quad. conv. algorithm                .... NR
   COSX micro iterations for RIJONX calc.... off
 SOSCF                  CNVSOSCF        .... on
   Start iteration      SOSCFMaxIt      ....   150
   Startup grad/error   SOSCFStart      ....  0.003300
 Level Shifting         CNVShift        .... on
   Level shift para.    LevelShift      ....    0.2500
   Turn off err/grad.   ShiftErr        ....    0.0010
 Zerner damping         CNVZerner       .... off
 Static damping         CNVDamp         .... on
   Fraction old density DampFac         ....    0.7000
   Max. Damping (<1)    DampMax         ....    0.9800
   Min. Damping (>=0)   DampMin         ....    0.0000
   Turn off err/grad.   DampErr         ....    0.1000
 Fernandez-Rico         CNVRico         .... off

SCF Procedure:
 Maximum # iterations   MaxIter         ....   125
 SCF integral mode      SCFMode         .... Direct
   Integral package                     .... SHARK and LIBINT hybrid scheme
 Reset frequency        DirectResetFreq ....    20
 Integral Threshold     Thresh          ....  2.500e-11 Eh
 Primitive CutOff       TCut            ....  2.500e-12 Eh

Convergence Tolerance:
 Convergence Check Mode ConvCheckMode   .... Total+1el-Energy
 Convergence forced     ConvForced      .... 0
 Energy Change          TolE            ....  1.000e-08 Eh
 1-El. energy change                    ....  1.000e-05 Eh
 Orbital Gradient       TolG            ....  1.000e-05
 Orbital Rotation angle TolX            ....  1.000e-05
 DIIS Error             TolErr          ....  5.000e-07


Diagonalization of the overlap matrix:
Smallest eigenvalue                        ... 4.740e-03
Time for diagonalization                   ...    0.005 sec
Threshold for overlap eigenvalues          ... 1.000e-08
Number of eigenvalues below threshold      ... 0
Time for construction of square roots      ...    0.330 sec
Total time needed                          ...    0.335 sec

--------------------------------
INITIAL GUESS: MINIMAL BASIS EHT
--------------------------------
The minimal basis has 51 functions
EHT matrix was diagonalized
Basis set overlap was calculated now projecting the orbitals
Using GuessMode=FMatrix for the initial guess
C*T matrix was formed
Effective Fockian was calculated
Effective Fockian was diagonalized
Initial density was built
                      ------------------
                      INITIAL GUESS DONE
                      ------------------
-------------------
DFT GRID GENERATION
-------------------

General Integration Accuracy     IntAcc      ... 4.959
Radial Grid Type                 RadialGrid  ... OptM3 with GC (2021)
Angular Grid (max. ang.)         AngularGrid ... 6 (Lebedev-590)
Angular grid pruning method      GridPruning ... 4 (adaptive)
Weight generation scheme         WeightScheme... Becke
Basis function cutoff            BFCut       ... 1.0000e-11
Integration weight cutoff        WCut        ... 1.0000e-14
Angular grids for H and He will be reduced by one unit
Partially contracted basis set               ... off
Rotationally invariant grid construction     ... off

Total number of grid points                  ...   235887
Total number of batches                      ...     3700
Average number of points per batch           ...       63
Average number of grid points per atom       ...    10256
Time for grid setup =    7.182 sec

--------------------
COSX GRID GENERATION
--------------------

GRIDX 1
-------
General Integration Accuracy     IntAcc      ... 4.020
Radial Grid Type                 RadialGrid  ... OptM3 with GC (2021)
Angular Grid (max. ang.)         AngularGrid ... 2 (Lebedev-110)
Angular grid pruning method      GridPruning ... 4 (adaptive)
Weight generation scheme         WeightScheme... Becke
Basis function cutoff            BFCut       ... 1.0000e-11
Integration weight cutoff        WCut        ... 1.0000e-14
Angular grids for H and He will be reduced by one unit
Partially contracted basis set               ... on
Rotationally invariant grid construction     ... off

Total number of grid points                  ...    24187
Total number of batches                      ...      389
Average number of points per batch           ...       62
Average number of grid points per atom       ...     1052
UseSFitting                                  ... on

GRIDX 2
-------
General Integration Accuracy     IntAcc      ... 4.338
Radial Grid Type                 RadialGrid  ... OptM3 with GC (2021)
Angular Grid (max. ang.)         AngularGrid ... 3 (Lebedev-194)
Angular grid pruning method      GridPruning ... 4 (adaptive)
Weight generation scheme         WeightScheme... Becke
Basis function cutoff            BFCut       ... 1.0000e-11
Integration weight cutoff        WCut        ... 1.0000e-14
Angular grids for H and He will be reduced by one unit
Partially contracted basis set               ... on
Rotationally invariant grid construction     ... off

Total number of grid points                  ...    52519
Total number of batches                      ...      832
Average number of points per batch           ...       63
Average number of grid points per atom       ...     2283
UseSFitting                                  ... on

GRIDX 3
-------
General Integration Accuracy     IntAcc      ... 4.871
Radial Grid Type                 RadialGrid  ... OptM3 with GC (2021)
Angular Grid (max. ang.)         AngularGrid ... 4 (Lebedev-302)
Angular grid pruning method      GridPruning ... 4 (adaptive)
Weight generation scheme         WeightScheme... Becke
Basis function cutoff            BFCut       ... 1.0000e-11
Integration weight cutoff        WCut        ... 1.0000e-14
Angular grids for H and He will be reduced by one unit
Partially contracted basis set               ... on
Rotationally invariant grid construction     ... off

Total number of grid points                  ...   105160
Total number of batches                      ...     1654
Average number of points per batch           ...       63
Average number of grid points per atom       ...     4572
UseSFitting                                  ... on

Time for X-Grid setup             =    6.578 sec

--------------
SCF ITERATIONS
--------------
ITER       Energy         Delta-E        Max-DP      RMS-DP      [F,P]     Damp
               ***  Starting incremental Fock matrix formation  ***
  0   -275.2981764803   0.000000000000 0.06269088  0.00215165  0.4033169 0.7000
  1   -275.4478005613  -0.149624080979 0.04526661  0.00165005  0.2857190 0.7000
                      *** Initiating the SOSCF procedure ***
                      *** Re-Reading the Fockian *** 
                      *** Removing any level shift *** 
ITER      Energy       Delta-E        Grad      Rot      Max-DP    RMS-DP
  2   -275.55473960  -0.1069390350  0.003166  0.003166  0.113538  0.004149
               *** Restarting incremental Fock matrix formation ***
  3   -275.81015998  -0.2554203857  0.007399  0.006030  0.022887  0.000856
  4   -275.81085054  -0.0006905536  0.001935  0.002123  0.003459  0.000220
  5   -275.81103030  -0.0001797638  0.001377  0.000495  0.001322  0.000070
  6   -275.81104466  -0.0000143587  0.000216  0.000151  0.000571  0.000017
  7   -275.81104548  -0.0000008234  0.000141  0.000073  0.000281  0.000010
  8   -275.81104592  -0.0000004432  0.000016  0.000007  0.000029  0.000001
                  ***Gradient check signals convergence***
              ***Rediagonalizing the Fockian in SOSCF/NRSCF***

               *****************************************************
               *                     SUCCESS                       *
               *           SCF CONVERGED AFTER   9 CYCLES          *
               *****************************************************

Old exchange energy                            =    -17.646697620 Eh
New exchange energy                            =    -17.646684448 Eh
Exchange energy change after final integration =      0.000013172 Eh
Total energy after final integration           =   -275.811032760 Eh
Final COS-X integration done in                =     8.797 sec

----------------
TOTAL SCF ENERGY
----------------

Total Energy       :         -275.81103276 Eh           -7505.19976 eV

Components:
Nuclear Repulsion  :          347.55330496 Eh            9457.40623 eV
Electronic Energy  :         -623.36433772 Eh          -16962.60599 eV
One Electron Energy:        -1059.04710873 Eh          -28818.13691 eV
Two Electron Energy:          435.68277100 Eh           11855.53092 eV
Max COSX asymmetry :            0.00000141 Eh               0.00004 eV

Virial components:
Potential Energy   :         -549.27776780 Eh          -14946.60793 eV
Kinetic Energy     :          273.46673504 Eh            7441.40817 eV
Virial Ratio       :            2.00857252


DFT components:
N(Alpha)           :       28.999986070314 electrons
N(Beta)            :       28.999986070314 electrons
N(Total)           :       57.999972140629 electrons
E(X)               :      -23.364249855308 Eh       
E(C)               :       -2.452910891638 Eh       
E(XC)              :      -25.817160746946 Eh       
DFET-embed. en.    :        0.000000000000 Eh       

---------------
SCF CONVERGENCE
---------------

  Last Energy change         ...   -7.0303e-09  Tolerance :   1.0000e-08
  Last MAX-Density change    ...    1.2212e-15  Tolerance :   1.0000e-07
  Last RMS-Density change    ...    3.3984e-17  Tolerance :   5.0000e-09
  Last Orbital Gradient      ...    2.2867e-06  Tolerance :   1.0000e-05
  Last Orbital Rotation      ...    2.0196e-06  Tolerance :   1.0000e-05

             **** THE GBW FILE WAS UPDATED (pbeh-3c.gbw) ****
             **** DENSITY pbeh-3c.scfp WAS UPDATED ****
             **** ENERGY FILE WAS UPDATED (pbeh-3c.en.tmp) ****
             **** THE GBW FILE WAS UPDATED (pbeh-3c.gbw) ****
             **** DENSITY pbeh-3c.scfp WAS UPDATED ****
----------------
ORBITAL ENERGIES
----------------

  NO   OCC          E(Eh)            E(eV) 
   0   2.0000     -10.445127      -284.2264 
   1   2.0000     -10.435797      -283.9725 
   2   2.0000     -10.416866      -283.4573 
   3   2.0000     -10.416807      -283.4557 
   4   2.0000     -10.416561      -283.4490 
   5   2.0000     -10.416524      -283.4480 
   6   2.0000     -10.416415      -283.4451 
   7   2.0000      -0.925223       -25.1766 
   8   2.0000      -0.843086       -22.9415 
   9   2.0000      -0.772960       -21.0333 
  10   2.0000      -0.762348       -20.7445 
  11   2.0000      -0.745074       -20.2745 
  12   2.0000      -0.675014       -18.3681 
  13   2.0000      -0.582822       -15.8594 
  14   2.0000      -0.529658       -14.4127 
  15   2.0000      -0.510479       -13.8908 
  16   2.0000      -0.495885       -13.4937 
  17   2.0000      -0.486571       -13.2403 
  18   2.0000      -0.461008       -12.5447 
  19   2.0000      -0.446071       -12.1382 
  20   2.0000      -0.428579       -11.6622 
  21   2.0000      -0.425463       -11.5774 
  22   2.0000      -0.416042       -11.3211 
  23   2.0000      -0.408326       -11.1111 
  24   2.0000      -0.393877       -10.7179 
  25   2.0000      -0.387293       -10.5388 
  26   2.0000      -0.355854        -9.6833 
  27   2.0000      -0.352161        -9.5828 
  28   2.0000      -0.345953        -9.4139 
  29   0.0000       0.117922         3.2088 
  30   0.0000       0.170369         4.6360 
  31   0.0000       0.174009         4.7350 
  32   0.0000       0.174797         4.7565 
  33   0.0000       0.178175         4.8484 
  34   0.0000       0.192133         5.2282 
  35   0.0000       0.199528         5.4294 
  36   0.0000       0.199669         5.4333 
  37   0.0000       0.219108         5.9622 
  38   0.0000       0.225016         6.1230 
  39   0.0000       0.227833         6.1997 
  40   0.0000       0.240486         6.5440 
  41   0.0000       0.251742         6.8503 
  42   0.0000       0.254997         6.9388 
  43   0.0000       0.263275         7.1641 
  44   0.0000       0.277468         7.5503 
  45   0.0000       0.281460         7.6589 
  46   0.0000       0.287581         7.8255 
  47   0.0000       0.292314         7.9543 
  48   0.0000       0.296901         8.0791 
  49   0.0000       0.313579         8.5329 
  50   0.0000       0.335562         9.1311 
  51   0.0000       0.500228        13.6119 
  52   0.0000       0.501439        13.6448 
  53   0.0000       0.514952        14.0126 
  54   0.0000       0.517918        14.0933 
  55   0.0000       0.539528        14.6813 
  56   0.0000       0.556454        15.1419 
  57   0.0000       0.571172        15.5424 
  58   0.0000       0.616747        16.7825 
  59   0.0000       0.635485        17.2924 
  60   0.0000       0.658514        17.9191 
  61   0.0000       0.676598        18.4112 
  62   0.0000       0.682096        18.5608 
  63   0.0000       0.708429        19.2773 
  64   0.0000       0.715491        19.4695 
  65   0.0000       0.730747        19.8846 
  66   0.0000       0.790964        21.5232 
  67   0.0000       0.813957        22.1489 
  68   0.0000       0.820977        22.3399 
  69   0.0000       0.842146        22.9160 
  70   0.0000       0.927147        25.2289 
  71   0.0000       0.950920        25.8759 
  72   0.0000       0.963750        26.2250 
  73   0.0000       1.010158        27.4878 
  74   0.0000       1.020215        27.7615 
  75   0.0000       1.024068        27.8663 
  76   0.0000       1.033026        28.1101 
  77   0.0000       1.036872        28.2147 
  78   0.0000       1.039929        28.2979 
  79   0.0000       1.049318        28.5534 
  80   0.0000       1.076320        29.2882 
  81   0.0000       1.085658        29.5423 
  82   0.0000       1.089387        29.6437 
  83   0.0000       1.111047        30.2331 
  84   0.0000       1.113189        30.2914 
  85   0.0000       1.120477        30.4897 
  86   0.0000       1.128985        30.7213 
  87   0.0000       1.147925        31.2366 
  88   0.0000       1.166189        31.7336 
  89   0.0000       1.319489        35.9051 
  90   0.0000       1.410243        38.3747 
  91   0.0000       1.439543        39.1720 
  92   0.0000       1.448787        39.4235 
  93   0.0000       1.494321        40.6625 
  94   0.0000       1.541694        41.9516 
  95   0.0000       1.585661        43.1480 
  96   0.0000       1.599013        43.5114 
  97   0.0000       1.648585        44.8603 
  98   0.0000       1.719671        46.7946 
  99   0.0000       1.795432        48.8562 
 100   0.0000       1.844206        50.1834 
 101   0.0000       1.860245        50.6199 
 102   0.0000       1.916144        52.1409 
 103   0.0000       1.940896        52.8145 
 104   0.0000       1.972785        53.6822 
 105   0.0000       2.029460        55.2244 
 106   0.0000       2.035673        55.3935 
 107   0.0000       2.049166        55.7606 
 108   0.0000       2.112398        57.4813 
 109   0.0000       2.157895        58.7193 
 110   0.0000       2.161859        58.8272 
 111   0.0000       2.173721        59.1499 
 112   0.0000       2.194478        59.7148 
 113   0.0000       2.210598        60.1534 
 114   0.0000       2.328981        63.3748 
 115   0.0000       2.345294        63.8187 
 116   0.0000       2.348122        63.8957 
 117   0.0000       2.350147        63.9508 
 118   0.0000       2.364102        64.3305 
 119   0.0000       2.364983        64.3545 
 120   0.0000       2.379789        64.7574 
 121   0.0000       2.479162        67.4614 
 122   0.0000       2.510563        68.3159 
 123   0.0000       2.565171        69.8018 
 124   0.0000       2.599063        70.7241 
 125   0.0000       2.722783        74.0907 
 126   0.0000       2.795667        76.0740 
 127   0.0000       2.796057        76.0846 
 128   0.0000       2.836184        77.1765 
 129   0.0000       2.851529        77.5940 
 130   0.0000      13.513107       367.7103 
 131   0.0000      13.762564       374.4984 
 132   0.0000      13.876193       377.5904 
 133   0.0000      13.906021       378.4021 
 134   0.0000      13.930301       379.0628 
 135   0.0000      14.088726       383.3737 
 136   0.0000      14.173853       385.6901 

                    ********************************
                    * MULLIKEN POPULATION ANALYSIS *
                    ********************************

-----------------------
MULLIKEN ATOMIC CHARGES
-----------------------
   0 C :   -0.629054
   1 C :   -0.077273
   2 C :   -0.193331
   3 C :   -0.643965
   4 C :   -0.643965
   5 C :   -0.621616
   6 C :   -0.621616
   7 H :    0.216052
   8 H :    0.215383
   9 H :    0.216052
  10 H :    0.202327
  11 H :    0.208425
  12 H :    0.221626
  13 H :    0.218579
  14 H :    0.208425
  15 H :    0.218579
  16 H :    0.221626
  17 H :    0.216185
  18 H :    0.213982
  19 H :    0.211708
  20 H :    0.216185
  21 H :    0.211708
  22 H :    0.213982
Sum of atomic charges:    0.0000000

--------------------------------
MULLIKEN REDUCED ORBITAL CHARGES
--------------------------------
  0 C s       :     3.376492  s :     3.376492
      pz      :     1.128126  p :     3.215575
      px      :     1.098784
      py      :     0.988665
      dz2     :     0.007419  d :     0.036987
      dxz     :     0.002203
      dyz     :     0.012284
      dx2y2   :     0.010530
      dxy     :     0.004552
  1 C s       :     3.236873  s :     3.236873
      pz      :     0.921403  p :     2.786268
      px      :     0.937917
      py      :     0.926948
      dz2     :     0.011706  d :     0.054132
      dxz     :     0.008260
      dyz     :     0.011938
      dx2y2   :     0.012474
      dxy     :     0.009754
  2 C s       :     3.271733  s :     3.271733
      pz      :     0.905923  p :     2.872389
      px      :     0.918967
      py      :     1.047499
      dz2     :     0.011975  d :     0.049209
      dxz     :     0.009519
      dyz     :     0.007749
      dx2y2   :     0.012868
      dxy     :     0.007097
  3 C s       :     3.376731  s :     3.376731
      pz      :     1.028093  p :     3.230187
      px      :     1.109628
      py      :     1.092467
      dz2     :     0.010909  d :     0.037047
      dxz     :     0.004345
      dyz     :     0.006671
      dx2y2   :     0.012512
      dxy     :     0.002611
  4 C s       :     3.376731  s :     3.376731
      pz      :     1.028093  p :     3.230187
      px      :     1.109627
      py      :     1.092467
      dz2     :     0.010909  d :     0.037047
      dxz     :     0.004345
      dyz     :     0.006671
      dx2y2   :     0.012512
      dxy     :     0.002611
  5 C s       :     3.374275  s :     3.374275
      pz      :     1.017223  p :     3.210182
      px      :     1.111787
      py      :     1.081172
      dz2     :     0.010769  d :     0.037158
      dxz     :     0.002993
      dyz     :     0.008157
      dx2y2   :     0.009787
      dxy     :     0.005453
  6 C s       :     3.374275  s :     3.374275
      pz      :     1.017223  p :     3.210183
      px      :     1.111788
      py      :     1.081172
      dz2     :     0.010769  d :     0.037158
      dxz     :     0.002993
      dyz     :     0.008157
      dx2y2   :     0.009787
      dxy     :     0.005453
  7 H s       :     0.783948  s :     0.783948
  8 H s       :     0.784617  s :     0.784617
  9 H s       :     0.783948  s :     0.783948
 10 H s       :     0.797673  s :     0.797673
 11 H s       :     0.791575  s :     0.791575
 12 H s       :     0.778374  s :     0.778374
 13 H s       :     0.781421  s :     0.781421
 14 H s       :     0.791575  s :     0.791575
 15 H s       :     0.781421  s :     0.781421
 16 H s       :     0.778374  s :     0.778374
 17 H s       :     0.783815  s :     0.783815
 18 H s       :     0.786018  s :     0.786018
 19 H s       :     0.788292  s :     0.788292
 20 H s       :     0.783815  s :     0.783815
 21 H s       :     0.788292  s :     0.788292
 22 H s       :     0.786018  s :     0.786018


                     *******************************
                     * LOEWDIN POPULATION ANALYSIS *
                     *******************************

----------------------
LOEWDIN ATOMIC CHARGES
----------------------
   0 C :   -0.345140
   1 C :   -0.103993
   2 C :   -0.148519
   3 C :   -0.354355
   4 C :   -0.354355
   5 C :   -0.342549
   6 C :   -0.342549
   7 H :    0.124515
   8 H :    0.126955
   9 H :    0.124515
  10 H :    0.118338
  11 H :    0.123349
  12 H :    0.125231
  13 H :    0.126813
  14 H :    0.123349
  15 H :    0.126813
  16 H :    0.125231
  17 H :    0.124030
  18 H :    0.124710
  19 H :    0.124435
  20 H :    0.124030
  21 H :    0.124435
  22 H :    0.124710

-------------------------------
LOEWDIN REDUCED ORBITAL CHARGES
-------------------------------
  0 C s       :     2.948677  s :     2.948677
      pz      :     1.126881  p :     3.326850
      px      :     1.118028
      py      :     1.081941
      dz2     :     0.013108  d :     0.069613
      dxz     :     0.003495
      dyz     :     0.022376
      dx2y2   :     0.020313
      dxy     :     0.010321
  1 C s       :     2.842383  s :     2.842383
      pz      :     1.044795  p :     3.136491
      px      :     1.044933
      py      :     1.046763
      dz2     :     0.027611  d :     0.125120
      dxz     :     0.018246
      dyz     :     0.027781
      dx2y2   :     0.029554
      dxy     :     0.021928
  2 C s       :     2.874644  s :     2.874644
      pz      :     1.048229  p :     3.166491
      px      :     1.042185
      py      :     1.076076
      dz2     :     0.026016  d :     0.107384
      dxz     :     0.021999
      dyz     :     0.017920
      dx2y2   :     0.027334
      dxy     :     0.014116
  3 C s       :     2.948154  s :     2.948154
      pz      :     1.094552  p :     3.336779
      px      :     1.119543
      py      :     1.122684
      dz2     :     0.020764  d :     0.069422
      dxz     :     0.009165
      dyz     :     0.013204
      dx2y2   :     0.021520
      dxy     :     0.004769
  4 C s       :     2.948154  s :     2.948154
      pz      :     1.094552  p :     3.336779
      px      :     1.119543
      py      :     1.122684
      dz2     :     0.020764  d :     0.069422
      dxz     :     0.009165
      dyz     :     0.013204
      dx2y2   :     0.021520
      dxy     :     0.004769
  5 C s       :     2.951386  s :     2.951386
      pz      :     1.090510  p :     3.321342
      px      :     1.120410
      py      :     1.110422
      dz2     :     0.020534  d :     0.069821
      dxz     :     0.006657
      dyz     :     0.016130
      dx2y2   :     0.016851
      dxy     :     0.009651
  6 C s       :     2.951386  s :     2.951386
      pz      :     1.090510  p :     3.321342
      px      :     1.120410
      py      :     1.110422
      dz2     :     0.020534  d :     0.069821
      dxz     :     0.006657
      dyz     :     0.016130
      dx2y2   :     0.016851
      dxy     :     0.009651
  7 H s       :     0.875485  s :     0.875485
  8 H s       :     0.873045  s :     0.873045
  9 H s       :     0.875485  s :     0.875485
 10 H s       :     0.881662  s :     0.881662
 11 H s       :     0.876651  s :     0.876651
 12 H s       :     0.874769  s :     0.874769
 13 H s       :     0.873187  s :     0.873187
 14 H s       :     0.876651  s :     0.876651
 15 H s       :     0.873187  s :     0.873187
 16 H s       :     0.874769  s :     0.874769
 17 H s       :     0.875970  s :     0.875970
 18 H s       :     0.875290  s :     0.875290
 19 H s       :     0.875565  s :     0.875565
 20 H s       :     0.875970  s :     0.875970
 21 H s       :     0.875565  s :     0.875565
 22 H s       :     0.875290  s :     0.875290


                      *****************************
                      * MAYER POPULATION ANALYSIS *
                      *****************************

  NA   - Mulliken gross atomic population
  ZA   - Total nuclear charge
  QA   - Mulliken gross atomic charge
  VA   - Mayer's total valence
  BVA  - Mayer's bonded valence
  FA   - Mayer's free valence

  ATOM       NA         ZA         QA         VA         BVA        FA
  0 C      6.6291     6.0000    -0.6291     3.6890     3.6890     0.0000
  1 C      6.0773     6.0000    -0.0773     3.7792     3.7792     0.0000
  2 C      6.1933     6.0000    -0.1933     3.7175     3.7175     0.0000
  3 C      6.6440     6.0000    -0.6440     3.7198     3.7198     0.0000
  4 C      6.6440     6.0000    -0.6440     3.7198     3.7198     0.0000
  5 C      6.6216     6.0000    -0.6216     3.6929     3.6929     0.0000
  6 C      6.6216     6.0000    -0.6216     3.6929     3.6929    -0.0000
  7 H      0.7839     1.0000     0.2161     0.9178     0.9178     0.0000
  8 H      0.7846     1.0000     0.2154     0.9168     0.9168    -0.0000
  9 H      0.7839     1.0000     0.2161     0.9178     0.9178     0.0000
 10 H      0.7977     1.0000     0.2023     0.9072     0.9072    -0.0000
 11 H      0.7916     1.0000     0.2084     0.9173     0.9173     0.0000
 12 H      0.7784     1.0000     0.2216     0.9148     0.9148    -0.0000
 13 H      0.7814     1.0000     0.2186     0.9144     0.9144     0.0000
 14 H      0.7916     1.0000     0.2084     0.9173     0.9173     0.0000
 15 H      0.7814     1.0000     0.2186     0.9144     0.9144    -0.0000
 16 H      0.7784     1.0000     0.2216     0.9148     0.9148    -0.0000
 17 H      0.7838     1.0000     0.2162     0.9174     0.9174     0.0000
 18 H      0.7860     1.0000     0.2140     0.9186     0.9186     0.0000
 19 H      0.7883     1.0000     0.2117     0.9190     0.9190     0.0000
 20 H      0.7838     1.0000     0.2162     0.9174     0.9174     0.0000
 21 H      0.7883     1.0000     0.2117     0.9190     0.9190    -0.0000
 22 H      0.7860     1.0000     0.2140     0.9186     0.9186    -0.0000

  Mayer bond orders larger than 0.100000
B(  0-C ,  1-C ) :   0.9767 B(  0-C ,  7-H ) :   0.9267 B(  0-C ,  8-H ) :   0.9274 
B(  0-C ,  9-H ) :   0.9267 B(  1-C ,  2-C ) :   0.9499 B(  1-C ,  5-C ) :   0.9846 
B(  1-C ,  6-C ) :   0.9846 B(  2-C ,  3-C ) :   0.9922 B(  2-C ,  4-C ) :   0.9922 
B(  2-C , 10-H ) :   0.9106 B(  3-C , 11-H ) :   0.9239 B(  3-C , 12-H ) :   0.9261 
B(  3-C , 13-H ) :   0.9280 B(  4-C , 14-H ) :   0.9239 B(  4-C , 15-H ) :   0.9280 
B(  4-C , 16-H ) :   0.9261 B(  5-C , 17-H ) :   0.9263 B(  5-C , 18-H ) :   0.9280 
B(  5-C , 19-H ) :   0.9292 B(  6-C , 20-H ) :   0.9263 B(  6-C , 21-H ) :   0.9292 
B(  6-C , 22-H ) :   0.9280 

-------
TIMINGS
-------

Total SCF time: 0 days 0 hours 1 min 43 sec 

Total time                  ....     103.038 sec
Sum of individual times     ....      96.710 sec  ( 93.9%)

Fock matrix formation       ....      79.641 sec  ( 77.3%)
  Split-RI-J                ....       7.209 sec  (  9.1% of F)
  Chain of spheres X        ....      43.734 sec  ( 54.9% of F)
  XC integration            ....      17.764 sec  ( 22.3% of F)
    Basis function eval.    ....       4.220 sec  ( 23.8% of XC)
    Density eval.           ....       2.562 sec  ( 14.4% of XC)
    XC-Functional eval.     ....       1.841 sec  ( 10.4% of XC)
    XC-Potential eval.      ....       1.686 sec  (  9.5% of XC)
Diagonalization             ....       0.353 sec  (  0.3%)
Density matrix formation    ....       0.209 sec  (  0.2%)
Population analysis         ....       0.938 sec  (  0.9%)
Initial guess               ....       0.192 sec  (  0.2%)
Orbital Transformation      ....       0.000 sec  (  0.0%)
Orbital Orthonormalization  ....       0.000 sec  (  0.0%)
DIIS solution               ....       0.532 sec  (  0.5%)
SOSCF solution              ....       1.083 sec  (  1.1%)
Grid generation             ....      13.760 sec  ( 13.4%)

Maximum memory used throughout the entire SCF-calculation: 58.7 MB


-------------------------------------------------------------------------------
                          DFT DISPERSION CORRECTION                            
                                                                               
                              DFTD3 V3.1  Rev 1                                
                          USING Becke-Johnson damping                          
-------------------------------------------------------------------------------
The PBEh-3c composite method is recognized
Using three-body term ABC
Active option DFTDOPT                   ...         4   

molecular C6(AA) [au] = 3356.140032 


            DFT-D V3
 parameters
 s6 scaling factor         :     1.0000 
 a1 scaling factor         :     0.4860 
 s8 scaling factor         :     0.0000 
 a2 scaling factor         :     4.5000 
 Damping factor alpha9(ATM):    16.0000 
 ad hoc parameters k1-k3   :    16.0000     1.3333    -4.0000 

 Edisp/kcal,au: -7.865985075531  -0.012535243788 
 E6   /kcal   :  -7.965478528 
 E8   /kcal   :  -0.000000000 
 E6(ABC)      :   0.099493453 
 % E8         :   0.000000000 
 % E6(ABC)    :  -1.264856872 

-------------------------   ----------------
Dispersion correction           -0.012535244
-------------------------   ----------------

------------------   -----------------
gCP correction             0.029922324
------------------   -----------------

-------------------------   --------------------
FINAL SINGLE POINT ENERGY      -275.793645679397
-------------------------   --------------------


                            ***************************************
                            *     ORCA property calculations      *
                            ***************************************

                                    ---------------------
                                    Active property flags
                                    ---------------------
   (+) Dipole Moment


------------------------------------------------------------------------------
                       ORCA ELECTRIC PROPERTIES CALCULATION
------------------------------------------------------------------------------

Dipole Moment Calculation                       ... on
Quadrupole Moment Calculation                   ... off
Polarizability Calculation                      ... off
GBWName                                         ... pbeh-3c.gbw
Electron density                                ... pbeh-3c.scfp
The origin for moment calculation is the CENTER OF MASS  = ( 0.005279,  0.048277 -0.000000)

-------------
DIPOLE MOMENT
-------------
                                X             Y             Z
Electronic contribution:      0.07693       0.62230       0.00000
Nuclear contribution   :     -0.06580      -0.60176      -0.00000
                        -----------------------------------------
Total Dipole Moment    :      0.01113       0.02054       0.00000
                        -----------------------------------------
Magnitude (a.u.)       :      0.02336
Magnitude (Debye)      :      0.05938



--------------------
Rotational spectrum 
--------------------
 
Rotational constants in cm-1:     0.101291     0.073156     0.060842 
Rotational constants in MHz :  3036.625679  2193.158165  1824.010251 

 Dipole components along the rotational axes: 
x,y,z [a.u.] :    -0.003952     0.000000    -0.023025 
x,y,z [Debye]:    -0.010044     0.000000    -0.058524 

 

Timings for individual modules:

Sum of individual times         ...      108.292 sec (=   1.805 min)
GTO integral calculation        ...        4.347 sec (=   0.072 min)   4.0 %
SCF iterations                  ...      103.944 sec (=   1.732 min)  96.0 %
                             ****ORCA TERMINATED NORMALLY****
TOTAL RUN TIME: 0 days 0 hours 1 minutes 49 seconds 806 msec
