
                                 *****************
                                 * O   R   C   A *
                                 *****************

                                            #,                                       
                                            ###                                      
                                            ####                                     
                                            #####                                    
                                            ######                                   
                                           ########,                                 
                                     ,,################,,,,,                         
                               ,,#################################,,                 
                          ,,##########################################,,             
                       ,#########################################, ''#####,          
                    ,#############################################,,   '####,        
                  ,##################################################,,,,####,       
                ,###########''''           ''''###############################       
              ,#####''   ,,,,##########,,,,          '''####'''          '####       
            ,##' ,,,,###########################,,,                        '##       
           ' ,,###''''                  '''############,,,                           
         ,,##''                                '''############,,,,        ,,,,,,###''
      ,#''                                            '''#######################'''  
     '                                                          ''''####''''         
             ,#######,   #######,   ,#######,      ##                                
            ,#'     '#,  ##    ##  ,#'     '#,    #''#        ######   ,####,        
            ##       ##  ##   ,#'  ##            #'  '#       #        #'  '#        
            ##       ##  #######   ##           ,######,      #####,   #    #        
            '#,     ,#'  ##    ##  '#,     ,#' ,#      #,         ##   #,  ,#        
             '#######'   ##     ##  '#######'  #'      '#     #####' # '####'        



                  #######################################################
                  #                        -***-                        #
                  #          Department of theory and spectroscopy      #
                  #    Directorship and core code : Frank Neese         #
                  #        Max Planck Institute fuer Kohlenforschung    #
                  #                Kaiser Wilhelm Platz 1               #
                  #                 D-45470 Muelheim/Ruhr               #
                  #                      Germany                        #
                  #                                                     #
                  #                  All rights reserved                #
                  #                        -***-                        #
                  #######################################################


                         Program Version 5.0.3 -  RELEASE  -


 With contributions from (in alphabetic order):
   Daniel Aravena         : Magnetic Suceptibility
   Michael Atanasov       : Ab Initio Ligand Field Theory (pilot matlab implementation)
   Alexander A. Auer      : GIAO ZORA, VPT2 properties, NMR spectrum
   Ute Becker             : Parallelization
   Giovanni Bistoni       : ED, misc. LED, open-shell LED, HFLD
   Martin Brehm           : Molecular dynamics
   Dmytro Bykov           : SCF Hessian
   Vijay G. Chilkuri      : MRCI spin determinant printing, contributions to CSF-ICE
   Dipayan Datta          : RHF DLPNO-CCSD density
   Achintya Kumar Dutta   : EOM-CC, STEOM-CC
   Dmitry Ganyushin       : Spin-Orbit,Spin-Spin,Magnetic field MRCI
   Miquel Garcia          : C-PCM and meta-GGA Hessian, CC/C-PCM, Gaussian charge scheme
   Yang Guo               : DLPNO-NEVPT2, F12-NEVPT2, CIM, IAO-localization
   Andreas Hansen         : Spin unrestricted coupled pair/coupled cluster methods
   Benjamin Helmich-Paris : MC-RPA, TRAH-SCF, COSX integrals
   Lee Huntington         : MR-EOM, pCC
   Robert Izsak           : Overlap fitted RIJCOSX, COSX-SCS-MP3, EOM
   Marcus Kettner         : VPT2
   Christian Kollmar      : KDIIS, OOCD, Brueckner-CCSD(T), CCSD density, CASPT2, CASPT2-K
   Simone Kossmann        : Meta GGA functionals, TD-DFT gradient, OOMP2, MP2 Hessian
   Martin Krupicka        : Initial AUTO-CI
   Lucas Lang             : DCDCAS
   Marvin Lechner         : AUTO-CI (C++ implementation), FIC-MRCC
   Dagmar Lenk            : GEPOL surface, SMD
   Dimitrios Liakos       : Extrapolation schemes; Compound Job, initial MDCI parallelization
   Dimitrios Manganas     : Further ROCIS development; embedding schemes
   Dimitrios Pantazis     : SARC Basis sets
   Anastasios Papadopoulos: AUTO-CI, single reference methods and gradients
   Taras Petrenko         : DFT Hessian,TD-DFT gradient, ASA, ECA, R-Raman, ABS, FL, XAS/XES, NRVS
   Peter Pinski           : DLPNO-MP2, DLPNO-MP2 Gradient
   Christoph Reimann      : Effective Core Potentials
   Marius Retegan         : Local ZFS, SOC
   Christoph Riplinger    : Optimizer, TS searches, QM/MM, DLPNO-CCSD(T), (RO)-DLPNO pert. Triples
   Tobias Risthaus        : Range-separated hybrids, TD-DFT gradient, RPA, STAB
   Michael Roemelt        : Original ROCIS implementation
   Masaaki Saitow         : Open-shell DLPNO-CCSD energy and density
   Barbara Sandhoefer     : DKH picture change effects
   Avijit Sen             : IP-ROCIS
   Kantharuban Sivalingam : CASSCF convergence, NEVPT2, FIC-MRCI
   Bernardo de Souza      : ESD, SOC TD-DFT
   Georgi Stoychev        : AutoAux, RI-MP2 NMR, DLPNO-MP2 response
   Willem Van den Heuvel  : Paramagnetic NMR
   Boris Wezisla          : Elementary symmetry handling
   Frank Wennmohs         : Technical directorship


 We gratefully acknowledge several colleagues who have allowed us to
 interface, adapt or use parts of their codes:
   Stefan Grimme, W. Hujo, H. Kruse, P. Pracht,  : VdW corrections, initial TS optimization,
                  C. Bannwarth, S. Ehlert          DFT functionals, gCP, sTDA/sTD-DF
   Ed Valeev, F. Pavosevic, A. Kumar             : LibInt (2-el integral package), F12 methods
   Garnet Chan, S. Sharma, J. Yang, R. Olivares  : DMRG
   Ulf Ekstrom                                   : XCFun DFT Library
   Mihaly Kallay                                 : mrcc  (arbitrary order and MRCC methods)
   Jiri Pittner, Ondrej Demel                    : Mk-CCSD
   Frank Weinhold                                : gennbo (NPA and NBO analysis)
   Christopher J. Cramer and Donald G. Truhlar   : smd solvation model
   Lars Goerigk                                  : TD-DFT with DH, B97 family of functionals
   V. Asgeirsson, H. Jonsson                     : NEB implementation
   FAccTs GmbH                                   : IRC, NEB, NEB-TS, DLPNO-Multilevel, CI-OPT
                                                   MM, QMMM, 2- and 3-layer-ONIOM, Crystal-QMMM,
                                                   LR-CPCM, SF, NACMEs, symmetry and pop. for TD-DFT,
                                                   nearIR, NL-DFT gradient (VV10), updates on ESD,
                                                   ML-optimized integration grids
   S Lehtola, MJT Oliveira, MAL Marques          : LibXC Library
   Liviu Ungur et al                             : ANISO software


 Your calculation uses the libint2 library for the computation of 2-el integrals
 For citations please refer to: http://libint.valeyev.net

 Your ORCA version has been built with support for libXC version: 5.1.0
 For citations please refer to: https://tddft.org/programs/libxc/

 This ORCA versions uses:
   CBLAS   interface :  Fast vector & matrix operations
   LAPACKE interface :  Fast linear algebra routines
   SCALAPACK package :  Parallel linear algebra routines
   Shared memory     :  Shared parallel matrices
   BLAS/LAPACK       :  OpenBLAS 0.3.15  USE64BITINT DYNAMIC_ARCH NO_AFFINITY Haswell SINGLE_THREADED
        Core in use  :  Haswell
   Copyright (c) 2011-2014, The OpenBLAS Project




***************************************
The coordinates will be read from file: hocn.xyz
***************************************


Your calculation utilizes the geometrical counterpoise correction gCP
Please cite in your paper:
H.Kruse, S. Grimme J.Chem.Phys., 136, (2012), 154101 
   

Your calculation utilizes the atom-pairwise dispersion correction
with the Becke-Johnson damping scheme (D3BJ)
Cite in your paper:
S.Grimme, S.Ehrlich, L.Goerigk, J Comput Chem, (2011), 32, 1456–1465 
S.Grimme, J.Antony, S.Ehrlich and H.Krieg, J.Chem.Phys., 132, (2010), 154104 
   

Your calculation employs the composite approach PBEh-3c.
Please cite in your paper:
S. Grimme, J. G. Brandenburg, C. Bannwarth, A. Hansen J.Chem.Phys., 143, (2015), 054107 
   

================================================================================

----- Orbital basis set information -----
Your calculation utilizes the basis: def2-mSVP

----- AuxJ basis set information -----
Your calculation utilizes the auxiliary basis: def2/J
   F. Weigend, Phys. Chem. Chem. Phys. 8, 1057 (2006).

================================================================================
                                        WARNINGS
                       Please study these warnings very carefully!
================================================================================


INFO   : the flag for use of the SHARK integral package has been found!

================================================================================
                                       INPUT FILE
================================================================================
NAME = pbeh-3c.inp
|  1> ! PBEh-3c def2/J TightSCF DefGrid3
|  2> 
|  3> %maxcore 60000
|  4> 
|  5> %pal
|  6> nprocs 4
|  7> end
|  8> 
|  9> *xyzfile 0 1 hocn.xyz
| 10> 
| 11>                          ****END OF INPUT****
================================================================================

                       ****************************
                       * Single Point Calculation *
                       ****************************

---------------------------------
CARTESIAN COORDINATES (ANGSTROEM)
---------------------------------
  C      0.144988   -0.007702    0.000000
  N      1.306451   -0.005409    0.000000
  O     -1.156553    0.062692    0.000000
  H     -1.524321   -0.828219    0.000000

----------------------------
CARTESIAN COORDINATES (A.U.)
----------------------------
  NO LB      ZA    FRAG     MASS         X           Y           Z
   0 C     6.0000    0    12.011    0.273988   -0.014554    0.000000
   1 N     7.0000    0    14.007    2.468835   -0.010221    0.000000
   2 O     8.0000    0    15.999   -2.185569    0.118470    0.000000
   3 H     1.0000    0     1.008   -2.880550   -1.565107    0.000000

--------------------------------
INTERNAL COORDINATES (ANGSTROEM)
--------------------------------
 C      0   0   0     0.000000000000     0.00000000     0.00000000
 N      1   0   0     1.161465463062     0.00000000     0.00000000
 O      1   2   0     1.303443705308   176.79109389     0.00000000
 H      3   1   2     0.963833360743   109.33503684   180.00000000

---------------------------
INTERNAL COORDINATES (A.U.)
---------------------------
 C      0   0   0     0.000000000000     0.00000000     0.00000000
 N      1   0   0     2.194851639195     0.00000000     0.00000000
 O      1   2   0     2.463151634016   176.79109389     0.00000000
 H      3   1   2     1.821381090541   109.33503684   180.00000000

---------------------
BASIS SET INFORMATION
---------------------
There are 4 groups of distinct atoms

 Group   1 Type C   : 8s4p1d contracted to 4s2p1d pattern {5111/31/1}
 Group   2 Type N   : 8s4p1d contracted to 4s2p1d pattern {5111/31/1}
 Group   3 Type O   : 8s4p1d contracted to 4s2p1d pattern {5111/31/1}
 Group   4 Type H   : 4s contracted to 2s pattern {31}

Atom   0C    basis set group =>   1
Atom   1N    basis set group =>   2
Atom   2O    basis set group =>   3
Atom   3H    basis set group =>   4
---------------------------------
AUXILIARY/J BASIS SET INFORMATION
---------------------------------
There are 4 groups of distinct atoms

 Group   1 Type C   : 12s5p4d2f1g contracted to 6s4p3d1f1g pattern {711111/2111/211/2/1}
 Group   2 Type N   : 12s5p4d2f1g contracted to 6s4p3d1f1g pattern {711111/2111/211/2/1}
 Group   3 Type O   : 12s5p4d2f1g contracted to 6s4p3d1f1g pattern {711111/2111/211/2/1}
 Group   4 Type H   : 5s2p1d contracted to 3s1p1d pattern {311/2/1}

Atom   0C    basis set group =>   1
Atom   1N    basis set group =>   2
Atom   2O    basis set group =>   3
Atom   3H    basis set group =>   4


           ************************************************************
           *        Program running with 4 parallel MPI-processes     *
           *              working on a common directory               *
           ************************************************************
------------------------------------------------------------------------------
                           ORCA GTO INTEGRAL CALCULATION
                           -- RI-GTO INTEGRALS CHOSEN --
------------------------------------------------------------------------------
------------------------------------------------------------------------------
                   ___                                                        
                  /   \      - P O W E R E D   B Y -                         
                 /     \                                                     
                 |  |  |   _    _      __       _____    __    __             
                 |  |  |  | |  | |    /  \     |  _  \  |  |  /  |          
                  \  \/   | |  | |   /    \    | | | |  |  | /  /          
                 / \  \   | |__| |  /  /\  \   | |_| |  |  |/  /          
                |  |  |   |  __  | /  /__\  \  |    /   |      \           
                |  |  |   | |  | | |   __   |  |    \   |  |\   \          
                \     /   | |  | | |  |  |  |  | |\  \  |  | \   \       
                 \___/    |_|  |_| |__|  |__|  |_| \__\ |__|  \__/        
                                                                              
                      - O R C A' S   B I G   F R I E N D -                    
                                      &                                       
                       - I N T E G R A L  F E E D E R -                       
                                                                              
 v1 FN, 2020, v2 2021                                                         
------------------------------------------------------------------------------


Reading SHARK input file pbeh-3c.SHARKINP.tmp ... ok
----------------------
SHARK INTEGRAL PACKAGE
----------------------

Number of atoms                             ...      4
Number of basis functions                   ...     47
Number of shells                            ...     23
Maximum angular momentum                    ...      2
Integral batch strategy                     ... SHARK/LIBINT Hybrid
RI-J (if used) integral strategy            ... SPLIT-RIJ (Revised 2003 algorithm where possible)
Printlevel                                  ...      1
Contraction scheme used                     ... SEGMENTED contraction
Coulomb Range Separation                    ... NOT USED
Exchange Range Separation                   ... NOT USED
Finite Nucleus Model                        ... NOT USED
Auxiliary Coulomb fitting basis             ... AVAILABLE
   # of basis functions in Aux-J            ...    158
   # of shells in Aux-J                     ...     50
   Maximum angular momentum in Aux-J        ...      4
Auxiliary J/K fitting basis                 ... NOT available
Auxiliary Correlation fitting basis         ... NOT available
Auxiliary 'external' fitting basis          ... NOT available
Integral threshold                          ...     2.500000e-11
Primitive cut-off                           ...     2.500000e-12
Primitive pair pre-selection threshold      ...     2.500000e-12

Calculating pre-screening integrals         ... done (  0.0 sec) Dimension = 23
Organizing shell pair data                  ... done (  0.2 sec)
Shell pair information
Total number of shell pairs                 ...       276
Shell pairs after pre-screening             ...       270
Total number of primitive shell pairs       ...       988
Primitive shell pairs kept                  ...       818
          la=0 lb=0:     99 shell pairs
          la=1 lb=0:     84 shell pairs
          la=1 lb=1:     21 shell pairs
          la=2 lb=0:     42 shell pairs
          la=2 lb=1:     18 shell pairs
          la=2 lb=2:      6 shell pairs

Calculating one electron integrals          ... done (  0.0 sec)
Calculating RI/J V-Matrix + Cholesky decomp.... done (  0.2 sec)
Calculating Nuclear repulsion               ... done (  0.1 sec) ENN=     58.005728519328 Eh

SHARK setup successfully completed in   0.9 seconds

Maximum memory used throughout the entire GTOINT-calculation: 9.0 MB


           ************************************************************
           *        Program running with 4 parallel MPI-processes     *
           *              working on a common directory               *
           ************************************************************
-------------------------------------------------------------------------------
                                 ORCA SCF
-------------------------------------------------------------------------------

------------
SCF SETTINGS
------------
Hamiltonian:
 Density Functional     Method          .... DFT(GTOs)
 Exchange Functional    Exchange        .... PBE
   PBE kappa parameter   XKappa         ....  1.024500
   PBE mue parameter    XMuePBE         ....  0.123457
 Correlation Functional Correlation     .... PBE
   PBE beta parameter  CBetaPBE         ....  0.030000
 LDA part of GGA corr.  LDAOpt          .... PW91-LDA
 Gradients option       PostSCFGGA      .... off
 Hybrid DFT is turned on
   Fraction HF Exchange ScalHFX         ....  0.420000
   Scaling of DF-GGA-X  ScalDFX         ....  0.580000
   Scaling of DF-GGA-C  ScalDFC         ....  1.000000
   Scaling of DF-LDA-C  ScalLDAC        ....  1.000000
   Perturbative correction              ....  0.000000
   Density functional embedding theory  .... OFF
 RI-approximation to the Coulomb term is turned on
   Number of AuxJ basis functions       .... 158
   RIJ-ON(X) (HFX calculated with O(N)) .... on
   Number of AuxJ basis functions       .... 158
   RIJ-COSX (HFX calculated with COS-X)).... on


General Settings:
 Integral files         IntName         .... pbeh-3c
 Hartree-Fock type      HFTyp           .... RHF
 Total Charge           Charge          ....    0
 Multiplicity           Mult            ....    1
 Number of Electrons    NEL             ....   22
 Basis Dimension        Dim             ....   47
 Nuclear Repulsion      ENuc            ....     58.0057285193 Eh

Convergence Acceleration:
 DIIS                   CNVDIIS         .... on
   Start iteration      DIISMaxIt       ....    12
   Startup error        DIISStart       ....  0.200000
   # of expansion vecs  DIISMaxEq       ....     5
   Bias factor          DIISBfac        ....   1.050
   Max. coefficient     DIISMaxC        ....  10.000
 Trust-Rad. Augm. Hess. CNVTRAH         .... auto
   Auto Start mean grad. ratio tolernc. ....  1.125000
   Auto Start start iteration           ....    20
   Auto Start num. interpolation iter.  ....    10
   Max. Number of Micro iterations      ....    16
   Max. Number of Macro iterations      .... Maxiter - #DIIS iter
   Number of Davidson start vectors     ....     2
   Converg. threshold I  (grad. norm)   ....   1.000e-05
   Converg. threshold II (energy diff.) ....   1.000e-08
   Grad. Scal. Fac. for Micro threshold ....   0.100
   Minimum threshold for Micro iter.    ....   0.010
   NR start threshold (gradient norm)   ....   0.001
   Initial trust radius                 ....   0.400
   Minimum AH scaling param. (alpha)    ....   1.000
   Maximum AH scaling param. (alpha)    .... 1000.000
   Orbital update algorithm             .... Taylor
   White noise on init. David. guess    .... on
   Maximum white noise                  ....   0.010
   Quad. conv. algorithm                .... NR
   COSX micro iterations for RIJONX calc.... off
 SOSCF                  CNVSOSCF        .... on
   Start iteration      SOSCFMaxIt      ....   150
   Startup grad/error   SOSCFStart      ....  0.003300
 Level Shifting         CNVShift        .... on
   Level shift para.    LevelShift      ....    0.2500
   Turn off err/grad.   ShiftErr        ....    0.0010
 Zerner damping         CNVZerner       .... off
 Static damping         CNVDamp         .... on
   Fraction old density DampFac         ....    0.7000
   Max. Damping (<1)    DampMax         ....    0.9800
   Min. Damping (>=0)   DampMin         ....    0.0000
   Turn off err/grad.   DampErr         ....    0.1000
 Fernandez-Rico         CNVRico         .... off

SCF Procedure:
 Maximum # iterations   MaxIter         ....   125
 SCF integral mode      SCFMode         .... Direct
   Integral package                     .... SHARK and LIBINT hybrid scheme
 Reset frequency        DirectResetFreq ....    20
 Integral Threshold     Thresh          ....  2.500e-11 Eh
 Primitive CutOff       TCut            ....  2.500e-12 Eh

Convergence Tolerance:
 Convergence Check Mode ConvCheckMode   .... Total+1el-Energy
 Convergence forced     ConvForced      .... 0
 Energy Change          TolE            ....  1.000e-08 Eh
 1-El. energy change                    ....  1.000e-05 Eh
 Orbital Gradient       TolG            ....  1.000e-05
 Orbital Rotation angle TolX            ....  1.000e-05
 DIIS Error             TolErr          ....  5.000e-07


Diagonalization of the overlap matrix:
Smallest eigenvalue                        ... 9.395e-03
Time for diagonalization                   ...    0.001 sec
Threshold for overlap eigenvalues          ... 1.000e-08
Number of eigenvalues below threshold      ... 0
Time for construction of square roots      ...    0.150 sec
Total time needed                          ...    0.151 sec

--------------------------------
INITIAL GUESS: MINIMAL BASIS EHT
--------------------------------
The minimal basis has 16 functions
EHT matrix was diagonalized
Basis set overlap was calculated now projecting the orbitals
Using GuessMode=FMatrix for the initial guess
C*T matrix was formed
Effective Fockian was calculated
Effective Fockian was diagonalized
Initial density was built
                      ------------------
                      INITIAL GUESS DONE
                      ------------------
-------------------
DFT GRID GENERATION
-------------------

General Integration Accuracy     IntAcc      ... 4.959
Radial Grid Type                 RadialGrid  ... OptM3 with GC (2021)
Angular Grid (max. ang.)         AngularGrid ... 6 (Lebedev-590)
Angular grid pruning method      GridPruning ... 4 (adaptive)
Weight generation scheme         WeightScheme... Becke
Basis function cutoff            BFCut       ... 1.0000e-11
Integration weight cutoff        WCut        ... 1.0000e-14
Angular grids for H and He will be reduced by one unit
Partially contracted basis set               ... off
Rotationally invariant grid construction     ... off

Total number of grid points                  ...    52600
Total number of batches                      ...      823
Average number of points per batch           ...       63
Average number of grid points per atom       ...    13150
Time for grid setup =    1.027 sec

--------------------
COSX GRID GENERATION
--------------------

GRIDX 1
-------
General Integration Accuracy     IntAcc      ... 4.020
Radial Grid Type                 RadialGrid  ... OptM3 with GC (2021)
Angular Grid (max. ang.)         AngularGrid ... 2 (Lebedev-110)
Angular grid pruning method      GridPruning ... 4 (adaptive)
Weight generation scheme         WeightScheme... Becke
Basis function cutoff            BFCut       ... 1.0000e-11
Integration weight cutoff        WCut        ... 1.0000e-14
Angular grids for H and He will be reduced by one unit
Partially contracted basis set               ... on
Rotationally invariant grid construction     ... off

Total number of grid points                  ...     6432
Total number of batches                      ...      103
Average number of points per batch           ...       62
Average number of grid points per atom       ...     1608
UseSFitting                                  ... on

GRIDX 2
-------
General Integration Accuracy     IntAcc      ... 4.338
Radial Grid Type                 RadialGrid  ... OptM3 with GC (2021)
Angular Grid (max. ang.)         AngularGrid ... 3 (Lebedev-194)
Angular grid pruning method      GridPruning ... 4 (adaptive)
Weight generation scheme         WeightScheme... Becke
Basis function cutoff            BFCut       ... 1.0000e-11
Integration weight cutoff        WCut        ... 1.0000e-14
Angular grids for H and He will be reduced by one unit
Partially contracted basis set               ... on
Rotationally invariant grid construction     ... off

Total number of grid points                  ...    14285
Total number of batches                      ...      225
Average number of points per batch           ...       63
Average number of grid points per atom       ...     3571
UseSFitting                                  ... on

GRIDX 3
-------
General Integration Accuracy     IntAcc      ... 4.871
Radial Grid Type                 RadialGrid  ... OptM3 with GC (2021)
Angular Grid (max. ang.)         AngularGrid ... 4 (Lebedev-302)
Angular grid pruning method      GridPruning ... 4 (adaptive)
Weight generation scheme         WeightScheme... Becke
Basis function cutoff            BFCut       ... 1.0000e-11
Integration weight cutoff        WCut        ... 1.0000e-14
Angular grids for H and He will be reduced by one unit
Partially contracted basis set               ... on
Rotationally invariant grid construction     ... off

Total number of grid points                  ...    26271
Total number of batches                      ...      412
Average number of points per batch           ...       63
Average number of grid points per atom       ...     6568
UseSFitting                                  ... on

Time for X-Grid setup             =    1.576 sec

--------------
SCF ITERATIONS
--------------
ITER       Energy         Delta-E        Max-DP      RMS-DP      [F,P]     Damp
               ***  Starting incremental Fock matrix formation  ***
  0   -167.3566861143   0.000000000000 0.24589212  0.01416333  0.6257779 0.7000
  1   -167.7379076932  -0.381221578927 0.12064081  0.00769742  0.3231066 0.7000
  2   -167.8966466387  -0.158738945501 0.05303464  0.00382187  0.2259518 0.7000
                               ***Turning on DIIS***
  3   -168.0048775743  -0.108230935566 0.02684392  0.00251598  0.1593200 0.7000
  4   -168.0846272620  -0.079749687711 0.02024825  0.00182396  0.1115965 0.7000
  5   -168.1407040167  -0.056076754714 0.04881122  0.00445160  0.0781680 0.0000
  6   -168.2730561453  -0.132352128561 0.00402949  0.00032474  0.0039985 0.0000
  7   -168.2731153409  -0.000059195598 0.00231482  0.00012986  0.0041263 0.0000
                      *** Initiating the SOSCF procedure ***
                           *** Shutting down DIIS ***
                      *** Re-Reading the Fockian *** 
                      *** Removing any level shift *** 
ITER      Energy       Delta-E        Grad      Rot      Max-DP    RMS-DP
  8   -168.27314087  -0.0000255274  0.000510  0.000510  0.000980  0.000096
               *** Restarting incremental Fock matrix formation ***
  9   -168.27314622  -0.0000053476  0.000134  0.000237  0.000369  0.000026
 10   -168.27314621   0.0000000046  0.000172  0.000120  0.000197  0.000012
 11   -168.27314646  -0.0000002535  0.000039  0.000075  0.000084  0.000005
 12   -168.27314646   0.0000000081  0.000056  0.000044  0.000054  0.000003
                  ***Gradient check signals convergence***
              ***Rediagonalizing the Fockian in SOSCF/NRSCF***

               *****************************************************
               *                     SUCCESS                       *
               *           SCF CONVERGED AFTER  13 CYCLES          *
               *****************************************************

Old exchange energy                            =     -8.522704982 Eh
New exchange energy                            =     -8.522702790 Eh
Exchange energy change after final integration =      0.000002192 Eh
Total energy after final integration           =   -168.273144282 Eh
Final COS-X integration done in                =     0.452 sec

----------------
TOTAL SCF ENERGY
----------------

Total Energy       :         -168.27314428 Eh           -4578.94504 eV

Components:
Nuclear Repulsion  :           58.00572852 Eh            1578.41612 eV
Electronic Energy  :         -226.27887280 Eh           -6157.36116 eV
One Electron Energy:         -343.57392966 Eh           -9349.12193 eV
Two Electron Energy:          117.29505686 Eh            3191.76076 eV
Max COSX asymmetry :            0.00000070 Eh               0.00002 eV

Virial components:
Potential Energy   :         -335.38203195 Eh           -9126.20906 eV
Kinetic Energy     :          167.10888766 Eh            4547.26401 eV
Virial Ratio       :            2.00696705


DFT components:
N(Alpha)           :       10.999999941716 electrons
N(Beta)            :       10.999999941716 electrons
N(Total)           :       21.999999883433 electrons
E(X)               :      -11.365117779155 Eh       
E(C)               :       -0.974573612671 Eh       
E(XC)              :      -12.339691391826 Eh       
DFET-embed. en.    :        0.000000000000 Eh       

---------------
SCF CONVERGENCE
---------------

  Last Energy change         ...   -1.7408e-08  Tolerance :   1.0000e-08
  Last MAX-Density change    ...    1.1102e-15  Tolerance :   1.0000e-07
  Last RMS-Density change    ...    5.0318e-17  Tolerance :   5.0000e-09
  Last Orbital Gradient      ...    2.2939e-06  Tolerance :   1.0000e-05
  Last Orbital Rotation      ...    5.4334e-06  Tolerance :   1.0000e-05

             **** THE GBW FILE WAS UPDATED (pbeh-3c.gbw) ****
             **** DENSITY pbeh-3c.scfp WAS UPDATED ****
             **** ENERGY FILE WAS UPDATED (pbeh-3c.en.tmp) ****
             **** THE GBW FILE WAS UPDATED (pbeh-3c.gbw) ****
             **** DENSITY pbeh-3c.scfp WAS UPDATED ****
----------------
ORBITAL ENERGIES
----------------

  NO   OCC          E(Eh)            E(eV) 
   0   2.0000     -19.611199      -533.6479 
   1   2.0000     -14.648935      -398.6178 
   2   2.0000     -10.553441      -287.1737 
   3   2.0000      -1.259537       -34.2737 
   4   2.0000      -1.011021       -27.5113 
   5   2.0000      -0.745156       -20.2767 
   6   2.0000      -0.581559       -15.8250 
   7   2.0000      -0.536000       -14.5853 
   8   2.0000      -0.437454       -11.9037 
   9   2.0000      -0.388157       -10.5623 
  10   2.0000      -0.365394        -9.9429 
  11   0.0000       0.057629         1.5682 
  12   0.0000       0.085553         2.3280 
  13   0.0000       0.107836         2.9344 
  14   0.0000       0.190849         5.1933 
  15   0.0000       0.420906        11.4534 
  16   0.0000       0.507638        13.8135 
  17   0.0000       0.524157        14.2630 
  18   0.0000       0.604575        16.4513 
  19   0.0000       0.722992        19.6736 
  20   0.0000       0.806368        21.9424 
  21   0.0000       0.871079        23.7033 
  22   0.0000       0.886341        24.1186 
  23   0.0000       1.009422        27.4678 
  24   0.0000       1.044120        28.4119 
  25   0.0000       1.103455        30.0265 
  26   0.0000       1.170620        31.8542 
  27   0.0000       1.442475        39.2517 
  28   0.0000       1.460198        39.7340 
  29   0.0000       1.492375        40.6096 
  30   0.0000       1.536341        41.8060 
  31   0.0000       1.605180        43.6792 
  32   0.0000       1.740018        47.3483 
  33   0.0000       1.945619        52.9430 
  34   0.0000       2.040472        55.5241 
  35   0.0000       2.055607        55.9359 
  36   0.0000       2.063935        56.1625 
  37   0.0000       2.108376        57.3718 
  38   0.0000       2.475017        67.3486 
  39   0.0000       2.568840        69.9017 
  40   0.0000       2.849793        77.5468 
  41   0.0000       2.930452        79.7416 
  42   0.0000       2.937992        79.9468 
  43   0.0000       3.207251        87.2737 
  44   0.0000      13.971791       380.1918 
  45   0.0000      19.423151       528.5308 
  46   0.0000      25.496087       693.7838 

                    ********************************
                    * MULLIKEN POPULATION ANALYSIS *
                    ********************************

-----------------------
MULLIKEN ATOMIC CHARGES
-----------------------
   0 C :    0.311656
   1 N :   -0.263396
   2 O :   -0.530658
   3 H :    0.482398
Sum of atomic charges:    0.0000000

--------------------------------
MULLIKEN REDUCED ORBITAL CHARGES
--------------------------------
  0 C s       :     2.885584  s :     2.885584
      pz      :     0.924012  p :     2.717843
      px      :     0.824836
      py      :     0.968996
      dz2     :     0.006504  d :     0.084916
      dxz     :     0.034066
      dyz     :     0.000015
      dx2y2   :     0.018630
      dxy     :     0.025702
  1 N s       :     3.656141  s :     3.656141
      pz      :     1.158961  p :     3.560719
      px      :     1.342780
      py      :     1.058978
      dz2     :     0.003558  d :     0.046536
      dxz     :     0.015924
      dyz     :     0.000001
      dx2y2   :     0.010653
      dxy     :     0.016400
  2 O s       :     3.777600  s :     3.777600
      pz      :     1.859721  p :     4.718440
      px      :     1.318663
      py      :     1.540056
      dz2     :     0.005071  d :     0.034619
      dxz     :     0.005599
      dyz     :     0.001701
      dx2y2   :     0.013074
      dxy     :     0.009174
  3 H s       :     0.517602  s :     0.517602


                     *******************************
                     * LOEWDIN POPULATION ANALYSIS *
                     *******************************

----------------------
LOEWDIN ATOMIC CHARGES
----------------------
   0 C :    0.036000
   1 N :   -0.153277
   2 O :   -0.247346
   3 H :    0.364622

-------------------------------
LOEWDIN REDUCED ORBITAL CHARGES
-------------------------------
  0 C s       :     2.844688  s :     2.844688
      pz      :     0.909833  p :     2.926896
      px      :     1.075504
      py      :     0.941559
      dz2     :     0.015600  d :     0.192415
      dxz     :     0.074893
      dyz     :     0.000043
      dx2y2   :     0.046143
      dxy     :     0.055736
  1 N s       :     3.411393  s :     3.411393
      pz      :     1.153687  p :     3.666358
      px      :     1.447595
      py      :     1.065076
      dz2     :     0.007662  d :     0.075526
      dxz     :     0.021650
      dyz     :     0.000001
      dx2y2   :     0.022956
      dxy     :     0.023258
  2 O s       :     3.469903  s :     3.469903
      pz      :     1.827552  p :     4.716162
      px      :     1.372852
      py      :     1.515758
      dz2     :     0.007280  d :     0.061281
      dxz     :     0.010717
      dyz     :     0.001624
      dx2y2   :     0.023558
      dxy     :     0.018102
  3 H s       :     0.635378  s :     0.635378


                      *****************************
                      * MAYER POPULATION ANALYSIS *
                      *****************************

  NA   - Mulliken gross atomic population
  ZA   - Total nuclear charge
  QA   - Mulliken gross atomic charge
  VA   - Mayer's total valence
  BVA  - Mayer's bonded valence
  FA   - Mayer's free valence

  ATOM       NA         ZA         QA         VA         BVA        FA
  0 C      5.6883     6.0000     0.3117     4.1688     4.1688     0.0000
  1 N      7.2634     7.0000    -0.2634     3.1203     3.1203     0.0000
  2 O      8.5307     8.0000    -0.5307     2.0371     2.0371     0.0000
  3 H      0.5176     1.0000     0.4824     0.7423     0.7423     0.0000

  Mayer bond orders larger than 0.100000
B(  0-C ,  1-N ) :   2.9873 B(  0-C ,  2-O ) :   1.1832 B(  1-N ,  2-O ) :   0.1214 
B(  2-O ,  3-H ) :   0.7325 

-------
TIMINGS
-------

Total SCF time: 0 days 0 hours 0 min 40 sec 

Total time                  ....      40.100 sec
Sum of individual times     ....      34.235 sec  ( 85.4%)

Fock matrix formation       ....      28.713 sec  ( 71.6%)
  Split-RI-J                ....       3.719 sec  ( 13.0% of F)
  Chain of spheres X        ....       4.643 sec  ( 16.2% of F)
  XC integration            ....       9.677 sec  ( 33.7% of F)
    Basis function eval.    ....       0.442 sec  (  4.6% of XC)
    Density eval.           ....       0.409 sec  (  4.2% of XC)
    XC-Functional eval.     ....       0.573 sec  (  5.9% of XC)
    XC-Potential eval.      ....       0.126 sec  (  1.3% of XC)
Diagonalization             ....       0.350 sec  (  0.9%)
Density matrix formation    ....       0.122 sec  (  0.3%)
Population analysis         ....       0.773 sec  (  1.9%)
Initial guess               ....       0.002 sec  (  0.0%)
Orbital Transformation      ....       0.000 sec  (  0.0%)
Orbital Orthonormalization  ....       0.000 sec  (  0.0%)
DIIS solution               ....       1.211 sec  (  3.0%)
SOSCF solution              ....       0.462 sec  (  1.2%)
Grid generation             ....       2.602 sec  (  6.5%)

Maximum memory used throughout the entire SCF-calculation: 44.7 MB


-------------------------------------------------------------------------------
                          DFT DISPERSION CORRECTION                            
                                                                               
                              DFTD3 V3.1  Rev 1                                
                          USING Becke-Johnson damping                          
-------------------------------------------------------------------------------
The PBEh-3c composite method is recognized
Using three-body term ABC
Active option DFTDOPT                   ...         4   

molecular C6(AA) [au] = 225.700210 


            DFT-D V3
 parameters
 s6 scaling factor         :     1.0000 
 a1 scaling factor         :     0.4860 
 s8 scaling factor         :     0.0000 
 a2 scaling factor         :     4.5000 
 Damping factor alpha9(ATM):    16.0000 
 ad hoc parameters k1-k3   :    16.0000     1.3333    -4.0000 

 Edisp/kcal,au: -0.500755068475  -0.000798003912 
 E6   /kcal   :  -0.500748638 
 E8   /kcal   :  -0.000000000 
 E6(ABC)      :  -0.000006430 
 % E8         :   0.000000000 
 % E6(ABC)    :   0.001284141 

-------------------------   ----------------
Dispersion correction           -0.000798004
-------------------------   ----------------

------------------   -----------------
gCP correction             0.003879920
------------------   -----------------

-------------------------   --------------------
FINAL SINGLE POINT ENERGY      -168.270062366171
-------------------------   --------------------


                            ***************************************
                            *     ORCA property calculations      *
                            ***************************************

                                    ---------------------
                                    Active property flags
                                    ---------------------
   (+) Dipole Moment


------------------------------------------------------------------------------
                       ORCA ELECTRIC PROPERTIES CALCULATION
------------------------------------------------------------------------------

Dipole Moment Calculation                       ... on
Quadrupole Moment Calculation                   ... off
Polarizability Calculation                      ... off
GBWName                                         ... pbeh-3c.gbw
Electron density                                ... pbeh-3c.scfp
The origin for moment calculation is the CENTER OF MASS  = ( 0.000031, -0.000005  0.000000)

-------------
DIPOLE MOMENT
-------------
                                X             Y             Z
Electronic contribution:      0.05291       0.07575       0.00000
Nuclear contribution   :     -1.44001      -0.77612       0.00000
                        -----------------------------------------
Total Dipole Moment    :     -1.38710      -0.70036       0.00000
                        -----------------------------------------
Magnitude (a.u.)       :      1.55388
Magnitude (Debye)      :      3.94965



--------------------
Rotational spectrum 
--------------------
 
Rotational constants in cm-1:    22.315114     0.351916     0.346452 
Rotational constants in MHz : 668990.274480 10550.167862 10386.371809 

 Dipole components along the rotational axes: 
x,y,z [a.u.] :     1.387101    -0.700357     0.000000 
x,y,z [Debye]:     3.525731    -1.780165     0.000000 

 

Timings for individual modules:

Sum of individual times         ...       42.648 sec (=   0.711 min)
GTO integral calculation        ...        1.672 sec (=   0.028 min)   3.9 %
SCF iterations                  ...       40.976 sec (=   0.683 min)  96.1 %
                             ****ORCA TERMINATED NORMALLY****
TOTAL RUN TIME: 0 days 0 hours 0 minutes 54 seconds 591 msec
