
                                 *****************
                                 * O   R   C   A *
                                 *****************

                                            #,                                       
                                            ###                                      
                                            ####                                     
                                            #####                                    
                                            ######                                   
                                           ########,                                 
                                     ,,################,,,,,                         
                               ,,#################################,,                 
                          ,,##########################################,,             
                       ,#########################################, ''#####,          
                    ,#############################################,,   '####,        
                  ,##################################################,,,,####,       
                ,###########''''           ''''###############################       
              ,#####''   ,,,,##########,,,,          '''####'''          '####       
            ,##' ,,,,###########################,,,                        '##       
           ' ,,###''''                  '''############,,,                           
         ,,##''                                '''############,,,,        ,,,,,,###''
      ,#''                                            '''#######################'''  
     '                                                          ''''####''''         
             ,#######,   #######,   ,#######,      ##                                
            ,#'     '#,  ##    ##  ,#'     '#,    #''#        ######   ,####,        
            ##       ##  ##   ,#'  ##            #'  '#       #        #'  '#        
            ##       ##  #######   ##           ,######,      #####,   #    #        
            '#,     ,#'  ##    ##  '#,     ,#' ,#      #,         ##   #,  ,#        
             '#######'   ##     ##  '#######'  #'      '#     #####' # '####'        



                  #######################################################
                  #                        -***-                        #
                  #          Department of theory and spectroscopy      #
                  #    Directorship and core code : Frank Neese         #
                  #        Max Planck Institute fuer Kohlenforschung    #
                  #                Kaiser Wilhelm Platz 1               #
                  #                 D-45470 Muelheim/Ruhr               #
                  #                      Germany                        #
                  #                                                     #
                  #                  All rights reserved                #
                  #                        -***-                        #
                  #######################################################


                         Program Version 5.0.3 -  RELEASE  -


 With contributions from (in alphabetic order):
   Daniel Aravena         : Magnetic Suceptibility
   Michael Atanasov       : Ab Initio Ligand Field Theory (pilot matlab implementation)
   Alexander A. Auer      : GIAO ZORA, VPT2 properties, NMR spectrum
   Ute Becker             : Parallelization
   Giovanni Bistoni       : ED, misc. LED, open-shell LED, HFLD
   Martin Brehm           : Molecular dynamics
   Dmytro Bykov           : SCF Hessian
   Vijay G. Chilkuri      : MRCI spin determinant printing, contributions to CSF-ICE
   Dipayan Datta          : RHF DLPNO-CCSD density
   Achintya Kumar Dutta   : EOM-CC, STEOM-CC
   Dmitry Ganyushin       : Spin-Orbit,Spin-Spin,Magnetic field MRCI
   Miquel Garcia          : C-PCM and meta-GGA Hessian, CC/C-PCM, Gaussian charge scheme
   Yang Guo               : DLPNO-NEVPT2, F12-NEVPT2, CIM, IAO-localization
   Andreas Hansen         : Spin unrestricted coupled pair/coupled cluster methods
   Benjamin Helmich-Paris : MC-RPA, TRAH-SCF, COSX integrals
   Lee Huntington         : MR-EOM, pCC
   Robert Izsak           : Overlap fitted RIJCOSX, COSX-SCS-MP3, EOM
   Marcus Kettner         : VPT2
   Christian Kollmar      : KDIIS, OOCD, Brueckner-CCSD(T), CCSD density, CASPT2, CASPT2-K
   Simone Kossmann        : Meta GGA functionals, TD-DFT gradient, OOMP2, MP2 Hessian
   Martin Krupicka        : Initial AUTO-CI
   Lucas Lang             : DCDCAS
   Marvin Lechner         : AUTO-CI (C++ implementation), FIC-MRCC
   Dagmar Lenk            : GEPOL surface, SMD
   Dimitrios Liakos       : Extrapolation schemes; Compound Job, initial MDCI parallelization
   Dimitrios Manganas     : Further ROCIS development; embedding schemes
   Dimitrios Pantazis     : SARC Basis sets
   Anastasios Papadopoulos: AUTO-CI, single reference methods and gradients
   Taras Petrenko         : DFT Hessian,TD-DFT gradient, ASA, ECA, R-Raman, ABS, FL, XAS/XES, NRVS
   Peter Pinski           : DLPNO-MP2, DLPNO-MP2 Gradient
   Christoph Reimann      : Effective Core Potentials
   Marius Retegan         : Local ZFS, SOC
   Christoph Riplinger    : Optimizer, TS searches, QM/MM, DLPNO-CCSD(T), (RO)-DLPNO pert. Triples
   Tobias Risthaus        : Range-separated hybrids, TD-DFT gradient, RPA, STAB
   Michael Roemelt        : Original ROCIS implementation
   Masaaki Saitow         : Open-shell DLPNO-CCSD energy and density
   Barbara Sandhoefer     : DKH picture change effects
   Avijit Sen             : IP-ROCIS
   Kantharuban Sivalingam : CASSCF convergence, NEVPT2, FIC-MRCI
   Bernardo de Souza      : ESD, SOC TD-DFT
   Georgi Stoychev        : AutoAux, RI-MP2 NMR, DLPNO-MP2 response
   Willem Van den Heuvel  : Paramagnetic NMR
   Boris Wezisla          : Elementary symmetry handling
   Frank Wennmohs         : Technical directorship


 We gratefully acknowledge several colleagues who have allowed us to
 interface, adapt or use parts of their codes:
   Stefan Grimme, W. Hujo, H. Kruse, P. Pracht,  : VdW corrections, initial TS optimization,
                  C. Bannwarth, S. Ehlert          DFT functionals, gCP, sTDA/sTD-DF
   Ed Valeev, F. Pavosevic, A. Kumar             : LibInt (2-el integral package), F12 methods
   Garnet Chan, S. Sharma, J. Yang, R. Olivares  : DMRG
   Ulf Ekstrom                                   : XCFun DFT Library
   Mihaly Kallay                                 : mrcc  (arbitrary order and MRCC methods)
   Jiri Pittner, Ondrej Demel                    : Mk-CCSD
   Frank Weinhold                                : gennbo (NPA and NBO analysis)
   Christopher J. Cramer and Donald G. Truhlar   : smd solvation model
   Lars Goerigk                                  : TD-DFT with DH, B97 family of functionals
   V. Asgeirsson, H. Jonsson                     : NEB implementation
   FAccTs GmbH                                   : IRC, NEB, NEB-TS, DLPNO-Multilevel, CI-OPT
                                                   MM, QMMM, 2- and 3-layer-ONIOM, Crystal-QMMM,
                                                   LR-CPCM, SF, NACMEs, symmetry and pop. for TD-DFT,
                                                   nearIR, NL-DFT gradient (VV10), updates on ESD,
                                                   ML-optimized integration grids
   S Lehtola, MJT Oliveira, MAL Marques          : LibXC Library
   Liviu Ungur et al                             : ANISO software


 Your calculation uses the libint2 library for the computation of 2-el integrals
 For citations please refer to: http://libint.valeyev.net

 Your ORCA version has been built with support for libXC version: 5.1.0
 For citations please refer to: https://tddft.org/programs/libxc/

 This ORCA versions uses:
   CBLAS   interface :  Fast vector & matrix operations
   LAPACKE interface :  Fast linear algebra routines
   SCALAPACK package :  Parallel linear algebra routines
   Shared memory     :  Shared parallel matrices
   BLAS/LAPACK       :  OpenBLAS 0.3.15  USE64BITINT DYNAMIC_ARCH NO_AFFINITY Haswell SINGLE_THREADED
        Core in use  :  Haswell
   Copyright (c) 2011-2014, The OpenBLAS Project




***************************************
The coordinates will be read from file: 58.xyz
***************************************


Your calculation utilizes the geometrical counterpoise correction gCP
Please cite in your paper:
H.Kruse, S. Grimme J.Chem.Phys., 136, (2012), 154101 
   

Your calculation utilizes the atom-pairwise dispersion correction
with the Becke-Johnson damping scheme (D3BJ)
Cite in your paper:
S.Grimme, S.Ehrlich, L.Goerigk, J Comput Chem, (2011), 32, 1456–1465 
S.Grimme, J.Antony, S.Ehrlich and H.Krieg, J.Chem.Phys., 132, (2010), 154104 
   

Your calculation employs the composite approach PBEh-3c.
Please cite in your paper:
S. Grimme, J. G. Brandenburg, C. Bannwarth, A. Hansen J.Chem.Phys., 143, (2015), 054107 
   

================================================================================

----- Orbital basis set information -----
Your calculation utilizes the basis: def2-mSVP

----- AuxJ basis set information -----
Your calculation utilizes the auxiliary basis: def2/J
   F. Weigend, Phys. Chem. Chem. Phys. 8, 1057 (2006).

================================================================================
                                        WARNINGS
                       Please study these warnings very carefully!
================================================================================


INFO   : the flag for use of the SHARK integral package has been found!

================================================================================
                                       INPUT FILE
================================================================================
NAME = pbeh-3c.inp
|  1> ! PBEh-3c def2/J TightSCF DefGrid3
|  2> 
|  3> %maxcore 60000
|  4> 
|  5> %pal
|  6> nprocs 4
|  7> end
|  8> 
|  9> *xyzfile 0 1 58.xyz
| 10> 
| 11>                          ****END OF INPUT****
================================================================================

                       ****************************
                       * Single Point Calculation *
                       ****************************

---------------------------------
CARTESIAN COORDINATES (ANGSTROEM)
---------------------------------
  N     -1.737298    0.870304    0.000000
  C     -1.718841   -0.472323    0.000000
  H     -0.738847   -0.935752    0.000000
  C     -2.872603   -1.252898    0.000000
  H     -2.792613   -2.330643    0.000000
  C     -4.112395   -0.622922    0.000000
  H     -5.027655   -1.198605    0.000000
  C     -4.144978    0.767655    0.000000
  H     -5.081525    1.306976    0.000000
  C     -2.939188    1.463180    0.000000
  H     -2.934185    2.546362    0.000000
  N      1.737125   -0.870038    0.000000
  C      2.938905   -1.463148    0.000000
  H      2.933681   -2.546330    0.000000
  C      4.144844   -0.767860    0.000000
  H      5.081283   -1.307357    0.000000
  C      4.112526    0.622721    0.000000
  H      5.027903    1.198231    0.000000
  C      2.872844    1.252941    0.000000
  H      2.793072    2.330706    0.000000
  C      1.718929    0.472595    0.000000
  H      0.739017    0.936206    0.000000

----------------------------
CARTESIAN COORDINATES (A.U.)
----------------------------
  NO LB      ZA    FRAG     MASS         X           Y           Z
   0 N     7.0000    0    14.007   -3.283017    1.644636    0.000000
   1 C     6.0000    0    12.011   -3.248140   -0.892561    0.000000
   2 H     1.0000    0     1.008   -1.396219   -1.768315    0.000000
   3 C     6.0000    0    12.011   -5.428433   -2.367633    0.000000
   4 H     1.0000    0     1.008   -5.277273   -4.404277    0.000000
   5 C     6.0000    0    12.011   -7.771300   -1.177151    0.000000
   6 H     1.0000    0     1.008   -9.500891   -2.265036    0.000000
   7 C     6.0000    0    12.011   -7.832872    1.450657    0.000000
   8 H     1.0000    0     1.008   -9.602691    2.469827    0.000000
   9 C     6.0000    0    12.011   -5.554261    2.765009    0.000000
  10 H     1.0000    0     1.008   -5.544806    4.811927    0.000000
  11 N     7.0000    0    14.007    3.282690   -1.644134    0.000000
  12 C     6.0000    0    12.011    5.553726   -2.764948    0.000000
  13 H     1.0000    0     1.008    5.543854   -4.811867    0.000000
  14 C     6.0000    0    12.011    7.832619   -1.451045    0.000000
  15 H     1.0000    0     1.008    9.602233   -2.470547    0.000000
  16 C     6.0000    0    12.011    7.771548    1.176771    0.000000
  17 H     1.0000    0     1.008    9.501359    2.264329    0.000000
  18 C     6.0000    0    12.011    5.428889    2.367715    0.000000
  19 H     1.0000    0     1.008    5.278140    4.404395    0.000000
  20 C     6.0000    0    12.011    3.248304    0.893075    0.000000
  21 H     1.0000    0     1.008    1.396540    1.769173    0.000000

--------------------------------
INTERNAL COORDINATES (ANGSTROEM)
--------------------------------
 N      0   0   0     0.000000000000     0.00000000     0.00000000
 C      1   0   0     1.342753747942     0.00000000     0.00000000
 H      2   1   0     1.084045743217   116.09653154     0.00000000
 C      2   1   3     1.393004858498   123.29265926   180.00000000
 H      4   2   1     1.080709565155   119.83550820   180.00000000
 C      4   2   1     1.390666599112   118.98327305     0.00000000
 H      6   4   2     1.081255162243   120.89428139   180.00000000
 C      6   4   2     1.390958069123   118.27875801     0.00000000
 H      8   6   4     1.080735215002   121.27822685   180.00000000
 C      1   2   3     1.340165098577   117.04403212   180.00000000
 H     10   1   2     1.083194157091   115.99179775   180.00000000
 N      3   2   1     2.476843891213   153.17071996     0.00000000
 C     12   3   2     1.340169946840   152.21216127   180.00000000
 H     13  12   3     1.083195197628   115.99119789     0.00000000
 C     13  12   3     1.392017265356   123.76672511   180.00000000
 H     15  13  12     1.080729646607   120.08734087   180.00000000
 C     15  13  12     1.390955878791   118.63442336     0.00000000
 H     17  15  13     1.081261572176   120.82685307   180.00000085
 C     17  15  13     1.390679452550   118.27886430     0.00000000
 H     19  17  15     1.080712820653   121.18066786   180.00000000
 C     12   3   2     1.342756096129    90.74385372     0.00000000
 H     21  12   3     1.084049065903   116.09600780     0.00000000

---------------------------
INTERNAL COORDINATES (A.U.)
---------------------------
 N      0   0   0     0.000000000000     0.00000000     0.00000000
 C      1   0   0     2.537436848907     0.00000000     0.00000000
 H      2   1   0     2.048549571324   116.09653154     0.00000000
 C      2   1   3     2.632397685783   123.29265926   180.00000000
 H      4   2   1     2.042245108452   119.83550820   180.00000000
 C      4   2   1     2.627979015914   118.98327305     0.00000000
 H      6   4   2     2.043276137527   120.89428139   180.00000000
 C      6   4   2     2.628529814411   118.27875801     0.00000000
 H      8   6   4     2.042293579638   121.27822685   180.00000000
 C      1   2   3     2.532545010550   117.04403212   180.00000000
 H     10   1   2     2.046940306766   115.99179775   180.00000000
 N      3   2   1     4.680556630868   153.17071996     0.00000000
 C     12   3   2     2.532554172440   152.21216127   180.00000000
 H     13  12   3     2.046942273095   115.99119789     0.00000000
 C     13  12   3     2.630531405212   123.76672511   180.00000000
 H     15  13  12     2.042283056896   120.08734087   180.00000000
 C     15  13  12     2.628525675283   118.63442336     0.00000000
 H     17  15  13     2.043288250546   120.82685307   180.00000085
 C     17  15  13     2.628003305391   118.27886430     0.00000000
 H     19  17  15     2.042251260452   121.18066786   180.00000000
 C     12   3   2     2.537441286337    90.74385372     0.00000000
 H     21  12   3     2.048555850289   116.09600780     0.00000000

---------------------
BASIS SET INFORMATION
---------------------
There are 3 groups of distinct atoms

 Group   1 Type N   : 8s4p1d contracted to 4s2p1d pattern {5111/31/1}
 Group   2 Type C   : 8s4p1d contracted to 4s2p1d pattern {5111/31/1}
 Group   3 Type H   : 4s contracted to 2s pattern {31}

Atom   0N    basis set group =>   1
Atom   1C    basis set group =>   2
Atom   2H    basis set group =>   3
Atom   3C    basis set group =>   2
Atom   4H    basis set group =>   3
Atom   5C    basis set group =>   2
Atom   6H    basis set group =>   3
Atom   7C    basis set group =>   2
Atom   8H    basis set group =>   3
Atom   9C    basis set group =>   2
Atom  10H    basis set group =>   3
Atom  11N    basis set group =>   1
Atom  12C    basis set group =>   2
Atom  13H    basis set group =>   3
Atom  14C    basis set group =>   2
Atom  15H    basis set group =>   3
Atom  16C    basis set group =>   2
Atom  17H    basis set group =>   3
Atom  18C    basis set group =>   2
Atom  19H    basis set group =>   3
Atom  20C    basis set group =>   2
Atom  21H    basis set group =>   3
---------------------------------
AUXILIARY/J BASIS SET INFORMATION
---------------------------------
There are 3 groups of distinct atoms

 Group   1 Type N   : 12s5p4d2f1g contracted to 6s4p3d1f1g pattern {711111/2111/211/2/1}
 Group   2 Type C   : 12s5p4d2f1g contracted to 6s4p3d1f1g pattern {711111/2111/211/2/1}
 Group   3 Type H   : 5s2p1d contracted to 3s1p1d pattern {311/2/1}

Atom   0N    basis set group =>   1
Atom   1C    basis set group =>   2
Atom   2H    basis set group =>   3
Atom   3C    basis set group =>   2
Atom   4H    basis set group =>   3
Atom   5C    basis set group =>   2
Atom   6H    basis set group =>   3
Atom   7C    basis set group =>   2
Atom   8H    basis set group =>   3
Atom   9C    basis set group =>   2
Atom  10H    basis set group =>   3
Atom  11N    basis set group =>   1
Atom  12C    basis set group =>   2
Atom  13H    basis set group =>   3
Atom  14C    basis set group =>   2
Atom  15H    basis set group =>   3
Atom  16C    basis set group =>   2
Atom  17H    basis set group =>   3
Atom  18C    basis set group =>   2
Atom  19H    basis set group =>   3
Atom  20C    basis set group =>   2
Atom  21H    basis set group =>   3


           ************************************************************
           *        Program running with 4 parallel MPI-processes     *
           *              working on a common directory               *
           ************************************************************
------------------------------------------------------------------------------
                           ORCA GTO INTEGRAL CALCULATION
                           -- RI-GTO INTEGRALS CHOSEN --
------------------------------------------------------------------------------
------------------------------------------------------------------------------
                   ___                                                        
                  /   \      - P O W E R E D   B Y -                         
                 /     \                                                     
                 |  |  |   _    _      __       _____    __    __             
                 |  |  |  | |  | |    /  \     |  _  \  |  |  /  |          
                  \  \/   | |  | |   /    \    | | | |  |  | /  /          
                 / \  \   | |__| |  /  /\  \   | |_| |  |  |/  /          
                |  |  |   |  __  | /  /__\  \  |    /   |      \           
                |  |  |   | |  | | |   __   |  |    \   |  |\   \          
                \     /   | |  | | |  |  |  |  | |\  \  |  | \   \       
                 \___/    |_|  |_| |__|  |__|  |_| \__\ |__|  \__/        
                                                                              
                      - O R C A' S   B I G   F R I E N D -                    
                                      &                                       
                       - I N T E G R A L  F E E D E R -                       
                                                                              
 v1 FN, 2020, v2 2021                                                         
------------------------------------------------------------------------------


Reading SHARK input file pbeh-3c.SHARKINP.tmp ... ok
----------------------
SHARK INTEGRAL PACKAGE
----------------------

Number of atoms                             ...     22
Number of basis functions                   ...    200
Number of shells                            ...    104
Maximum angular momentum                    ...      2
Integral batch strategy                     ... SHARK/LIBINT Hybrid
RI-J (if used) integral strategy            ... SPLIT-RIJ (Revised 2003 algorithm where possible)
Printlevel                                  ...      1
Contraction scheme used                     ... SEGMENTED contraction
Coulomb Range Separation                    ... NOT USED
Exchange Range Separation                   ... NOT USED
Finite Nucleus Model                        ... NOT USED
Auxiliary Coulomb fitting basis             ... AVAILABLE
   # of basis functions in Aux-J            ...    698
   # of shells in Aux-J                     ...    230
   Maximum angular momentum in Aux-J        ...      4
Auxiliary J/K fitting basis                 ... NOT available
Auxiliary Correlation fitting basis         ... NOT available
Auxiliary 'external' fitting basis          ... NOT available
Integral threshold                          ...     2.500000e-11
Primitive cut-off                           ...     2.500000e-12
Primitive pair pre-selection threshold      ...     2.500000e-12

Calculating pre-screening integrals         ... done (  0.1 sec) Dimension = 104
Organizing shell pair data                  ... done (  0.4 sec)
Shell pair information
Total number of shell pairs                 ...      5460
Shell pairs after pre-screening             ...      3946
Total number of primitive shell pairs       ...     19492
Primitive shell pairs kept                  ...      9526
          la=0 lb=0:   1528 shell pairs
          la=1 lb=0:   1322 shell pairs
          la=1 lb=1:    272 shell pairs
          la=2 lb=0:    546 shell pairs
          la=2 lb=1:    228 shell pairs
          la=2 lb=2:     50 shell pairs

Calculating one electron integrals          ... done (  0.1 sec)
Calculating RI/J V-Matrix + Cholesky decomp.... done (  0.5 sec)
Calculating Nuclear repulsion               ... done (  0.1 sec) ENN=    577.243175365789 Eh

SHARK setup successfully completed in   2.6 seconds

Maximum memory used throughout the entire GTOINT-calculation: 12.5 MB


           ************************************************************
           *        Program running with 4 parallel MPI-processes     *
           *              working on a common directory               *
           ************************************************************
-------------------------------------------------------------------------------
                                 ORCA SCF
-------------------------------------------------------------------------------

------------
SCF SETTINGS
------------
Hamiltonian:
 Density Functional     Method          .... DFT(GTOs)
 Exchange Functional    Exchange        .... PBE
   PBE kappa parameter   XKappa         ....  1.024500
   PBE mue parameter    XMuePBE         ....  0.123457
 Correlation Functional Correlation     .... PBE
   PBE beta parameter  CBetaPBE         ....  0.030000
 LDA part of GGA corr.  LDAOpt          .... PW91-LDA
 Gradients option       PostSCFGGA      .... off
 Hybrid DFT is turned on
   Fraction HF Exchange ScalHFX         ....  0.420000
   Scaling of DF-GGA-X  ScalDFX         ....  0.580000
   Scaling of DF-GGA-C  ScalDFC         ....  1.000000
   Scaling of DF-LDA-C  ScalLDAC        ....  1.000000
   Perturbative correction              ....  0.000000
   Density functional embedding theory  .... OFF
 RI-approximation to the Coulomb term is turned on
   Number of AuxJ basis functions       .... 698
   RIJ-ON(X) (HFX calculated with O(N)) .... on
   Number of AuxJ basis functions       .... 698
   RIJ-COSX (HFX calculated with COS-X)).... on


General Settings:
 Integral files         IntName         .... pbeh-3c
 Hartree-Fock type      HFTyp           .... RHF
 Total Charge           Charge          ....    0
 Multiplicity           Mult            ....    1
 Number of Electrons    NEL             ....   84
 Basis Dimension        Dim             ....  200
 Nuclear Repulsion      ENuc            ....    577.2431753658 Eh

Convergence Acceleration:
 DIIS                   CNVDIIS         .... on
   Start iteration      DIISMaxIt       ....    12
   Startup error        DIISStart       ....  0.200000
   # of expansion vecs  DIISMaxEq       ....     5
   Bias factor          DIISBfac        ....   1.050
   Max. coefficient     DIISMaxC        ....  10.000
 Trust-Rad. Augm. Hess. CNVTRAH         .... auto
   Auto Start mean grad. ratio tolernc. ....  1.125000
   Auto Start start iteration           ....    20
   Auto Start num. interpolation iter.  ....    10
   Max. Number of Micro iterations      ....    16
   Max. Number of Macro iterations      .... Maxiter - #DIIS iter
   Number of Davidson start vectors     ....     2
   Converg. threshold I  (grad. norm)   ....   1.000e-05
   Converg. threshold II (energy diff.) ....   1.000e-08
   Grad. Scal. Fac. for Micro threshold ....   0.100
   Minimum threshold for Micro iter.    ....   0.010
   NR start threshold (gradient norm)   ....   0.001
   Initial trust radius                 ....   0.400
   Minimum AH scaling param. (alpha)    ....   1.000
   Maximum AH scaling param. (alpha)    .... 1000.000
   Orbital update algorithm             .... Taylor
   White noise on init. David. guess    .... on
   Maximum white noise                  ....   0.010
   Quad. conv. algorithm                .... NR
   COSX micro iterations for RIJONX calc.... off
 SOSCF                  CNVSOSCF        .... on
   Start iteration      SOSCFMaxIt      ....   150
   Startup grad/error   SOSCFStart      ....  0.003300
 Level Shifting         CNVShift        .... on
   Level shift para.    LevelShift      ....    0.2500
   Turn off err/grad.   ShiftErr        ....    0.0010
 Zerner damping         CNVZerner       .... off
 Static damping         CNVDamp         .... on
   Fraction old density DampFac         ....    0.7000
   Max. Damping (<1)    DampMax         ....    0.9800
   Min. Damping (>=0)   DampMin         ....    0.0000
   Turn off err/grad.   DampErr         ....    0.1000
 Fernandez-Rico         CNVRico         .... off

SCF Procedure:
 Maximum # iterations   MaxIter         ....   125
 SCF integral mode      SCFMode         .... Direct
   Integral package                     .... SHARK and LIBINT hybrid scheme
 Reset frequency        DirectResetFreq ....    20
 Integral Threshold     Thresh          ....  2.500e-11 Eh
 Primitive CutOff       TCut            ....  2.500e-12 Eh

Convergence Tolerance:
 Convergence Check Mode ConvCheckMode   .... Total+1el-Energy
 Convergence forced     ConvForced      .... 0
 Energy Change          TolE            ....  1.000e-08 Eh
 1-El. energy change                    ....  1.000e-05 Eh
 Orbital Gradient       TolG            ....  1.000e-05
 Orbital Rotation angle TolX            ....  1.000e-05
 DIIS Error             TolErr          ....  5.000e-07


Diagonalization of the overlap matrix:
Smallest eigenvalue                        ... 9.907e-04
Time for diagonalization                   ...    0.021 sec
Threshold for overlap eigenvalues          ... 1.000e-08
Number of eigenvalues below threshold      ... 0
Time for construction of square roots      ...    0.482 sec
Total time needed                          ...    0.750 sec

--------------------------------
INITIAL GUESS: MINIMAL BASIS EHT
--------------------------------
The minimal basis has 70 functions
EHT matrix was diagonalized
Basis set overlap was calculated now projecting the orbitals
Using GuessMode=FMatrix for the initial guess
C*T matrix was formed
Effective Fockian was calculated
Effective Fockian was diagonalized
Initial density was built
                      ------------------
                      INITIAL GUESS DONE
                      ------------------
-------------------
DFT GRID GENERATION
-------------------

General Integration Accuracy     IntAcc      ... 4.959
Radial Grid Type                 RadialGrid  ... OptM3 with GC (2021)
Angular Grid (max. ang.)         AngularGrid ... 6 (Lebedev-590)
Angular grid pruning method      GridPruning ... 4 (adaptive)
Weight generation scheme         WeightScheme... Becke
Basis function cutoff            BFCut       ... 1.0000e-11
Integration weight cutoff        WCut        ... 1.0000e-14
Angular grids for H and He will be reduced by one unit
Partially contracted basis set               ... off
Rotationally invariant grid construction     ... off

Total number of grid points                  ...   258639
Total number of batches                      ...     4052
Average number of points per batch           ...       63
Average number of grid points per atom       ...    11756
Time for grid setup =    6.191 sec

--------------------
COSX GRID GENERATION
--------------------

GRIDX 1
-------
General Integration Accuracy     IntAcc      ... 4.020
Radial Grid Type                 RadialGrid  ... OptM3 with GC (2021)
Angular Grid (max. ang.)         AngularGrid ... 2 (Lebedev-110)
Angular grid pruning method      GridPruning ... 4 (adaptive)
Weight generation scheme         WeightScheme... Becke
Basis function cutoff            BFCut       ... 1.0000e-11
Integration weight cutoff        WCut        ... 1.0000e-14
Angular grids for H and He will be reduced by one unit
Partially contracted basis set               ... on
Rotationally invariant grid construction     ... off

Total number of grid points                  ...    29100
Total number of batches                      ...      464
Average number of points per batch           ...       62
Average number of grid points per atom       ...     1323
UseSFitting                                  ... on

GRIDX 2
-------
General Integration Accuracy     IntAcc      ... 4.338
Radial Grid Type                 RadialGrid  ... OptM3 with GC (2021)
Angular Grid (max. ang.)         AngularGrid ... 3 (Lebedev-194)
Angular grid pruning method      GridPruning ... 4 (adaptive)
Weight generation scheme         WeightScheme... Becke
Basis function cutoff            BFCut       ... 1.0000e-11
Integration weight cutoff        WCut        ... 1.0000e-14
Angular grids for H and He will be reduced by one unit
Partially contracted basis set               ... on
Rotationally invariant grid construction     ... off

Total number of grid points                  ...    63956
Total number of batches                      ...     1010
Average number of points per batch           ...       63
Average number of grid points per atom       ...     2907
UseSFitting                                  ... on

GRIDX 3
-------
General Integration Accuracy     IntAcc      ... 4.871
Radial Grid Type                 RadialGrid  ... OptM3 with GC (2021)
Angular Grid (max. ang.)         AngularGrid ... 4 (Lebedev-302)
Angular grid pruning method      GridPruning ... 4 (adaptive)
Weight generation scheme         WeightScheme... Becke
Basis function cutoff            BFCut       ... 1.0000e-11
Integration weight cutoff        WCut        ... 1.0000e-14
Angular grids for H and He will be reduced by one unit
Partially contracted basis set               ... on
Rotationally invariant grid construction     ... off

Total number of grid points                  ...   121004
Total number of batches                      ...     1902
Average number of points per batch           ...       63
Average number of grid points per atom       ...     5500
UseSFitting                                  ... on

Time for X-Grid setup             =    4.752 sec

--------------
SCF ITERATIONS
--------------
ITER       Energy         Delta-E        Max-DP      RMS-DP      [F,P]     Damp
               ***  Starting incremental Fock matrix formation  ***
  0   -493.9595722824   0.000000000000 0.15845937  0.00469889  0.4127631 0.7000
  1   -494.4705720932  -0.510999810803 0.10539926  0.00307384  0.2916514 0.7000
  2   -494.7723027886  -0.301730695394 0.05558618  0.00198897  0.2046564 0.7000
                               ***Turning on DIIS***
  3   -494.9796885173  -0.207385728641 0.03087798  0.00141752  0.1443276 0.7000
  4   -495.1284661029  -0.148777585612 0.02762656  0.00111618  0.1014190 0.7000
  5   -495.2341882539  -0.105722151084 0.06840593  0.00276843  0.0709470 0.0000
                      *** Initiating the SOSCF procedure ***
                           *** Shutting down DIIS ***
                      *** Re-Reading the Fockian *** 
                      *** Removing any level shift *** 
ITER      Energy       Delta-E        Grad      Rot      Max-DP    RMS-DP
  6   -495.48613096  -0.2519427042  0.001616  0.001616  0.002900  0.000119
               *** Restarting incremental Fock matrix formation ***
  7   -495.48622850  -0.0000975388  0.000654  0.001235  0.002212  0.000071
  8   -495.48624183  -0.0000133284  0.000441  0.000807  0.000837  0.000030
  9   -495.48624711  -0.0000052880  0.000079  0.000124  0.000274  0.000010
 10   -495.48624742  -0.0000003026  0.000045  0.000092  0.000097  0.000003
 11   -495.48624746  -0.0000000459  0.000028  0.000042  0.000061  0.000002
 12   -495.48624748  -0.0000000204  0.000008  0.000013  0.000019  0.000001
 13   -495.48624749  -0.0000000038  0.000006  0.000008  0.000012  0.000000
                  ***Gradient check signals convergence***
              ***Rediagonalizing the Fockian in SOSCF/NRSCF***

               *****************************************************
               *                     SUCCESS                       *
               *           SCF CONVERGED AFTER  14 CYCLES          *
               *****************************************************

Old exchange energy                            =    -28.776636220 Eh
New exchange energy                            =    -28.776614921 Eh
Exchange energy change after final integration =      0.000021299 Eh
Total energy after final integration           =   -495.486226185 Eh
Final COS-X integration done in                =     7.804 sec

----------------
TOTAL SCF ENERGY
----------------

Total Energy       :         -495.48622619 Eh          -13482.86567 eV

Components:
Nuclear Repulsion  :          577.24317537 Eh           15707.58536 eV
Electronic Energy  :        -1072.72940155 Eh          -29190.45103 eV
One Electron Energy:        -1813.48845964 Eh          -49347.52977 eV
Two Electron Energy:          740.75905809 Eh           20157.07874 eV
Max COSX asymmetry :            0.00000128 Eh               0.00003 eV

Virial components:
Potential Energy   :         -986.98752709 Eh          -26857.29601 eV
Kinetic Energy     :          491.50130091 Eh           13374.43034 eV
Virial Ratio       :            2.00810766


DFT components:
N(Alpha)           :       41.999997046539 electrons
N(Beta)            :       41.999997046539 electrons
N(Total)           :       83.999994093078 electrons
E(X)               :      -38.238890289971 Eh       
E(C)               :       -3.639928347772 Eh       
E(XC)              :      -41.878818637743 Eh       
DFET-embed. en.    :        0.000000000000 Eh       

---------------
SCF CONVERGENCE
---------------

  Last Energy change         ...    1.9568e-09  Tolerance :   1.0000e-08
  Last MAX-Density change    ...    2.1094e-15  Tolerance :   1.0000e-07
  Last RMS-Density change    ...    3.8756e-17  Tolerance :   5.0000e-09
  Last Orbital Gradient      ...    1.0224e-06  Tolerance :   1.0000e-05
  Last Orbital Rotation      ...    2.8278e-06  Tolerance :   1.0000e-05

             **** THE GBW FILE WAS UPDATED (pbeh-3c.gbw) ****
             **** DENSITY pbeh-3c.scfp WAS UPDATED ****
             **** ENERGY FILE WAS UPDATED (pbeh-3c.en.tmp) ****
             **** THE GBW FILE WAS UPDATED (pbeh-3c.gbw) ****
             **** DENSITY pbeh-3c.scfp WAS UPDATED ****
----------------
ORBITAL ENERGIES
----------------

  NO   OCC          E(Eh)            E(eV) 
   0   2.0000     -14.638215      -398.3261 
   1   2.0000     -14.638205      -398.3258 
   2   2.0000     -10.479977      -285.1747 
   3   2.0000     -10.479964      -285.1743 
   4   2.0000     -10.473968      -285.0112 
   5   2.0000     -10.473956      -285.0108 
   6   2.0000     -10.466463      -284.8069 
   7   2.0000     -10.466455      -284.8067 
   8   2.0000     -10.454992      -284.4948 
   9   2.0000     -10.454985      -284.4946 
  10   2.0000     -10.452879      -284.4373 
  11   2.0000     -10.452865      -284.4369 
  12   2.0000      -1.042326       -28.3631 
  13   2.0000      -1.041200       -28.3325 
  14   2.0000      -0.897520       -24.4228 
  15   2.0000      -0.897199       -24.4140 
  16   2.0000      -0.850124       -23.1330 
  17   2.0000      -0.848627       -23.0923 
  18   2.0000      -0.706873       -19.2350 
  19   2.0000      -0.705316       -19.1926 
  20   2.0000      -0.703824       -19.1520 
  21   2.0000      -0.702394       -19.1131 
  22   2.0000      -0.600014       -16.3272 
  23   2.0000      -0.592101       -16.1119 
  24   2.0000      -0.542601       -14.7649 
  25   2.0000      -0.542454       -14.7609 
  26   2.0000      -0.531747       -14.4696 
  27   2.0000      -0.530730       -14.4419 
  28   2.0000      -0.488468       -13.2919 
  29   2.0000      -0.485112       -13.2006 
  30   2.0000      -0.467688       -12.7264 
  31   2.0000      -0.458569       -12.4783 
  32   2.0000      -0.452255       -12.3065 
  33   2.0000      -0.450882       -12.2691 
  34   2.0000      -0.416123       -11.3233 
  35   2.0000      -0.415116       -11.2959 
  36   2.0000      -0.330169        -8.9844 
  37   2.0000      -0.329021        -8.9531 
  38   2.0000      -0.320622        -8.7246 
  39   2.0000      -0.303034        -8.2460 
  40   2.0000      -0.301104        -8.1934 
  41   2.0000      -0.300062        -8.1651 
  42   0.0000      -0.001560        -0.0424 
  43   0.0000       0.000276         0.0075 
  44   0.0000       0.012016         0.3270 
  45   0.0000       0.016569         0.4509 
  46   0.0000       0.144434         3.9302 
  47   0.0000       0.154076         4.1926 
  48   0.0000       0.186420         5.0728 
  49   0.0000       0.187195         5.0938 
  50   0.0000       0.201087         5.4719 
  51   0.0000       0.201696         5.4884 
  52   0.0000       0.211786         5.7630 
  53   0.0000       0.212776         5.7899 
  54   0.0000       0.224940         6.1209 
  55   0.0000       0.230546         6.2735 
  56   0.0000       0.234914         6.3923 
  57   0.0000       0.253472         6.8973 
  58   0.0000       0.275425         7.4947 
  59   0.0000       0.315445         8.5837 
  60   0.0000       0.321474         8.7477 
  61   0.0000       0.327536         8.9127 
  62   0.0000       0.336210         9.1487 
  63   0.0000       0.340768         9.2728 
  64   0.0000       0.354334         9.6419 
  65   0.0000       0.354960         9.6590 
  66   0.0000       0.410058        11.1583 
  67   0.0000       0.478792        13.0286 
  68   0.0000       0.494172        13.4471 
  69   0.0000       0.508705        13.8426 
  70   0.0000       0.511654        13.9228 
  71   0.0000       0.514197        13.9920 
  72   0.0000       0.552484        15.0338 
  73   0.0000       0.552951        15.0466 
  74   0.0000       0.568948        15.4819 
  75   0.0000       0.579512        15.7693 
  76   0.0000       0.581558        15.8250 
  77   0.0000       0.595662        16.2088 
  78   0.0000       0.596291        16.2259 
  79   0.0000       0.609999        16.5989 
  80   0.0000       0.616722        16.7819 
  81   0.0000       0.616996        16.7893 
  82   0.0000       0.620270        16.8784 
  83   0.0000       0.631757        17.1910 
  84   0.0000       0.638377        17.3711 
  85   0.0000       0.638720        17.3805 
  86   0.0000       0.663484        18.0543 
  87   0.0000       0.677781        18.4434 
  88   0.0000       0.691443        18.8151 
  89   0.0000       0.694085        18.8870 
  90   0.0000       0.701409        19.0863 
  91   0.0000       0.703334        19.1387 
  92   0.0000       0.739841        20.1321 
  93   0.0000       0.788664        21.4606 
  94   0.0000       0.832431        22.6516 
  95   0.0000       0.849156        23.1067 
  96   0.0000       0.904404        24.6101 
  97   0.0000       0.906390        24.6641 
  98   0.0000       0.931307        25.3421 
  99   0.0000       0.941252        25.6128 
 100   0.0000       0.944249        25.6943 
 101   0.0000       0.946828        25.7645 
 102   0.0000       0.946990        25.7689 
 103   0.0000       0.985569        26.8187 
 104   0.0000       0.997613        27.1464 
 105   0.0000       1.002794        27.2874 
 106   0.0000       1.015617        27.6363 
 107   0.0000       1.015844        27.6425 
 108   0.0000       1.036969        28.2174 
 109   0.0000       1.047282        28.4980 
 110   0.0000       1.059056        28.8184 
 111   0.0000       1.062228        28.9047 
 112   0.0000       1.066822        29.0297 
 113   0.0000       1.073976        29.2244 
 114   0.0000       1.091918        29.7126 
 115   0.0000       1.111761        30.2526 
 116   0.0000       1.167239        31.7622 
 117   0.0000       1.172967        31.9181 
 118   0.0000       1.187038        32.3009 
 119   0.0000       1.209945        32.9243 
 120   0.0000       1.293408        35.1954 
 121   0.0000       1.299579        35.3633 
 122   0.0000       1.299876        35.3714 
 123   0.0000       1.302376        35.4394 
 124   0.0000       1.323048        36.0020 
 125   0.0000       1.376466        37.4555 
 126   0.0000       1.422967        38.7209 
 127   0.0000       1.429845        38.9081 
 128   0.0000       1.430404        38.9233 
 129   0.0000       1.502781        40.8928 
 130   0.0000       1.532922        41.7129 
 131   0.0000       1.533728        41.7349 
 132   0.0000       1.534925        41.7674 
 133   0.0000       1.535673        41.7878 
 134   0.0000       1.570381        42.7322 
 135   0.0000       1.572525        42.7906 
 136   0.0000       1.580070        42.9959 
 137   0.0000       1.580164        42.9984 
 138   0.0000       1.740007        47.3480 
 139   0.0000       1.743382        47.4398 
 140   0.0000       1.775175        48.3050 
 141   0.0000       1.817550        49.4580 
 142   0.0000       1.882787        51.2332 
 143   0.0000       1.885466        51.3061 
 144   0.0000       1.899550        51.6894 
 145   0.0000       1.920634        52.2631 
 146   0.0000       1.967270        53.5321 
 147   0.0000       1.968421        53.5634 
 148   0.0000       2.057737        55.9939 
 149   0.0000       2.069829        56.3229 
 150   0.0000       2.121235        57.7217 
 151   0.0000       2.127003        57.8787 
 152   0.0000       2.184376        59.4399 
 153   0.0000       2.186829        59.5067 
 154   0.0000       2.200185        59.8701 
 155   0.0000       2.205946        60.0268 
 156   0.0000       2.238931        60.9244 
 157   0.0000       2.239677        60.9447 
 158   0.0000       2.240684        60.9721 
 159   0.0000       2.244110        61.0653 
 160   0.0000       2.251372        61.2629 
 161   0.0000       2.265308        61.6422 
 162   0.0000       2.356643        64.1275 
 163   0.0000       2.357461        64.1498 
 164   0.0000       2.384871        64.8956 
 165   0.0000       2.385038        64.9002 
 166   0.0000       2.444736        66.5246 
 167   0.0000       2.449400        66.6516 
 168   0.0000       2.566995        69.8515 
 169   0.0000       2.584199        70.3196 
 170   0.0000       2.604370        70.8685 
 171   0.0000       2.643115        71.9228 
 172   0.0000       2.689692        73.1902 
 173   0.0000       2.696073        73.3639 
 174   0.0000       2.726221        74.1842 
 175   0.0000       2.727910        74.2302 
 176   0.0000       2.766773        75.2877 
 177   0.0000       2.766803        75.2885 
 178   0.0000       2.801897        76.2435 
 179   0.0000       2.811113        76.4943 
 180   0.0000       2.828265        76.9610 
 181   0.0000       2.848739        77.5181 
 182   0.0000       2.855221        77.6945 
 183   0.0000       2.857473        77.7558 
 184   0.0000       3.091864        84.1339 
 185   0.0000       3.102890        84.4339 
 186   0.0000       3.463336        94.2422 
 187   0.0000       3.472428        94.4896 
 188   0.0000      13.322856       362.5333 
 189   0.0000      13.353554       363.3687 
 190   0.0000      13.621492       370.6596 
 191   0.0000      13.634424       371.0115 
 192   0.0000      13.869632       377.4119 
 193   0.0000      13.902288       378.3005 
 194   0.0000      14.131160       384.5284 
 195   0.0000      14.133435       384.5903 
 196   0.0000      14.321246       389.7009 
 197   0.0000      14.333404       390.0317 
 198   0.0000      19.452436       529.3277 
 199   0.0000      19.454853       529.3935 

                    ********************************
                    * MULLIKEN POPULATION ANALYSIS *
                    ********************************

-----------------------
MULLIKEN ATOMIC CHARGES
-----------------------
   0 N :   -0.398319
   1 C :   -0.062732
   2 H :    0.292305
   3 C :   -0.293177
   4 H :    0.232302
   5 C :   -0.130800
   6 H :    0.233092
   7 C :   -0.308432
   8 H :    0.230049
   9 C :   -0.024276
  10 H :    0.229977
  11 N :   -0.398327
  12 C :   -0.024262
  13 H :    0.229980
  14 C :   -0.308436
  15 H :    0.230053
  16 C :   -0.130800
  17 H :    0.233097
  18 C :   -0.293176
  19 H :    0.232306
  20 C :   -0.062708
  21 H :    0.292285
Sum of atomic charges:   -0.0000000

--------------------------------
MULLIKEN REDUCED ORBITAL CHARGES
--------------------------------
  0 N s       :     3.631492  s :     3.631492
      pz      :     1.125822  p :     3.725074
      px      :     1.417977
      py      :     1.181276
      dz2     :     0.004614  d :     0.041752
      dxz     :     0.006816
      dyz     :     0.006805
      dx2y2   :     0.014907
      dxy     :     0.008610
  1 C s       :     3.188810  s :     3.188810
      pz      :     0.912113  p :     2.815130
      px      :     1.041365
      py      :     0.861653
      dz2     :     0.004470  d :     0.058791
      dxz     :     0.003400
      dyz     :     0.008886
      dx2y2   :     0.018970
      dxy     :     0.023066
  2 H s       :     0.707695  s :     0.707695
  3 C s       :     3.269925  s :     3.269925
      pz      :     1.008525  p :     2.985146
      px      :     0.867790
      py      :     1.108831
      dz2     :     0.003908  d :     0.038106
      dxz     :     0.005639
      dyz     :     0.002459
      dx2y2   :     0.014739
      dxy     :     0.011360
  4 H s       :     0.767698  s :     0.767698
  5 C s       :     3.227093  s :     3.227093
      pz      :     0.939902  p :     2.863167
      px      :     0.986629
      py      :     0.936637
      dz2     :     0.003783  d :     0.040539
      dxz     :     0.003842
      dyz     :     0.005841
      dx2y2   :     0.012175
      dxy     :     0.014899
  6 H s       :     0.766908  s :     0.766908
  7 C s       :     3.268172  s :     3.268172
      pz      :     1.014374  p :     3.002005
      px      :     1.062748
      py      :     0.924883
      dz2     :     0.003919  d :     0.038256
      dxz     :     0.003122
      dyz     :     0.005120
      dx2y2   :     0.011680
      dxy     :     0.014415
  8 H s       :     0.769951  s :     0.769951
  9 C s       :     3.152091  s :     3.152091
      pz      :     0.934851  p :     2.813191
      px      :     0.876076
      py      :     1.002265
      dz2     :     0.004447  d :     0.058994
      dxz     :     0.009770
      dyz     :     0.002715
      dx2y2   :     0.025073
      dxy     :     0.016990
 10 H s       :     0.770023  s :     0.770023
 11 N s       :     3.631503  s :     3.631503
      pz      :     1.125826  p :     3.725072
      px      :     1.418065
      py      :     1.181181
      dz2     :     0.004614  d :     0.041752
      dxz     :     0.006816
      dyz     :     0.006805
      dx2y2   :     0.014904
      dxy     :     0.008612
 12 C s       :     3.152088  s :     3.152088
      pz      :     0.934847  p :     2.813181
      px      :     0.876083
      py      :     1.002251
      dz2     :     0.004447  d :     0.058993
      dxz     :     0.009769
      dyz     :     0.002715
      dx2y2   :     0.025073
      dxy     :     0.016989
 13 H s       :     0.770020  s :     0.770020
 14 C s       :     3.268178  s :     3.268178
      pz      :     1.014371  p :     3.002003
      px      :     1.062713
      py      :     0.924919
      dz2     :     0.003919  d :     0.038255
      dxz     :     0.003123
      dyz     :     0.005119
      dx2y2   :     0.011679
      dxy     :     0.014416
 15 H s       :     0.769947  s :     0.769947
 16 C s       :     3.227094  s :     3.227094
      pz      :     0.939899  p :     2.863167
      px      :     0.986651
      py      :     0.936617
      dz2     :     0.003783  d :     0.040539
      dxz     :     0.003841
      dyz     :     0.005842
      dx2y2   :     0.012176
      dxy     :     0.014897
 17 H s       :     0.766903  s :     0.766903
 18 C s       :     3.269926  s :     3.269926
      pz      :     1.008524  p :     2.985145
      px      :     0.867786
      py      :     1.108835
      dz2     :     0.003908  d :     0.038105
      dxz     :     0.005639
      dyz     :     0.002459
      dx2y2   :     0.014739
      dxy     :     0.011359
 19 H s       :     0.767694  s :     0.767694
 20 C s       :     3.188797  s :     3.188797
      pz      :     0.912119  p :     2.815120
      px      :     1.041330
      py      :     0.861671
      dz2     :     0.004470  d :     0.058791
      dxz     :     0.003400
      dyz     :     0.008885
      dx2y2   :     0.018967
      dxy     :     0.023068
 21 H s       :     0.707715  s :     0.707715


                     *******************************
                     * LOEWDIN POPULATION ANALYSIS *
                     *******************************

----------------------
LOEWDIN ATOMIC CHARGES
----------------------
   0 N :   -0.151273
   1 C :   -0.057313
   2 H :    0.146979
   3 C :   -0.162245
   4 H :    0.142572
   5 C :   -0.103217
   6 H :    0.140090
   7 C :   -0.167716
   8 H :    0.141064
   9 C :   -0.057592
  10 H :    0.128640
  11 N :   -0.151272
  12 C :   -0.057587
  13 H :    0.128641
  14 C :   -0.167715
  15 H :    0.141066
  16 C :   -0.103215
  17 H :    0.140092
  18 C :   -0.162244
  19 H :    0.142574
  20 C :   -0.057308
  21 H :    0.146978

-------------------------------
LOEWDIN REDUCED ORBITAL CHARGES
-------------------------------
  0 N s       :     3.213563  s :     3.213563
      pz      :     1.110329  p :     3.847881
      px      :     1.459414
      py      :     1.278138
      dz2     :     0.008440  d :     0.089829
      dxz     :     0.009838
      dyz     :     0.013192
      dx2y2   :     0.034342
      dxy     :     0.024016
  1 C s       :     2.893880  s :     2.893880
      pz      :     0.911139  p :     3.034057
      px      :     1.099250
      py      :     1.023668
      dz2     :     0.008383  d :     0.129376
      dxz     :     0.005773
      dyz     :     0.017000
      dx2y2   :     0.043213
      dxy     :     0.055005
  2 H s       :     0.853021  s :     0.853021
  3 C s       :     2.901968  s :     2.901968
      pz      :     0.995196  p :     3.172581
      px      :     1.092089
      py      :     1.085296
      dz2     :     0.006514  d :     0.087697
      dxz     :     0.011816
      dyz     :     0.003532
      dx2y2   :     0.035731
      dxy     :     0.030103
  4 H s       :     0.857428  s :     0.857428
  5 C s       :     2.897486  s :     2.897486
      pz      :     0.933231  p :     3.114681
      px      :     1.088535
      py      :     1.092915
      dz2     :     0.006266  d :     0.091050
      dxz     :     0.006828
      dyz     :     0.011693
      dx2y2   :     0.031000
      dxy     :     0.035264
  6 H s       :     0.859910  s :     0.859910
  7 C s       :     2.902435  s :     2.902435
      pz      :     1.001110  p :     3.177542
      px      :     1.087739
      py      :     1.088693
      dz2     :     0.006543  d :     0.087739
      dxz     :     0.005416
      dyz     :     0.010305
      dx2y2   :     0.030502
      dxy     :     0.034973
  8 H s       :     0.858936  s :     0.858936
  9 C s       :     2.887677  s :     2.887677
      pz      :     0.930277  p :     3.038798
      px      :     1.043120
      py      :     1.065401
      dz2     :     0.008433  d :     0.131117
      dxz     :     0.019484
      dyz     :     0.003840
      dx2y2   :     0.058376
      dxy     :     0.040985
 10 H s       :     0.871360  s :     0.871360
 11 N s       :     3.213567  s :     3.213567
      pz      :     1.110333  p :     3.847877
      px      :     1.459480
      py      :     1.278063
      dz2     :     0.008440  d :     0.089828
      dxz     :     0.009837
      dyz     :     0.013193
      dx2y2   :     0.034337
      dxy     :     0.024021
 12 C s       :     2.887680  s :     2.887680
      pz      :     0.930274  p :     3.038792
      px      :     1.043127
      py      :     1.065391
      dz2     :     0.008433  d :     0.131115
      dxz     :     0.019483
      dyz     :     0.003840
      dx2y2   :     0.058379
      dxy     :     0.040980
 13 H s       :     0.871359  s :     0.871359
 14 C s       :     2.902437  s :     2.902437
      pz      :     1.001107  p :     3.177540
      px      :     1.087740
      py      :     1.088692
      dz2     :     0.006543  d :     0.087738
      dxz     :     0.005417
      dyz     :     0.010304
      dx2y2   :     0.030500
      dxy     :     0.034974
 15 H s       :     0.858934  s :     0.858934
 16 C s       :     2.897489  s :     2.897489
      pz      :     0.933228  p :     3.114676
      px      :     1.088530
      py      :     1.092918
      dz2     :     0.006266  d :     0.091049
      dxz     :     0.006826
      dyz     :     0.011695
      dx2y2   :     0.031001
      dxy     :     0.035261
 17 H s       :     0.859908  s :     0.859908
 18 C s       :     2.901971  s :     2.901971
      pz      :     0.995197  p :     3.172578
      px      :     1.092087
      py      :     1.085294
      dz2     :     0.006514  d :     0.087695
      dxz     :     0.011816
      dyz     :     0.003532
      dx2y2   :     0.035732
      dxy     :     0.030101
 19 H s       :     0.857426  s :     0.857426
 20 C s       :     2.893878  s :     2.893878
      pz      :     0.911145  p :     3.034054
      px      :     1.099244
      py      :     1.023666
      dz2     :     0.008383  d :     0.129375
      dxz     :     0.005775
      dyz     :     0.016998
      dx2y2   :     0.043209
      dxy     :     0.055010
 21 H s       :     0.853022  s :     0.853022


                      *****************************
                      * MAYER POPULATION ANALYSIS *
                      *****************************

  NA   - Mulliken gross atomic population
  ZA   - Total nuclear charge
  QA   - Mulliken gross atomic charge
  VA   - Mayer's total valence
  BVA  - Mayer's bonded valence
  FA   - Mayer's free valence

  ATOM       NA         ZA         QA         VA         BVA        FA
  0 N      7.3983     7.0000    -0.3983     3.1118     3.1118     0.0000
  1 C      6.0627     6.0000    -0.0627     3.7500     3.7500    -0.0000
  2 H      0.7077     1.0000     0.2923     0.8911     0.8911    -0.0000
  3 C      6.2932     6.0000    -0.2932     3.8045     3.8045    -0.0000
  4 H      0.7677     1.0000     0.2323     0.9134     0.9134    -0.0000
  5 C      6.1308     6.0000    -0.1308     3.7477     3.7477     0.0000
  6 H      0.7669     1.0000     0.2331     0.9065     0.9065    -0.0000
  7 C      6.3084     6.0000    -0.3084     3.8025     3.8025     0.0000
  8 H      0.7700     1.0000     0.2300     0.9138     0.9138     0.0000
  9 C      6.0243     6.0000    -0.0243     3.8447     3.8447    -0.0000
 10 H      0.7700     1.0000     0.2300     0.9016     0.9016    -0.0000
 11 N      7.3983     7.0000    -0.3983     3.1118     3.1118    -0.0000
 12 C      6.0243     6.0000    -0.0243     3.8447     3.8447    -0.0000
 13 H      0.7700     1.0000     0.2300     0.9016     0.9016    -0.0000
 14 C      6.3084     6.0000    -0.3084     3.8025     3.8025    -0.0000
 15 H      0.7699     1.0000     0.2301     0.9138     0.9138     0.0000
 16 C      6.1308     6.0000    -0.1308     3.7477     3.7477    -0.0000
 17 H      0.7669     1.0000     0.2331     0.9065     0.9065    -0.0000
 18 C      6.2932     6.0000    -0.2932     3.8045     3.8045    -0.0000
 19 H      0.7677     1.0000     0.2323     0.9134     0.9134    -0.0000
 20 C      6.0627     6.0000    -0.0627     3.7501     3.7501     0.0000
 21 H      0.7077     1.0000     0.2923     0.8911     0.8911     0.0000

  Mayer bond orders larger than 0.100000
B(  0-N ,  1-C ) :   1.4543 B(  0-N ,  9-C ) :   1.4961 B(  1-C ,  2-H ) :   0.8636 
B(  1-C ,  3-C ) :   1.3820 B(  3-C ,  4-H ) :   0.9146 B(  3-C ,  5-C ) :   1.4150 
B(  5-C ,  6-H ) :   0.9186 B(  5-C ,  7-C ) :   1.4099 B(  7-C ,  8-H ) :   0.9139 
B(  7-C ,  9-C ) :   1.3847 B(  9-C , 10-H ) :   0.9174 B( 11-N , 12-C ) :   1.4961 
B( 11-N , 20-C ) :   1.4543 B( 12-C , 13-H ) :   0.9174 B( 12-C , 14-C ) :   1.3847 
B( 14-C , 15-H ) :   0.9139 B( 14-C , 16-C ) :   1.4099 B( 16-C , 17-H ) :   0.9186 
B( 16-C , 18-C ) :   1.4150 B( 18-C , 19-H ) :   0.9146 B( 18-C , 20-C ) :   1.3820 
B( 20-C , 21-H ) :   0.8636 

-------
TIMINGS
-------

Total SCF time: 0 days 0 hours 2 min 9 sec 

Total time                  ....     129.673 sec
Sum of individual times     ....     121.810 sec  ( 93.9%)

Fock matrix formation       ....     106.060 sec  ( 81.8%)
  Split-RI-J                ....       9.154 sec  (  8.6% of F)
  Chain of spheres X        ....      55.392 sec  ( 52.2% of F)
  XC integration            ....      25.514 sec  ( 24.1% of F)
    Basis function eval.    ....       4.991 sec  ( 19.6% of XC)
    Density eval.           ....       3.080 sec  ( 12.1% of XC)
    XC-Functional eval.     ....       1.962 sec  (  7.7% of XC)
    XC-Potential eval.      ....       1.679 sec  (  6.6% of XC)
Diagonalization             ....       1.162 sec  (  0.9%)
Density matrix formation    ....       0.103 sec  (  0.1%)
Population analysis         ....       0.912 sec  (  0.7%)
Initial guess               ....       0.025 sec  (  0.0%)
Orbital Transformation      ....       0.000 sec  (  0.0%)
Orbital Orthonormalization  ....       0.000 sec  (  0.0%)
DIIS solution               ....       1.232 sec  (  0.9%)
SOSCF solution              ....       1.374 sec  (  1.1%)
Grid generation             ....      10.943 sec  (  8.4%)

Maximum memory used throughout the entire SCF-calculation: 62.6 MB


-------------------------------------------------------------------------------
                          DFT DISPERSION CORRECTION                            
                                                                               
                              DFTD3 V3.1  Rev 1                                
                          USING Becke-Johnson damping                          
-------------------------------------------------------------------------------
The PBEh-3c composite method is recognized
Using three-body term ABC
Active option DFTDOPT                   ...         4   

molecular C6(AA) [au] = 5862.861662 


            DFT-D V3
 parameters
 s6 scaling factor         :     1.0000 
 a1 scaling factor         :     0.4860 
 s8 scaling factor         :     0.0000 
 a2 scaling factor         :     4.5000 
 Damping factor alpha9(ATM):    16.0000 
 ad hoc parameters k1-k3   :    16.0000     1.3333    -4.0000 

 Edisp/kcal,au: -7.727466425360  -0.012314500291 
 E6   /kcal   :  -7.694110325 
 E8   /kcal   :  -0.000000000 
 E6(ABC)      :  -0.033356101 
 % E8         :   0.000000000 
 % E6(ABC)    :   0.431656364 

-------------------------   ----------------
Dispersion correction           -0.012314500
-------------------------   ----------------

------------------   -----------------
gCP correction             0.032956133
------------------   -----------------

-------------------------   --------------------
FINAL SINGLE POINT ENERGY      -495.465584552751
-------------------------   --------------------


                            ***************************************
                            *     ORCA property calculations      *
                            ***************************************

                                    ---------------------
                                    Active property flags
                                    ---------------------
   (+) Dipole Moment


------------------------------------------------------------------------------
                       ORCA ELECTRIC PROPERTIES CALCULATION
------------------------------------------------------------------------------

Dipole Moment Calculation                       ... on
Quadrupole Moment Calculation                   ... off
Polarizability Calculation                      ... off
GBWName                                         ... pbeh-3c.gbw
Electron density                                ... pbeh-3c.scfp
The origin for moment calculation is the CENTER OF MASS  = (-0.000021,  0.000033  0.000000)

-------------
DIPOLE MOMENT
-------------
                                X             Y             Z
Electronic contribution:      0.00001       0.00020      -0.00000
Nuclear contribution   :      0.00023      -0.00036       0.00000
                        -----------------------------------------
Total Dipole Moment    :      0.00023      -0.00015      -0.00000
                        -----------------------------------------
Magnitude (a.u.)       :      0.00028
Magnitude (Debye)      :      0.00071



--------------------
Rotational spectrum 
--------------------
 
Rotational constants in cm-1:     0.099773     0.011092     0.009982 
Rotational constants in MHz :  2991.104693   332.532828   299.262629 

 Dipole components along the rotational axes: 
x,y,z [a.u.] :    -0.000239    -0.000144    -0.000000 
x,y,z [Debye]:    -0.000608    -0.000366    -0.000000 

 

Timings for individual modules:

Sum of individual times         ...      134.780 sec (=   2.246 min)
GTO integral calculation        ...        3.829 sec (=   0.064 min)   2.8 %
SCF iterations                  ...      130.950 sec (=   2.183 min)  97.2 %
                             ****ORCA TERMINATED NORMALLY****
TOTAL RUN TIME: 0 days 0 hours 2 minutes 18 seconds 618 msec
