
                                 *****************
                                 * O   R   C   A *
                                 *****************

                                            #,                                       
                                            ###                                      
                                            ####                                     
                                            #####                                    
                                            ######                                   
                                           ########,                                 
                                     ,,################,,,,,                         
                               ,,#################################,,                 
                          ,,##########################################,,             
                       ,#########################################, ''#####,          
                    ,#############################################,,   '####,        
                  ,##################################################,,,,####,       
                ,###########''''           ''''###############################       
              ,#####''   ,,,,##########,,,,          '''####'''          '####       
            ,##' ,,,,###########################,,,                        '##       
           ' ,,###''''                  '''############,,,                           
         ,,##''                                '''############,,,,        ,,,,,,###''
      ,#''                                            '''#######################'''  
     '                                                          ''''####''''         
             ,#######,   #######,   ,#######,      ##                                
            ,#'     '#,  ##    ##  ,#'     '#,    #''#        ######   ,####,        
            ##       ##  ##   ,#'  ##            #'  '#       #        #'  '#        
            ##       ##  #######   ##           ,######,      #####,   #    #        
            '#,     ,#'  ##    ##  '#,     ,#' ,#      #,         ##   #,  ,#        
             '#######'   ##     ##  '#######'  #'      '#     #####' # '####'        



                  #######################################################
                  #                        -***-                        #
                  #          Department of theory and spectroscopy      #
                  #    Directorship and core code : Frank Neese         #
                  #        Max Planck Institute fuer Kohlenforschung    #
                  #                Kaiser Wilhelm Platz 1               #
                  #                 D-45470 Muelheim/Ruhr               #
                  #                      Germany                        #
                  #                                                     #
                  #                  All rights reserved                #
                  #                        -***-                        #
                  #######################################################


                         Program Version 5.0.3 -  RELEASE  -


 With contributions from (in alphabetic order):
   Daniel Aravena         : Magnetic Suceptibility
   Michael Atanasov       : Ab Initio Ligand Field Theory (pilot matlab implementation)
   Alexander A. Auer      : GIAO ZORA, VPT2 properties, NMR spectrum
   Ute Becker             : Parallelization
   Giovanni Bistoni       : ED, misc. LED, open-shell LED, HFLD
   Martin Brehm           : Molecular dynamics
   Dmytro Bykov           : SCF Hessian
   Vijay G. Chilkuri      : MRCI spin determinant printing, contributions to CSF-ICE
   Dipayan Datta          : RHF DLPNO-CCSD density
   Achintya Kumar Dutta   : EOM-CC, STEOM-CC
   Dmitry Ganyushin       : Spin-Orbit,Spin-Spin,Magnetic field MRCI
   Miquel Garcia          : C-PCM and meta-GGA Hessian, CC/C-PCM, Gaussian charge scheme
   Yang Guo               : DLPNO-NEVPT2, F12-NEVPT2, CIM, IAO-localization
   Andreas Hansen         : Spin unrestricted coupled pair/coupled cluster methods
   Benjamin Helmich-Paris : MC-RPA, TRAH-SCF, COSX integrals
   Lee Huntington         : MR-EOM, pCC
   Robert Izsak           : Overlap fitted RIJCOSX, COSX-SCS-MP3, EOM
   Marcus Kettner         : VPT2
   Christian Kollmar      : KDIIS, OOCD, Brueckner-CCSD(T), CCSD density, CASPT2, CASPT2-K
   Simone Kossmann        : Meta GGA functionals, TD-DFT gradient, OOMP2, MP2 Hessian
   Martin Krupicka        : Initial AUTO-CI
   Lucas Lang             : DCDCAS
   Marvin Lechner         : AUTO-CI (C++ implementation), FIC-MRCC
   Dagmar Lenk            : GEPOL surface, SMD
   Dimitrios Liakos       : Extrapolation schemes; Compound Job, initial MDCI parallelization
   Dimitrios Manganas     : Further ROCIS development; embedding schemes
   Dimitrios Pantazis     : SARC Basis sets
   Anastasios Papadopoulos: AUTO-CI, single reference methods and gradients
   Taras Petrenko         : DFT Hessian,TD-DFT gradient, ASA, ECA, R-Raman, ABS, FL, XAS/XES, NRVS
   Peter Pinski           : DLPNO-MP2, DLPNO-MP2 Gradient
   Christoph Reimann      : Effective Core Potentials
   Marius Retegan         : Local ZFS, SOC
   Christoph Riplinger    : Optimizer, TS searches, QM/MM, DLPNO-CCSD(T), (RO)-DLPNO pert. Triples
   Tobias Risthaus        : Range-separated hybrids, TD-DFT gradient, RPA, STAB
   Michael Roemelt        : Original ROCIS implementation
   Masaaki Saitow         : Open-shell DLPNO-CCSD energy and density
   Barbara Sandhoefer     : DKH picture change effects
   Avijit Sen             : IP-ROCIS
   Kantharuban Sivalingam : CASSCF convergence, NEVPT2, FIC-MRCI
   Bernardo de Souza      : ESD, SOC TD-DFT
   Georgi Stoychev        : AutoAux, RI-MP2 NMR, DLPNO-MP2 response
   Willem Van den Heuvel  : Paramagnetic NMR
   Boris Wezisla          : Elementary symmetry handling
   Frank Wennmohs         : Technical directorship


 We gratefully acknowledge several colleagues who have allowed us to
 interface, adapt or use parts of their codes:
   Stefan Grimme, W. Hujo, H. Kruse, P. Pracht,  : VdW corrections, initial TS optimization,
                  C. Bannwarth, S. Ehlert          DFT functionals, gCP, sTDA/sTD-DF
   Ed Valeev, F. Pavosevic, A. Kumar             : LibInt (2-el integral package), F12 methods
   Garnet Chan, S. Sharma, J. Yang, R. Olivares  : DMRG
   Ulf Ekstrom                                   : XCFun DFT Library
   Mihaly Kallay                                 : mrcc  (arbitrary order and MRCC methods)
   Jiri Pittner, Ondrej Demel                    : Mk-CCSD
   Frank Weinhold                                : gennbo (NPA and NBO analysis)
   Christopher J. Cramer and Donald G. Truhlar   : smd solvation model
   Lars Goerigk                                  : TD-DFT with DH, B97 family of functionals
   V. Asgeirsson, H. Jonsson                     : NEB implementation
   FAccTs GmbH                                   : IRC, NEB, NEB-TS, DLPNO-Multilevel, CI-OPT
                                                   MM, QMMM, 2- and 3-layer-ONIOM, Crystal-QMMM,
                                                   LR-CPCM, SF, NACMEs, symmetry and pop. for TD-DFT,
                                                   nearIR, NL-DFT gradient (VV10), updates on ESD,
                                                   ML-optimized integration grids
   S Lehtola, MJT Oliveira, MAL Marques          : LibXC Library
   Liviu Ungur et al                             : ANISO software


 Your calculation uses the libint2 library for the computation of 2-el integrals
 For citations please refer to: http://libint.valeyev.net

 Your ORCA version has been built with support for libXC version: 5.1.0
 For citations please refer to: https://tddft.org/programs/libxc/

 This ORCA versions uses:
   CBLAS   interface :  Fast vector & matrix operations
   LAPACKE interface :  Fast linear algebra routines
   SCALAPACK package :  Parallel linear algebra routines
   Shared memory     :  Shared parallel matrices
   BLAS/LAPACK       :  OpenBLAS 0.3.15  USE64BITINT DYNAMIC_ARCH NO_AFFINITY Haswell SINGLE_THREADED
        Core in use  :  Haswell
   Copyright (c) 2011-2014, The OpenBLAS Project




***************************************
The coordinates will be read from file: P_TG.xyz
***************************************


Your calculation utilizes the geometrical counterpoise correction gCP
Please cite in your paper:
H.Kruse, S. Grimme J.Chem.Phys., 136, (2012), 154101 
   

Your calculation utilizes the atom-pairwise dispersion correction
with the Becke-Johnson damping scheme (D3BJ)
Cite in your paper:
S.Grimme, S.Ehrlich, L.Goerigk, J Comput Chem, (2011), 32, 1456–1465 
S.Grimme, J.Antony, S.Ehrlich and H.Krieg, J.Chem.Phys., 132, (2010), 154104 
   

Your calculation employs the composite approach PBEh-3c.
Please cite in your paper:
S. Grimme, J. G. Brandenburg, C. Bannwarth, A. Hansen J.Chem.Phys., 143, (2015), 054107 
   

================================================================================

----- Orbital basis set information -----
Your calculation utilizes the basis: def2-mSVP

----- AuxJ basis set information -----
Your calculation utilizes the auxiliary basis: def2/J
   F. Weigend, Phys. Chem. Chem. Phys. 8, 1057 (2006).

================================================================================
                                        WARNINGS
                       Please study these warnings very carefully!
================================================================================


INFO   : the flag for use of the SHARK integral package has been found!

================================================================================
                                       INPUT FILE
================================================================================
NAME = pbeh-3c.inp
|  1> ! PBEh-3c def2/J TightSCF DefGrid3
|  2> 
|  3> %maxcore 60000
|  4> 
|  5> %pal
|  6> nprocs 4
|  7> end
|  8> 
|  9> *xyzfile 0 1 P_TG.xyz
| 10> 
| 11>                          ****END OF INPUT****
================================================================================

                       ****************************
                       * Single Point Calculation *
                       ****************************

---------------------------------
CARTESIAN COORDINATES (ANGSTROEM)
---------------------------------
  C      2.406082   -0.141625    0.108142
  C      0.963221   -0.333516   -0.341232
  C      0.036784    0.731275    0.233880
  C     -1.403814    0.636051   -0.261159
  C     -2.105144   -0.650118    0.160535
  H      3.061711   -0.907664   -0.302920
  H     -1.413270    0.718718   -1.350631
  H     -1.966819    1.490789    0.117548
  H      2.480724   -0.185610    1.194683
  H      2.784781    0.829696   -0.209614
  H      0.439428    1.715689   -0.017930
  H      0.047889    0.664060    1.325980
  H      0.908545   -0.301180   -1.432346
  H      0.620699   -1.325143   -0.042902
  H     -3.150132   -0.647771   -0.145525
  H     -1.635608   -1.527207   -0.280938
  H     -2.075078   -0.766443    1.244430

----------------------------
CARTESIAN COORDINATES (A.U.)
----------------------------
  NO LB      ZA    FRAG     MASS         X           Y           Z
   0 C     6.0000    0    12.011    4.546837   -0.267633    0.204359
   1 C     6.0000    0    12.011    1.820225   -0.630255   -0.644835
   2 C     6.0000    0    12.011    0.069513    1.381910    0.441969
   3 C     6.0000    0    12.011   -2.652825    1.201963   -0.493519
   4 C     6.0000    0    12.011   -3.978146   -1.228546    0.303367
   5 H     1.0000    0     1.008    5.785796   -1.715237   -0.572436
   6 H     1.0000    0     1.008   -2.670694    1.358181   -2.552323
   7 H     1.0000    0     1.008   -3.716750    2.817184    0.222133
   8 H     1.0000    0     1.008    4.687890   -0.350751    2.257623
   9 H     1.0000    0     1.008    5.262474    1.567899   -0.396113
  10 H     1.0000    0     1.008    0.830399    3.242183   -0.033883
  11 H     1.0000    0     1.008    0.090498    1.254891    2.505739
  12 H     1.0000    0     1.008    1.716902   -0.569148   -2.706742
  13 H     1.0000    0     1.008    1.172952   -2.504158   -0.081073
  14 H     1.0000    0     1.008   -5.952887   -1.224111   -0.275002
  15 H     1.0000    0     1.008   -3.090852   -2.886004   -0.530896
  16 H     1.0000    0     1.008   -3.921330   -1.448368    2.351632

--------------------------------
INTERNAL COORDINATES (ANGSTROEM)
--------------------------------
 C      0   0   0     0.000000000000     0.00000000     0.00000000
 C      1   0   0     1.523353733134     0.00000000     0.00000000
 C      2   1   0     1.524080318589   112.11253230     0.00000000
 C      3   2   1     1.526255651380   114.06479719   176.18262152
 C      4   3   2     1.524441709566   113.40041437    63.99930668
 H      1   2   3     1.088869536531   111.73546118   179.77321114
 H      4   3   2     1.092644721586   109.07799780   301.54174916
 H      4   3   2     1.091315913853   108.99720014   185.75844529
 H      1   2   3     1.089989616969   110.72203753    59.51979235
 H      1   2   3     1.089884476571   110.81586661   300.16789347
 H      3   2   1     1.092978093477   108.56497438    54.15712121
 H      3   2   1     1.094222785022   109.11907645   298.64209012
 H      2   1   3     1.092961501091   109.76399903   121.29743042
 H      2   1   3     1.090709015662   109.34650654   237.80205799
 H      5   4   3     1.088888369827   111.21931072   175.68965379
 H      5   4   3     1.088415127905   111.66752631   295.85775405
 H      5   4   3     1.090533741342   110.62498304    55.89274945

---------------------------
INTERNAL COORDINATES (A.U.)
---------------------------
 C      0   0   0     0.000000000000     0.00000000     0.00000000
 C      1   0   0     2.878721360710     0.00000000     0.00000000
 C      2   1   0     2.880094408232   112.11253230     0.00000000
 C      3   2   1     2.884205191458   114.06479719   176.18262152
 C      4   3   2     2.880777338206   113.40041437    63.99930668
 H      1   2   3     2.057665219614   111.73546118   179.77321114
 H      4   3   2     2.064799285472   109.07799780   301.54174916
 H      4   3   2     2.062288202772   108.99720014   185.75844529
 H      1   2   3     2.059781864890   110.72203753    59.51979235
 H      1   2   3     2.059583178331   110.81586661   300.16789347
 H      3   2   1     2.065429267047   108.56497438    54.15712121
 H      3   2   1     2.067781393188   109.11907645   298.64209012
 H      2   1   3     2.065397911982   109.76399903   121.29743042
 H      2   1   3     2.061141331401   109.34650654   237.80205799
 H      5   4   3     2.057700809384   111.21931072   175.68965379
 H      5   4   3     2.056806511756   111.66752631   295.85775405
 H      5   4   3     2.060810110937   110.62498304    55.89274945

---------------------
BASIS SET INFORMATION
---------------------
There are 2 groups of distinct atoms

 Group   1 Type C   : 8s4p1d contracted to 4s2p1d pattern {5111/31/1}
 Group   2 Type H   : 4s contracted to 2s pattern {31}

Atom   0C    basis set group =>   1
Atom   1C    basis set group =>   1
Atom   2C    basis set group =>   1
Atom   3C    basis set group =>   1
Atom   4C    basis set group =>   1
Atom   5H    basis set group =>   2
Atom   6H    basis set group =>   2
Atom   7H    basis set group =>   2
Atom   8H    basis set group =>   2
Atom   9H    basis set group =>   2
Atom  10H    basis set group =>   2
Atom  11H    basis set group =>   2
Atom  12H    basis set group =>   2
Atom  13H    basis set group =>   2
Atom  14H    basis set group =>   2
Atom  15H    basis set group =>   2
Atom  16H    basis set group =>   2
---------------------------------
AUXILIARY/J BASIS SET INFORMATION
---------------------------------
There are 2 groups of distinct atoms

 Group   1 Type C   : 12s5p4d2f1g contracted to 6s4p3d1f1g pattern {711111/2111/211/2/1}
 Group   2 Type H   : 5s2p1d contracted to 3s1p1d pattern {311/2/1}

Atom   0C    basis set group =>   1
Atom   1C    basis set group =>   1
Atom   2C    basis set group =>   1
Atom   3C    basis set group =>   1
Atom   4C    basis set group =>   1
Atom   5H    basis set group =>   2
Atom   6H    basis set group =>   2
Atom   7H    basis set group =>   2
Atom   8H    basis set group =>   2
Atom   9H    basis set group =>   2
Atom  10H    basis set group =>   2
Atom  11H    basis set group =>   2
Atom  12H    basis set group =>   2
Atom  13H    basis set group =>   2
Atom  14H    basis set group =>   2
Atom  15H    basis set group =>   2
Atom  16H    basis set group =>   2


           ************************************************************
           *        Program running with 4 parallel MPI-processes     *
           *              working on a common directory               *
           ************************************************************
------------------------------------------------------------------------------
                           ORCA GTO INTEGRAL CALCULATION
                           -- RI-GTO INTEGRALS CHOSEN --
------------------------------------------------------------------------------
------------------------------------------------------------------------------
                   ___                                                        
                  /   \      - P O W E R E D   B Y -                         
                 /     \                                                     
                 |  |  |   _    _      __       _____    __    __             
                 |  |  |  | |  | |    /  \     |  _  \  |  |  /  |          
                  \  \/   | |  | |   /    \    | | | |  |  | /  /          
                 / \  \   | |__| |  /  /\  \   | |_| |  |  |/  /          
                |  |  |   |  __  | /  /__\  \  |    /   |      \           
                |  |  |   | |  | | |   __   |  |    \   |  |\   \          
                \     /   | |  | | |  |  |  |  | |\  \  |  | \   \       
                 \___/    |_|  |_| |__|  |__|  |_| \__\ |__|  \__/        
                                                                              
                      - O R C A' S   B I G   F R I E N D -                    
                                      &                                       
                       - I N T E G R A L  F E E D E R -                       
                                                                              
 v1 FN, 2020, v2 2021                                                         
------------------------------------------------------------------------------


Reading SHARK input file pbeh-3c.SHARKINP.tmp ... ok
----------------------
SHARK INTEGRAL PACKAGE
----------------------

Number of atoms                             ...     17
Number of basis functions                   ...     99
Number of shells                            ...     59
Maximum angular momentum                    ...      2
Integral batch strategy                     ... SHARK/LIBINT Hybrid
RI-J (if used) integral strategy            ... SPLIT-RIJ (Revised 2003 algorithm where possible)
Printlevel                                  ...      1
Contraction scheme used                     ... SEGMENTED contraction
Coulomb Range Separation                    ... NOT USED
Exchange Range Separation                   ... NOT USED
Finite Nucleus Model                        ... NOT USED
Auxiliary Coulomb fitting basis             ... AVAILABLE
   # of basis functions in Aux-J            ...    377
   # of shells in Aux-J                     ...    135
   Maximum angular momentum in Aux-J        ...      4
Auxiliary J/K fitting basis                 ... NOT available
Auxiliary Correlation fitting basis         ... NOT available
Auxiliary 'external' fitting basis          ... NOT available
Integral threshold                          ...     2.500000e-11
Primitive cut-off                           ...     2.500000e-12
Primitive pair pre-selection threshold      ...     2.500000e-12

Calculating pre-screening integrals         ... done (  0.1 sec) Dimension = 59
Organizing shell pair data                  ... done (  0.2 sec)
Shell pair information
Total number of shell pairs                 ...      1770
Shell pairs after pre-screening             ...      1673
Total number of primitive shell pairs       ...      6542
Primitive shell pairs kept                  ...      4568
          la=0 lb=0:    912 shell pairs
          la=1 lb=0:    432 shell pairs
          la=1 lb=1:     55 shell pairs
          la=2 lb=0:    209 shell pairs
          la=2 lb=1:     50 shell pairs
          la=2 lb=2:     15 shell pairs

Calculating one electron integrals          ... done (  0.0 sec)
Calculating RI/J V-Matrix + Cholesky decomp.... done (  0.6 sec)
Calculating Nuclear repulsion               ... done (  0.0 sec) ENN=    188.292694565840 Eh

SHARK setup successfully completed in   2.0 seconds

Maximum memory used throughout the entire GTOINT-calculation: 10.4 MB


           ************************************************************
           *        Program running with 4 parallel MPI-processes     *
           *              working on a common directory               *
           ************************************************************
-------------------------------------------------------------------------------
                                 ORCA SCF
-------------------------------------------------------------------------------

------------
SCF SETTINGS
------------
Hamiltonian:
 Density Functional     Method          .... DFT(GTOs)
 Exchange Functional    Exchange        .... PBE
   PBE kappa parameter   XKappa         ....  1.024500
   PBE mue parameter    XMuePBE         ....  0.123457
 Correlation Functional Correlation     .... PBE
   PBE beta parameter  CBetaPBE         ....  0.030000
 LDA part of GGA corr.  LDAOpt          .... PW91-LDA
 Gradients option       PostSCFGGA      .... off
 Hybrid DFT is turned on
   Fraction HF Exchange ScalHFX         ....  0.420000
   Scaling of DF-GGA-X  ScalDFX         ....  0.580000
   Scaling of DF-GGA-C  ScalDFC         ....  1.000000
   Scaling of DF-LDA-C  ScalLDAC        ....  1.000000
   Perturbative correction              ....  0.000000
   Density functional embedding theory  .... OFF
 RI-approximation to the Coulomb term is turned on
   Number of AuxJ basis functions       .... 377
   RIJ-ON(X) (HFX calculated with O(N)) .... on
   Number of AuxJ basis functions       .... 377
   RIJ-COSX (HFX calculated with COS-X)).... on


General Settings:
 Integral files         IntName         .... pbeh-3c
 Hartree-Fock type      HFTyp           .... RHF
 Total Charge           Charge          ....    0
 Multiplicity           Mult            ....    1
 Number of Electrons    NEL             ....   42
 Basis Dimension        Dim             ....   99
 Nuclear Repulsion      ENuc            ....    188.2926945658 Eh

Convergence Acceleration:
 DIIS                   CNVDIIS         .... on
   Start iteration      DIISMaxIt       ....    12
   Startup error        DIISStart       ....  0.200000
   # of expansion vecs  DIISMaxEq       ....     5
   Bias factor          DIISBfac        ....   1.050
   Max. coefficient     DIISMaxC        ....  10.000
 Trust-Rad. Augm. Hess. CNVTRAH         .... auto
   Auto Start mean grad. ratio tolernc. ....  1.125000
   Auto Start start iteration           ....    20
   Auto Start num. interpolation iter.  ....    10
   Max. Number of Micro iterations      ....    16
   Max. Number of Macro iterations      .... Maxiter - #DIIS iter
   Number of Davidson start vectors     ....     2
   Converg. threshold I  (grad. norm)   ....   1.000e-05
   Converg. threshold II (energy diff.) ....   1.000e-08
   Grad. Scal. Fac. for Micro threshold ....   0.100
   Minimum threshold for Micro iter.    ....   0.010
   NR start threshold (gradient norm)   ....   0.001
   Initial trust radius                 ....   0.400
   Minimum AH scaling param. (alpha)    ....   1.000
   Maximum AH scaling param. (alpha)    .... 1000.000
   Orbital update algorithm             .... Taylor
   White noise on init. David. guess    .... on
   Maximum white noise                  ....   0.010
   Quad. conv. algorithm                .... NR
   COSX micro iterations for RIJONX calc.... off
 SOSCF                  CNVSOSCF        .... on
   Start iteration      SOSCFMaxIt      ....   150
   Startup grad/error   SOSCFStart      ....  0.003300
 Level Shifting         CNVShift        .... on
   Level shift para.    LevelShift      ....    0.2500
   Turn off err/grad.   ShiftErr        ....    0.0010
 Zerner damping         CNVZerner       .... off
 Static damping         CNVDamp         .... on
   Fraction old density DampFac         ....    0.7000
   Max. Damping (<1)    DampMax         ....    0.9800
   Min. Damping (>=0)   DampMin         ....    0.0000
   Turn off err/grad.   DampErr         ....    0.1000
 Fernandez-Rico         CNVRico         .... off

SCF Procedure:
 Maximum # iterations   MaxIter         ....   125
 SCF integral mode      SCFMode         .... Direct
   Integral package                     .... SHARK and LIBINT hybrid scheme
 Reset frequency        DirectResetFreq ....    20
 Integral Threshold     Thresh          ....  2.500e-11 Eh
 Primitive CutOff       TCut            ....  2.500e-12 Eh

Convergence Tolerance:
 Convergence Check Mode ConvCheckMode   .... Total+1el-Energy
 Convergence forced     ConvForced      .... 0
 Energy Change          TolE            ....  1.000e-08 Eh
 1-El. energy change                    ....  1.000e-05 Eh
 Orbital Gradient       TolG            ....  1.000e-05
 Orbital Rotation angle TolX            ....  1.000e-05
 DIIS Error             TolErr          ....  5.000e-07


Diagonalization of the overlap matrix:
Smallest eigenvalue                        ... 5.835e-03
Time for diagonalization                   ...    0.002 sec
Threshold for overlap eigenvalues          ... 1.000e-08
Number of eigenvalues below threshold      ... 0
Time for construction of square roots      ...    0.276 sec
Total time needed                          ...    0.279 sec

--------------------------------
INITIAL GUESS: MINIMAL BASIS EHT
--------------------------------
The minimal basis has 37 functions
EHT matrix was diagonalized
Basis set overlap was calculated now projecting the orbitals
Using GuessMode=FMatrix for the initial guess
C*T matrix was formed
Effective Fockian was calculated
Effective Fockian was diagonalized
Initial density was built
                      ------------------
                      INITIAL GUESS DONE
                      ------------------
-------------------
DFT GRID GENERATION
-------------------

General Integration Accuracy     IntAcc      ... 4.959
Radial Grid Type                 RadialGrid  ... OptM3 with GC (2021)
Angular Grid (max. ang.)         AngularGrid ... 6 (Lebedev-590)
Angular grid pruning method      GridPruning ... 4 (adaptive)
Weight generation scheme         WeightScheme... Becke
Basis function cutoff            BFCut       ... 1.0000e-11
Integration weight cutoff        WCut        ... 1.0000e-14
Angular grids for H and He will be reduced by one unit
Partially contracted basis set               ... off
Rotationally invariant grid construction     ... off

Total number of grid points                  ...   175550
Total number of batches                      ...     2752
Average number of points per batch           ...       63
Average number of grid points per atom       ...    10326
Time for grid setup =    3.715 sec

--------------------
COSX GRID GENERATION
--------------------

GRIDX 1
-------
General Integration Accuracy     IntAcc      ... 4.020
Radial Grid Type                 RadialGrid  ... OptM3 with GC (2021)
Angular Grid (max. ang.)         AngularGrid ... 2 (Lebedev-110)
Angular grid pruning method      GridPruning ... 4 (adaptive)
Weight generation scheme         WeightScheme... Becke
Basis function cutoff            BFCut       ... 1.0000e-11
Integration weight cutoff        WCut        ... 1.0000e-14
Angular grids for H and He will be reduced by one unit
Partially contracted basis set               ... on
Rotationally invariant grid construction     ... off

Total number of grid points                  ...    18060
Total number of batches                      ...      293
Average number of points per batch           ...       61
Average number of grid points per atom       ...     1062
UseSFitting                                  ... on

GRIDX 2
-------
General Integration Accuracy     IntAcc      ... 4.338
Radial Grid Type                 RadialGrid  ... OptM3 with GC (2021)
Angular Grid (max. ang.)         AngularGrid ... 3 (Lebedev-194)
Angular grid pruning method      GridPruning ... 4 (adaptive)
Weight generation scheme         WeightScheme... Becke
Basis function cutoff            BFCut       ... 1.0000e-11
Integration weight cutoff        WCut        ... 1.0000e-14
Angular grids for H and He will be reduced by one unit
Partially contracted basis set               ... on
Rotationally invariant grid construction     ... off

Total number of grid points                  ...    39431
Total number of batches                      ...      624
Average number of points per batch           ...       63
Average number of grid points per atom       ...     2319
UseSFitting                                  ... on

GRIDX 3
-------
General Integration Accuracy     IntAcc      ... 4.871
Radial Grid Type                 RadialGrid  ... OptM3 with GC (2021)
Angular Grid (max. ang.)         AngularGrid ... 4 (Lebedev-302)
Angular grid pruning method      GridPruning ... 4 (adaptive)
Weight generation scheme         WeightScheme... Becke
Basis function cutoff            BFCut       ... 1.0000e-11
Integration weight cutoff        WCut        ... 1.0000e-14
Angular grids for H and He will be reduced by one unit
Partially contracted basis set               ... on
Rotationally invariant grid construction     ... off

Total number of grid points                  ...    79543
Total number of batches                      ...     1252
Average number of points per batch           ...       63
Average number of grid points per atom       ...     4679
UseSFitting                                  ... on

Time for X-Grid setup             =    6.136 sec

--------------
SCF ITERATIONS
--------------
ITER       Energy         Delta-E        Max-DP      RMS-DP      [F,P]     Damp
               ***  Starting incremental Fock matrix formation  ***
  0   -196.9768968796   0.000000000000 0.02361690  0.00220851  0.4026450 0.7000
  1   -197.0853533992  -0.108456519593 0.01730414  0.00167967  0.2852717 0.7000
                      *** Initiating the SOSCF procedure ***
                      *** Re-Reading the Fockian *** 
                      *** Removing any level shift *** 
ITER      Energy       Delta-E        Grad      Rot      Max-DP    RMS-DP
  2   -197.16286433  -0.0775109262  0.002632  0.002632  0.040753  0.004153
               *** Restarting incremental Fock matrix formation ***
  3   -197.34791531  -0.1850509849  0.006271  0.006552  0.008704  0.000764
  4   -197.34841118  -0.0004958678  0.001541  0.001606  0.003331  0.000213
  5   -197.34853765  -0.0001264734  0.001091  0.000381  0.000639  0.000058
  6   -197.34854565  -0.0000080023  0.000084  0.000057  0.000298  0.000010
  7   -197.34854574  -0.0000000853  0.000049  0.000023  0.000117  0.000005
  8   -197.34854582  -0.0000000832  0.000006  0.000004  0.000009  0.000001
                  ***Gradient check signals convergence***
              ***Rediagonalizing the Fockian in SOSCF/NRSCF***

               *****************************************************
               *                     SUCCESS                       *
               *           SCF CONVERGED AFTER   9 CYCLES          *
               *****************************************************

Old exchange energy                            =    -12.686842542 Eh
New exchange energy                            =    -12.686837721 Eh
Exchange energy change after final integration =      0.000004822 Eh
Total energy after final integration           =   -197.348541003 Eh
Final COS-X integration done in                =     2.635 sec

----------------
TOTAL SCF ENERGY
----------------

Total Energy       :         -197.34854100 Eh           -5370.12681 eV

Components:
Nuclear Repulsion  :          188.29269457 Eh            5123.70470 eV
Electronic Energy  :         -385.64123557 Eh          -10493.83152 eV
One Electron Energy:         -636.86228573 Eh          -17329.90383 eV
Two Electron Energy:          251.22105016 Eh            6836.07231 eV
Max COSX asymmetry :            0.00000104 Eh               0.00003 eV

Virial components:
Potential Energy   :         -393.03735822 Eh          -10695.09025 eV
Kinetic Energy     :          195.68881722 Eh            5324.96343 eV
Virial Ratio       :            2.00848144


DFT components:
N(Alpha)           :       20.999997674364 electrons
N(Beta)            :       20.999997674364 electrons
N(Total)           :       41.999995348729 electrons
E(X)               :      -16.796745289212 Eh       
E(C)               :       -1.762680211426 Eh       
E(XC)              :      -18.559425500637 Eh       
DFET-embed. en.    :        0.000000000000 Eh       

---------------
SCF CONVERGENCE
---------------

  Last Energy change         ...   -1.8794e-09  Tolerance :   1.0000e-08
  Last MAX-Density change    ...    6.6613e-16  Tolerance :   1.0000e-07
  Last RMS-Density change    ...    4.0831e-17  Tolerance :   5.0000e-09
  Last Orbital Gradient      ...    1.3245e-06  Tolerance :   1.0000e-05
  Last Orbital Rotation      ...    1.0521e-06  Tolerance :   1.0000e-05

             **** THE GBW FILE WAS UPDATED (pbeh-3c.gbw) ****
             **** DENSITY pbeh-3c.scfp WAS UPDATED ****
             **** ENERGY FILE WAS UPDATED (pbeh-3c.en.tmp) ****
             **** THE GBW FILE WAS UPDATED (pbeh-3c.gbw) ****
             **** DENSITY pbeh-3c.scfp WAS UPDATED ****
----------------
ORBITAL ENERGIES
----------------

  NO   OCC          E(Eh)            E(eV) 
   0   2.0000     -10.427023      -283.7337 
   1   2.0000     -10.426238      -283.7124 
   2   2.0000     -10.424919      -283.6765 
   3   2.0000     -10.418722      -283.5078 
   4   2.0000     -10.418347      -283.4976 
   5   2.0000      -0.893367       -24.3098 
   6   2.0000      -0.834193       -22.6996 
   7   2.0000      -0.754372       -20.5275 
   8   2.0000      -0.682341       -18.5674 
   9   2.0000      -0.632760       -17.2183 
  10   2.0000      -0.527730       -14.3603 
  11   2.0000      -0.504117       -13.7177 
  12   2.0000      -0.489861       -13.3298 
  13   2.0000      -0.465708       -12.6726 
  14   2.0000      -0.437217       -11.8973 
  15   2.0000      -0.422834       -11.5059 
  16   2.0000      -0.407085       -11.0774 
  17   2.0000      -0.389280       -10.5928 
  18   2.0000      -0.367838       -10.0094 
  19   2.0000      -0.366292        -9.9673 
  20   2.0000      -0.358201        -9.7471 
  21   0.0000       0.138412         3.7664 
  22   0.0000       0.160658         4.3717 
  23   0.0000       0.177549         4.8314 
  24   0.0000       0.190657         5.1880 
  25   0.0000       0.204855         5.5744 
  26   0.0000       0.207089         5.6352 
  27   0.0000       0.212168         5.7734 
  28   0.0000       0.224278         6.1029 
  29   0.0000       0.233100         6.3430 
  30   0.0000       0.237465         6.4617 
  31   0.0000       0.246283         6.7017 
  32   0.0000       0.261762         7.1229 
  33   0.0000       0.275438         7.4950 
  34   0.0000       0.281111         7.6494 
  35   0.0000       0.294469         8.0129 
  36   0.0000       0.310487         8.4488 
  37   0.0000       0.489031        13.3072 
  38   0.0000       0.511613        13.9217 
  39   0.0000       0.523872        14.2553 
  40   0.0000       0.526546        14.3280 
  41   0.0000       0.546024        14.8581 
  42   0.0000       0.550857        14.9896 
  43   0.0000       0.573992        15.6191 
  44   0.0000       0.657044        17.8791 
  45   0.0000       0.670326        18.2405 
  46   0.0000       0.686281        18.6747 
  47   0.0000       0.701316        19.0838 
  48   0.0000       0.706840        19.2341 
  49   0.0000       0.781919        21.2771 
  50   0.0000       0.861212        23.4348 
  51   0.0000       0.895748        24.3745 
  52   0.0000       0.971539        26.4369 
  53   0.0000       0.993583        27.0368 
  54   0.0000       1.008046        27.4303 
  55   0.0000       1.037042        28.2193 
  56   0.0000       1.039385        28.2831 
  57   0.0000       1.057333        28.7715 
  58   0.0000       1.061190        28.8765 
  59   0.0000       1.064296        28.9610 
  60   0.0000       1.077763        29.3274 
  61   0.0000       1.085371        29.5344 
  62   0.0000       1.096491        29.8370 
  63   0.0000       1.101018        29.9602 
  64   0.0000       1.137104        30.9422 
  65   0.0000       1.279263        34.8105 
  66   0.0000       1.421620        38.6842 
  67   0.0000       1.476491        40.1774 
  68   0.0000       1.495299        40.6891 
  69   0.0000       1.531616        41.6774 
  70   0.0000       1.606485        43.7147 
  71   0.0000       1.647589        44.8332 
  72   0.0000       1.738811        47.3154 
  73   0.0000       1.860834        50.6359 
  74   0.0000       1.899658        51.6923 
  75   0.0000       1.969584        53.5951 
  76   0.0000       1.993348        54.2418 
  77   0.0000       2.022769        55.0423 
  78   0.0000       2.038823        55.4792 
  79   0.0000       2.050882        55.8073 
  80   0.0000       2.110203        57.4215 
  81   0.0000       2.202434        59.9313 
  82   0.0000       2.245532        61.1040 
  83   0.0000       2.316108        63.0245 
  84   0.0000       2.386748        64.9467 
  85   0.0000       2.396976        65.2250 
  86   0.0000       2.429200        66.1019 
  87   0.0000       2.436658        66.3048 
  88   0.0000       2.490955        67.7823 
  89   0.0000       2.534947        68.9794 
  90   0.0000       2.622413        71.3595 
  91   0.0000       2.666973        72.5720 
  92   0.0000       2.766594        75.2828 
  93   0.0000       2.812025        76.5191 
  94   0.0000      13.552987       368.7955 
  95   0.0000      13.740495       373.8979 
  96   0.0000      13.912098       378.5674 
  97   0.0000      14.010285       381.2392 
  98   0.0000      14.068162       382.8141 

                    ********************************
                    * MULLIKEN POPULATION ANALYSIS *
                    ********************************

-----------------------
MULLIKEN ATOMIC CHARGES
-----------------------
   0 C :   -0.636536
   1 C :   -0.416876
   2 C :   -0.401154
   3 C :   -0.416977
   4 C :   -0.646017
   5 H :    0.218331
   6 H :    0.204254
   7 H :    0.214062
   8 H :    0.208973
   9 H :    0.208373
  10 H :    0.208313
  11 H :    0.199475
  12 H :    0.203587
  13 H :    0.210337
  14 H :    0.220242
  15 H :    0.213785
  16 H :    0.207828
Sum of atomic charges:    0.0000000

--------------------------------
MULLIKEN REDUCED ORBITAL CHARGES
--------------------------------
  0 C s       :     3.374266  s :     3.374266
      pz      :     1.110886  p :     3.224980
      px      :     0.987061
      py      :     1.127032
      dz2     :     0.012026  d :     0.037290
      dxz     :     0.004980
      dyz     :     0.003287
      dx2y2   :     0.006832
      dxy     :     0.010165
  1 C s       :     3.318144  s :     3.318144
      pz      :     1.080325  p :     3.054604
      px      :     0.928406
      py      :     1.045873
      dz2     :     0.014553  d :     0.044128
      dxz     :     0.005556
      dyz     :     0.003697
      dx2y2   :     0.010929
      dxy     :     0.009393
  2 C s       :     3.317398  s :     3.317398
      pz      :     1.070820  p :     3.039737
      px      :     0.929309
      py      :     1.039608
      dz2     :     0.014887  d :     0.044019
      dxz     :     0.005536
      dyz     :     0.003294
      dx2y2   :     0.010288
      dxy     :     0.010014
  3 C s       :     3.321673  s :     3.321673
      pz      :     1.087845  p :     3.051211
      px      :     0.953531
      py      :     1.009835
      dz2     :     0.013953  d :     0.044094
      dxz     :     0.005125
      dyz     :     0.004806
      dx2y2   :     0.008528
      dxy     :     0.011682
  4 C s       :     3.374678  s :     3.374678
      pz      :     1.111682  p :     3.234164
      px      :     1.102617
      py      :     1.019865
      dz2     :     0.011684  d :     0.037175
      dxz     :     0.003101
      dyz     :     0.005550
      dx2y2   :     0.010118
      dxy     :     0.006722
  5 H s       :     0.781669  s :     0.781669
  6 H s       :     0.795746  s :     0.795746
  7 H s       :     0.785938  s :     0.785938
  8 H s       :     0.791027  s :     0.791027
  9 H s       :     0.791627  s :     0.791627
 10 H s       :     0.791687  s :     0.791687
 11 H s       :     0.800525  s :     0.800525
 12 H s       :     0.796413  s :     0.796413
 13 H s       :     0.789663  s :     0.789663
 14 H s       :     0.779758  s :     0.779758
 15 H s       :     0.786215  s :     0.786215
 16 H s       :     0.792172  s :     0.792172


                     *******************************
                     * LOEWDIN POPULATION ANALYSIS *
                     *******************************

----------------------
LOEWDIN ATOMIC CHARGES
----------------------
   0 C :   -0.361230
   1 C :   -0.248340
   2 C :   -0.242249
   3 C :   -0.246355
   4 C :   -0.364955
   5 H :    0.125594
   6 H :    0.119022
   7 H :    0.122057
   8 H :    0.123511
   9 H :    0.122814
  10 H :    0.120650
  11 H :    0.117954
  12 H :    0.118771
  13 H :    0.120013
  14 H :    0.126457
  15 H :    0.123339
  16 H :    0.122946

-------------------------------
LOEWDIN REDUCED ORBITAL CHARGES
-------------------------------
  0 C s       :     2.950787  s :     2.950787
      pz      :     1.128591  p :     3.340852
      px      :     1.081160
      py      :     1.131101
      dz2     :     0.021130  d :     0.069591
      dxz     :     0.010340
      dyz     :     0.005173
      dx2y2   :     0.014063
      dxy     :     0.018885
  1 C s       :     2.908545  s :     2.908545
      pz      :     1.101201  p :     3.249911
      px      :     1.053527
      py      :     1.095183
      dz2     :     0.026861  d :     0.089884
      dxz     :     0.012410
      dyz     :     0.007158
      dx2y2   :     0.023141
      dxy     :     0.020314
  2 C s       :     2.911254  s :     2.911254
      pz      :     1.099323  p :     3.241264
      px      :     1.053565
      py      :     1.088375
      dz2     :     0.027384  d :     0.089731
      dxz     :     0.012470
      dyz     :     0.006579
      dx2y2   :     0.021867
      dxy     :     0.021432
  3 C s       :     2.908778  s :     2.908778
      pz      :     1.103488  p :     3.247753
      px      :     1.063000
      py      :     1.081265
      dz2     :     0.025793  d :     0.089824
      dxz     :     0.011020
      dyz     :     0.009300
      dx2y2   :     0.019423
      dxy     :     0.024288
  4 C s       :     2.951090  s :     2.951090
      pz      :     1.127814  p :     3.344506
      px      :     1.117243
      py      :     1.099449
      dz2     :     0.020564  d :     0.069359
      dxz     :     0.005281
      dyz     :     0.010803
      dx2y2   :     0.019001
      dxy     :     0.013709
  5 H s       :     0.874406  s :     0.874406
  6 H s       :     0.880978  s :     0.880978
  7 H s       :     0.877943  s :     0.877943
  8 H s       :     0.876489  s :     0.876489
  9 H s       :     0.877186  s :     0.877186
 10 H s       :     0.879350  s :     0.879350
 11 H s       :     0.882046  s :     0.882046
 12 H s       :     0.881229  s :     0.881229
 13 H s       :     0.879987  s :     0.879987
 14 H s       :     0.873543  s :     0.873543
 15 H s       :     0.876661  s :     0.876661
 16 H s       :     0.877054  s :     0.877054


                      *****************************
                      * MAYER POPULATION ANALYSIS *
                      *****************************

  NA   - Mulliken gross atomic population
  ZA   - Total nuclear charge
  QA   - Mulliken gross atomic charge
  VA   - Mayer's total valence
  BVA  - Mayer's bonded valence
  FA   - Mayer's free valence

  ATOM       NA         ZA         QA         VA         BVA        FA
  0 C      6.6365     6.0000    -0.6365     3.7458     3.7458     0.0000
  1 C      6.4169     6.0000    -0.4169     3.7497     3.7497     0.0000
  2 C      6.4012     6.0000    -0.4012     3.7282     3.7282     0.0000
  3 C      6.4170     6.0000    -0.4170     3.7589     3.7589    -0.0000
  4 C      6.6460     6.0000    -0.6460     3.7366     3.7366     0.0000
  5 H      0.7817     1.0000     0.2183     0.9135     0.9135     0.0000
  6 H      0.7957     1.0000     0.2043     0.9091     0.9091    -0.0000
  7 H      0.7859     1.0000     0.2141     0.9066     0.9066     0.0000
  8 H      0.7910     1.0000     0.2090     0.9143     0.9143     0.0000
  9 H      0.7916     1.0000     0.2084     0.9150     0.9150     0.0000
 10 H      0.7917     1.0000     0.2083     0.9101     0.9101    -0.0000
 11 H      0.8005     1.0000     0.1995     0.9120     0.9120    -0.0000
 12 H      0.7964     1.0000     0.2036     0.9095     0.9095    -0.0000
 13 H      0.7897     1.0000     0.2103     0.9073     0.9073     0.0000
 14 H      0.7798     1.0000     0.2202     0.9124     0.9124     0.0000
 15 H      0.7862     1.0000     0.2138     0.9136     0.9136     0.0000
 16 H      0.7922     1.0000     0.2078     0.9152     0.9152     0.0000

  Mayer bond orders larger than 0.100000
B(  0-C ,  1-C ) :   0.9982 B(  0-C ,  5-H ) :   0.9326 B(  0-C ,  8-H ) :   0.9294 
B(  0-C ,  9-H ) :   0.9298 B(  1-C ,  2-C ) :   0.9827 B(  1-C , 12-H ) :   0.9206 
B(  1-C , 13-H ) :   0.9180 B(  2-C ,  3-C ) :   0.9944 B(  2-C , 10-H ) :   0.9234 
B(  2-C , 11-H ) :   0.9184 B(  3-C ,  4-C ) :   0.9902 B(  3-C ,  6-H ) :   0.9204 
B(  3-C ,  7-H ) :   0.9255 B(  4-C , 14-H ) :   0.9312 B(  4-C , 15-H ) :   0.9270 
B(  4-C , 16-H ) :   0.9295 

-------
TIMINGS
-------

Total SCF time: 0 days 0 hours 1 min 14 sec 

Total time                  ....      74.517 sec
Sum of individual times     ....      66.800 sec  ( 89.6%)

Fock matrix formation       ....      52.731 sec  ( 70.8%)
  Split-RI-J                ....       6.497 sec  ( 12.3% of F)
  Chain of spheres X        ....      16.696 sec  ( 31.7% of F)
  XC integration            ....      14.327 sec  ( 27.2% of F)
    Basis function eval.    ....       2.027 sec  ( 14.2% of XC)
    Density eval.           ....       1.185 sec  (  8.3% of XC)
    XC-Functional eval.     ....       0.975 sec  (  6.8% of XC)
    XC-Potential eval.      ....       0.767 sec  (  5.4% of XC)
Diagonalization             ....       0.739 sec  (  1.0%)
Density matrix formation    ....       0.186 sec  (  0.3%)
Population analysis         ....       0.761 sec  (  1.0%)
Initial guess               ....       0.007 sec  (  0.0%)
Orbital Transformation      ....       0.000 sec  (  0.0%)
Orbital Orthonormalization  ....       0.000 sec  (  0.0%)
DIIS solution               ....       1.403 sec  (  1.9%)
SOSCF solution              ....       1.122 sec  (  1.5%)
Grid generation             ....       9.851 sec  ( 13.2%)

Maximum memory used throughout the entire SCF-calculation: 52.5 MB


-------------------------------------------------------------------------------
                          DFT DISPERSION CORRECTION                            
                                                                               
                              DFTD3 V3.1  Rev 1                                
                          USING Becke-Johnson damping                          
-------------------------------------------------------------------------------
The PBEh-3c composite method is recognized
Using three-body term ABC
Active option DFTDOPT                   ...         4   

molecular C6(AA) [au] = 1797.868952 


            DFT-D V3
 parameters
 s6 scaling factor         :     1.0000 
 a1 scaling factor         :     0.4860 
 s8 scaling factor         :     0.0000 
 a2 scaling factor         :     4.5000 
 Damping factor alpha9(ATM):    16.0000 
 ad hoc parameters k1-k3   :    16.0000     1.3333    -4.0000 

 Edisp/kcal,au: -4.404737114875  -0.007019394650 
 E6   /kcal   :  -4.421660021 
 E8   /kcal   :  -0.000000000 
 E6(ABC)      :   0.016922906 
 % E8         :   0.000000000 
 % E6(ABC)    :  -0.384197859 

-------------------------   ----------------
Dispersion correction           -0.007019395
-------------------------   ----------------

------------------   -----------------
gCP correction             0.022373546
------------------   -----------------

-------------------------   --------------------
FINAL SINGLE POINT ENERGY      -197.333186851764
-------------------------   --------------------


                            ***************************************
                            *     ORCA property calculations      *
                            ***************************************

                                    ---------------------
                                    Active property flags
                                    ---------------------
   (+) Dipole Moment


------------------------------------------------------------------------------
                       ORCA ELECTRIC PROPERTIES CALCULATION
------------------------------------------------------------------------------

Dipole Moment Calculation                       ... on
Quadrupole Moment Calculation                   ... off
Polarizability Calculation                      ... off
GBWName                                         ... pbeh-3c.gbw
Electron density                                ... pbeh-3c.scfp
The origin for moment calculation is the CENTER OF MASS  = (-0.029646,  0.069759 -0.028770)

-------------
DIPOLE MOMENT
-------------
                                X             Y             Z
Electronic contribution:     -0.28487       0.65620      -0.27519
Nuclear contribution   :      0.27313      -0.64270       0.26506
                        -----------------------------------------
Total Dipole Moment    :     -0.01174       0.01351      -0.01013
                        -----------------------------------------
Magnitude (a.u.)       :      0.02056
Magnitude (Debye)      :      0.05227



--------------------
Rotational spectrum 
--------------------
 
Rotational constants in cm-1:     0.391746     0.077450     0.071367 
Rotational constants in MHz : 11744.236088  2321.879658  2139.525920 

 Dipole components along the rotational axes: 
x,y,z [a.u.] :     0.011801     0.013434    -0.010152 
x,y,z [Debye]:     0.029996     0.034147    -0.025803 

 

Timings for individual modules:

Sum of individual times         ...       78.243 sec (=   1.304 min)
GTO integral calculation        ...        2.907 sec (=   0.048 min)   3.7 %
SCF iterations                  ...       75.336 sec (=   1.256 min)  96.3 %
                             ****ORCA TERMINATED NORMALLY****
TOTAL RUN TIME: 0 days 0 hours 1 minutes 21 seconds 583 msec
