
                                 *****************
                                 * O   R   C   A *
                                 *****************

                                            #,                                       
                                            ###                                      
                                            ####                                     
                                            #####                                    
                                            ######                                   
                                           ########,                                 
                                     ,,################,,,,,                         
                               ,,#################################,,                 
                          ,,##########################################,,             
                       ,#########################################, ''#####,          
                    ,#############################################,,   '####,        
                  ,##################################################,,,,####,       
                ,###########''''           ''''###############################       
              ,#####''   ,,,,##########,,,,          '''####'''          '####       
            ,##' ,,,,###########################,,,                        '##       
           ' ,,###''''                  '''############,,,                           
         ,,##''                                '''############,,,,        ,,,,,,###''
      ,#''                                            '''#######################'''  
     '                                                          ''''####''''         
             ,#######,   #######,   ,#######,      ##                                
            ,#'     '#,  ##    ##  ,#'     '#,    #''#        ######   ,####,        
            ##       ##  ##   ,#'  ##            #'  '#       #        #'  '#        
            ##       ##  #######   ##           ,######,      #####,   #    #        
            '#,     ,#'  ##    ##  '#,     ,#' ,#      #,         ##   #,  ,#        
             '#######'   ##     ##  '#######'  #'      '#     #####' # '####'        



                  #######################################################
                  #                        -***-                        #
                  #          Department of theory and spectroscopy      #
                  #    Directorship and core code : Frank Neese         #
                  #        Max Planck Institute fuer Kohlenforschung    #
                  #                Kaiser Wilhelm Platz 1               #
                  #                 D-45470 Muelheim/Ruhr               #
                  #                      Germany                        #
                  #                                                     #
                  #                  All rights reserved                #
                  #                        -***-                        #
                  #######################################################


                         Program Version 5.0.3 -  RELEASE  -


 With contributions from (in alphabetic order):
   Daniel Aravena         : Magnetic Suceptibility
   Michael Atanasov       : Ab Initio Ligand Field Theory (pilot matlab implementation)
   Alexander A. Auer      : GIAO ZORA, VPT2 properties, NMR spectrum
   Ute Becker             : Parallelization
   Giovanni Bistoni       : ED, misc. LED, open-shell LED, HFLD
   Martin Brehm           : Molecular dynamics
   Dmytro Bykov           : SCF Hessian
   Vijay G. Chilkuri      : MRCI spin determinant printing, contributions to CSF-ICE
   Dipayan Datta          : RHF DLPNO-CCSD density
   Achintya Kumar Dutta   : EOM-CC, STEOM-CC
   Dmitry Ganyushin       : Spin-Orbit,Spin-Spin,Magnetic field MRCI
   Miquel Garcia          : C-PCM and meta-GGA Hessian, CC/C-PCM, Gaussian charge scheme
   Yang Guo               : DLPNO-NEVPT2, F12-NEVPT2, CIM, IAO-localization
   Andreas Hansen         : Spin unrestricted coupled pair/coupled cluster methods
   Benjamin Helmich-Paris : MC-RPA, TRAH-SCF, COSX integrals
   Lee Huntington         : MR-EOM, pCC
   Robert Izsak           : Overlap fitted RIJCOSX, COSX-SCS-MP3, EOM
   Marcus Kettner         : VPT2
   Christian Kollmar      : KDIIS, OOCD, Brueckner-CCSD(T), CCSD density, CASPT2, CASPT2-K
   Simone Kossmann        : Meta GGA functionals, TD-DFT gradient, OOMP2, MP2 Hessian
   Martin Krupicka        : Initial AUTO-CI
   Lucas Lang             : DCDCAS
   Marvin Lechner         : AUTO-CI (C++ implementation), FIC-MRCC
   Dagmar Lenk            : GEPOL surface, SMD
   Dimitrios Liakos       : Extrapolation schemes; Compound Job, initial MDCI parallelization
   Dimitrios Manganas     : Further ROCIS development; embedding schemes
   Dimitrios Pantazis     : SARC Basis sets
   Anastasios Papadopoulos: AUTO-CI, single reference methods and gradients
   Taras Petrenko         : DFT Hessian,TD-DFT gradient, ASA, ECA, R-Raman, ABS, FL, XAS/XES, NRVS
   Peter Pinski           : DLPNO-MP2, DLPNO-MP2 Gradient
   Christoph Reimann      : Effective Core Potentials
   Marius Retegan         : Local ZFS, SOC
   Christoph Riplinger    : Optimizer, TS searches, QM/MM, DLPNO-CCSD(T), (RO)-DLPNO pert. Triples
   Tobias Risthaus        : Range-separated hybrids, TD-DFT gradient, RPA, STAB
   Michael Roemelt        : Original ROCIS implementation
   Masaaki Saitow         : Open-shell DLPNO-CCSD energy and density
   Barbara Sandhoefer     : DKH picture change effects
   Avijit Sen             : IP-ROCIS
   Kantharuban Sivalingam : CASSCF convergence, NEVPT2, FIC-MRCI
   Bernardo de Souza      : ESD, SOC TD-DFT
   Georgi Stoychev        : AutoAux, RI-MP2 NMR, DLPNO-MP2 response
   Willem Van den Heuvel  : Paramagnetic NMR
   Boris Wezisla          : Elementary symmetry handling
   Frank Wennmohs         : Technical directorship


 We gratefully acknowledge several colleagues who have allowed us to
 interface, adapt or use parts of their codes:
   Stefan Grimme, W. Hujo, H. Kruse, P. Pracht,  : VdW corrections, initial TS optimization,
                  C. Bannwarth, S. Ehlert          DFT functionals, gCP, sTDA/sTD-DF
   Ed Valeev, F. Pavosevic, A. Kumar             : LibInt (2-el integral package), F12 methods
   Garnet Chan, S. Sharma, J. Yang, R. Olivares  : DMRG
   Ulf Ekstrom                                   : XCFun DFT Library
   Mihaly Kallay                                 : mrcc  (arbitrary order and MRCC methods)
   Jiri Pittner, Ondrej Demel                    : Mk-CCSD
   Frank Weinhold                                : gennbo (NPA and NBO analysis)
   Christopher J. Cramer and Donald G. Truhlar   : smd solvation model
   Lars Goerigk                                  : TD-DFT with DH, B97 family of functionals
   V. Asgeirsson, H. Jonsson                     : NEB implementation
   FAccTs GmbH                                   : IRC, NEB, NEB-TS, DLPNO-Multilevel, CI-OPT
                                                   MM, QMMM, 2- and 3-layer-ONIOM, Crystal-QMMM,
                                                   LR-CPCM, SF, NACMEs, symmetry and pop. for TD-DFT,
                                                   nearIR, NL-DFT gradient (VV10), updates on ESD,
                                                   ML-optimized integration grids
   S Lehtola, MJT Oliveira, MAL Marques          : LibXC Library
   Liviu Ungur et al                             : ANISO software


 Your calculation uses the libint2 library for the computation of 2-el integrals
 For citations please refer to: http://libint.valeyev.net

 Your ORCA version has been built with support for libXC version: 5.1.0
 For citations please refer to: https://tddft.org/programs/libxc/

 This ORCA versions uses:
   CBLAS   interface :  Fast vector & matrix operations
   LAPACKE interface :  Fast linear algebra routines
   SCALAPACK package :  Parallel linear algebra routines
   Shared memory     :  Shared parallel matrices
   BLAS/LAPACK       :  OpenBLAS 0.3.15  USE64BITINT DYNAMIC_ARCH NO_AFFINITY Haswell SINGLE_THREADED
        Core in use  :  Haswell
   Copyright (c) 2011-2014, The OpenBLAS Project




***************************************
The coordinates will be read from file: 3.xyz
***************************************


Your calculation utilizes the geometrical counterpoise correction gCP
Please cite in your paper:
H.Kruse, S. Grimme J.Chem.Phys., 136, (2012), 154101 
   

Your calculation utilizes the atom-pairwise dispersion correction
with the Becke-Johnson damping scheme (D3BJ)
Cite in your paper:
S.Grimme, S.Ehrlich, L.Goerigk, J Comput Chem, (2011), 32, 1456–1465 
S.Grimme, J.Antony, S.Ehrlich and H.Krieg, J.Chem.Phys., 132, (2010), 154104 
   

Your calculation employs the composite approach PBEh-3c.
Please cite in your paper:
S. Grimme, J. G. Brandenburg, C. Bannwarth, A. Hansen J.Chem.Phys., 143, (2015), 054107 
   

================================================================================

----- Orbital basis set information -----
Your calculation utilizes the basis: def2-mSVP

----- AuxJ basis set information -----
Your calculation utilizes the auxiliary basis: def2/J
   F. Weigend, Phys. Chem. Chem. Phys. 8, 1057 (2006).

================================================================================
                                        WARNINGS
                       Please study these warnings very carefully!
================================================================================


INFO   : the flag for use of the SHARK integral package has been found!

================================================================================
                                       INPUT FILE
================================================================================
NAME = pbeh-3c.inp
|  1> ! PBEh-3c def2/J TightSCF DefGrid3
|  2> 
|  3> %maxcore 60000
|  4> 
|  5> %pal
|  6> nprocs 4
|  7> end
|  8> 
|  9> *xyzfile 0 1 3.xyz
| 10> 
| 11>                          ****END OF INPUT****
================================================================================

                       ****************************
                       * Single Point Calculation *
                       ****************************

---------------------------------
CARTESIAN COORDINATES (ANGSTROEM)
---------------------------------
  C     -0.646760   -2.662162   -2.625563
  C     -1.182957   -1.424911   -3.054357
  C     -0.059627   -0.620007   -3.542257
  C      0.814718   -2.582863   -2.658136
  C      1.179625   -1.338532   -3.224850
  C      1.328804   -3.040346   -1.425381
  C     -1.036707   -3.290280   -1.422302
  C      0.197468   -3.613935   -0.685812
  C     -2.131020   -2.751351   -0.731275
  C     -2.248938   -0.806035   -2.313179
  C     -2.752591   -1.540842   -1.192012
  C     -2.328706    0.663067   -2.280438
  C     -0.098035    0.753417   -3.424581
  C     -1.266535    1.424334   -2.866693
  C      1.092260    1.497737   -3.026350
  C      2.250497   -0.647792   -2.648217
  C      2.233832    0.803541   -2.608854
  C      2.345255   -2.280764   -0.736547
  C      2.854745   -1.135139   -1.423604
  C      2.345255   -2.280764    0.736547
  C      0.197468   -3.613935    0.685812
  C      1.328804   -3.040346    1.425381
  C     -2.131020   -2.751351    0.731275
  C     -1.036707   -3.290280    1.422302
  C     -3.227588   -0.845434    0.000000
  C     -2.752591   -1.540842    1.192012
  C     -3.032091    1.285986   -1.192667
  C     -3.390598    0.512301    0.000000
  C     -2.658218    2.564331   -0.733290
  C     -0.807341    2.660723   -2.277662
  C      0.648347    2.667347   -2.303413
  C     -1.486533    3.220918   -1.183984
  C      1.360611    3.110554   -1.180695
  C      2.937839    1.228483   -1.420571
  C      3.327509    0.028159   -0.693781
  C      2.520653    2.368268   -0.727244
  C      2.854745   -1.135139    1.423604
  C      3.327509    0.028159    0.693781
  C      2.250497   -0.647792    2.648217
  C      0.814718   -2.582863    2.658136
  C     -0.646760   -2.662162    2.625563
  C      1.179625   -1.338532    3.224850
  C     -2.248938   -0.806035    2.313179
  C     -1.182957   -1.424911    3.054357
  C     -0.059627   -0.620007    3.542257
  C     -3.032091    1.285986    1.192667
  C     -2.658218    2.564331    0.733290
  C     -2.328706    0.663067    2.280438
  C     -0.741467    3.662714    0.000000
  C      0.647448    3.586610    0.000000
  C     -1.486533    3.220918    1.183984
  C      2.520653    2.368268    0.727244
  C      2.937839    1.228483    1.420571
  C      2.233832    0.803541    2.608854
  C      1.360611    3.110554    1.180695
  C     -0.098035    0.753417    3.424581
  C     -1.266535    1.424334    2.866693
  C     -0.807341    2.660723    2.277662
  C      1.092260    1.497737    3.026350
  C      0.648347    2.667347    2.303413

----------------------------
CARTESIAN COORDINATES (A.U.)
----------------------------
  NO LB      ZA    FRAG     MASS         X           Y           Z
   0 C     6.0000    0    12.011   -1.222199   -5.030757   -4.961594
   1 C     6.0000    0    12.011   -2.235464   -2.692692   -5.771897
   2 C     6.0000    0    12.011   -0.112679   -1.171642   -6.693895
   3 C     6.0000    0    12.011    1.539594   -4.880904   -5.023149
   4 C     6.0000    0    12.011    2.229168   -2.529459   -6.094083
   5 C     6.0000    0    12.011    2.511075   -5.745421   -2.693580
   6 C     6.0000    0    12.011   -1.959093   -6.217729   -2.687762
   7 C     6.0000    0    12.011    0.373160   -6.829348   -1.295996
   8 C     6.0000    0    12.011   -4.027045   -5.199300   -1.381910
   9 C     6.0000    0    12.011   -4.249877   -1.523185   -4.371275
  10 C     6.0000    0    12.011   -5.201644   -2.911770   -2.252577
  11 C     6.0000    0    12.011   -4.400617    1.253015   -4.309404
  12 C     6.0000    0    12.011   -0.185259    1.423751   -6.471520
  13 C     6.0000    0    12.011   -2.393404    2.691601   -5.417265
  14 C     6.0000    0    12.011    2.064073    2.830313   -5.718973
  15 C     6.0000    0    12.011    4.252822   -1.224150   -5.004405
  16 C     6.0000    0    12.011    4.221331    1.518472   -4.930020
  17 C     6.0000    0    12.011    4.431890   -4.310020   -1.391872
  18 C     6.0000    0    12.011    5.394687   -2.145102   -2.690221
  19 C     6.0000    0    12.011    4.431890   -4.310020    1.391872
  20 C     6.0000    0    12.011    0.373160   -6.829348    1.295996
  21 C     6.0000    0    12.011    2.511075   -5.745421    2.693580
  22 C     6.0000    0    12.011   -4.027045   -5.199300    1.381910
  23 C     6.0000    0    12.011   -1.959093   -6.217729    2.687762
  24 C     6.0000    0    12.011   -6.099257   -1.597638    0.000000
  25 C     6.0000    0    12.011   -5.201644   -2.911770    2.252577
  26 C     6.0000    0    12.011   -5.729822    2.430161   -2.253813
  27 C     6.0000    0    12.011   -6.407302    0.968108    0.000000
  28 C     6.0000    0    12.011   -5.023304    4.845883   -1.385716
  29 C     6.0000    0    12.011   -1.525653    5.028038   -4.304158
  30 C     6.0000    0    12.011    1.225198    5.040555   -4.352820
  31 C     6.0000    0    12.011   -2.809139    6.086654   -2.237405
  32 C     6.0000    0    12.011    2.571182    5.878095   -2.231189
  33 C     6.0000    0    12.011    5.551711    2.321496   -2.684491
  34 C     6.0000    0    12.011    6.288080    0.053213   -1.311056
  35 C     6.0000    0    12.011    4.763344    4.475377   -1.374292
  36 C     6.0000    0    12.011    5.394687   -2.145102    2.690221
  37 C     6.0000    0    12.011    6.288080    0.053213    1.311056
  38 C     6.0000    0    12.011    4.252822   -1.224150    5.004405
  39 C     6.0000    0    12.011    1.539594   -4.880904    5.023149
  40 C     6.0000    0    12.011   -1.222199   -5.030757    4.961594
  41 C     6.0000    0    12.011    2.229168   -2.529459    6.094083
  42 C     6.0000    0    12.011   -4.249877   -1.523185    4.371275
  43 C     6.0000    0    12.011   -2.235464   -2.692692    5.771897
  44 C     6.0000    0    12.011   -0.112679   -1.171642    6.693895
  45 C     6.0000    0    12.011   -5.729822    2.430161    2.253813
  46 C     6.0000    0    12.011   -5.023304    4.845883    1.385716
  47 C     6.0000    0    12.011   -4.400617    1.253015    4.309404
  48 C     6.0000    0    12.011   -1.401170    6.921526    0.000000
  49 C     6.0000    0    12.011    1.223499    6.777712    0.000000
  50 C     6.0000    0    12.011   -2.809139    6.086654    2.237405
  51 C     6.0000    0    12.011    4.763344    4.475377    1.374292
  52 C     6.0000    0    12.011    5.551711    2.321496    2.684491
  53 C     6.0000    0    12.011    4.221331    1.518472    4.930020
  54 C     6.0000    0    12.011    2.571182    5.878095    2.231189
  55 C     6.0000    0    12.011   -0.185259    1.423751    6.471520
  56 C     6.0000    0    12.011   -2.393404    2.691601    5.417265
  57 C     6.0000    0    12.011   -1.525653    5.028038    4.304158
  58 C     6.0000    0    12.011    2.064073    2.830313    5.718973
  59 C     6.0000    0    12.011    1.225198    5.040555    4.352820

--------------------------------
INTERNAL COORDINATES (ANGSTROEM)
--------------------------------
 C      0   0   0     0.000000000000     0.00000000     0.00000000
 C      1   0   0     1.414977193175     0.00000000     0.00000000
 C      2   1   0     1.465533280366   106.89780052     0.00000000
 C      1   2   3     1.463989889479   108.91640434     7.89456902
 C      4   1   2     1.415161285227   108.29747186   354.66052530
 C      4   1   2     1.411827980639   109.05791764   130.44679428
 C      1   2   3     1.412241711645   122.85159541   136.37959370
 C      6   4   1     1.468294519825   106.60821548     8.88683573
 C      7   1   2     1.401957492747   117.67895744     9.12304361
 C      2   1   3     1.438286802147   120.06170859   218.40723564
 C     10   2   1     1.431999790703   116.31713047   357.03950918
 C     10   2   1     1.471629930977   118.76288381   148.31996555
 C      3   2   1     1.378990207447   119.81810071   211.07345998
 C     12  10   2     1.432280968586   118.76968046   353.48476517
 C     13   3   2     1.459247617361   120.56938379   138.74805139
 C      5   4   1     1.398711159217   117.81065132   139.16847117
 C     15  13   3     1.399785150167   119.58132406   352.42823428
 C      6   4   1     1.443825050318   120.16226400   227.06992322
 C     18   6   4     1.429714616475   116.30575767   355.03267021
 C     18   6   4     1.473093800000   118.49551747   146.47391065
 C      8   6   4     1.371623600000   120.24462593   208.25668390
 C     20  18   6     1.443825050318   118.49551747     0.00000000
 C      9   7   1     1.462550800000   119.53147012   216.03798698
 C     23   9   7     1.401957492747   119.53147012     0.00000000
 C     11  10   2     1.459489123332   120.62535796   146.24011173
 C     23   9   7     1.436649178662   108.70541934   143.39896335
 C     12  10   2     1.437367753864   118.42394760   202.91462192
 C     25  11  10     1.367484915326   120.78861080     9.86418387
 C     27  12  10     1.408890912749   120.67131785   150.11578410
 C     14  12  10     1.444463317572   121.58634965   217.26843872
 C     15  13   3     1.444882208761   107.38753084   210.83979323
 C     30  14  12     1.404013303251   120.35708282   353.43287196
 C     31  15  13     1.401516979579   120.04367883   141.31547372
 C     17  15  13     1.445066801884   119.78412386   225.76097598
 C     19  18   6     1.452380562058   121.08601435   149.49703795
 C     34  17  15     1.397803807050   120.14914424   356.81771940
 C     20  18   6     1.429714616475   118.72167415   209.25369649
 C     35  19  18     1.387562200000   120.16560392     1.90387528
 C     37  20  18     1.449931583187   121.78257336   142.50955107
 C     22  20  18     1.411827980639   120.16226400   213.52608935
 C     24  23   9     1.412241711645   117.67895744   143.96201302
 C     39  37  20     1.398711159217   120.08410051     3.12514013
 C     26  23   9     1.431999790703   122.09215623   220.23880485
 C     41  24  23     1.414977193175   122.85159541   350.87695639
 C     44  41  24     1.465533280366   106.89780052   223.62040630
 C     28  25  11     1.466141063096   119.65595020   218.65616953
 C     46  28  25     1.408890912749   106.16809052   151.20840119
 C     46  28  25     1.437367753864   120.43679889     9.36180572
 C     32  30  14     1.467011486423   120.20886117   131.49275332
 C     49  32  30     1.390998403685   119.38281843     3.37216727
 C     47  46  28     1.416714650896   122.42925215   226.67184807
 C     36  34  17     1.454488400000   119.73648312   139.76255355
 C     52  36  34     1.397803807050   119.73648312     0.00000000
 C     53  52  36     1.445066801884   120.14914424   220.23744645
 C     52  36  34     1.449932483173   108.22437167   217.28197693
 C     45  44  41     1.378990207447   119.81810071   148.92654002
 C     48  46  28     1.432280968586   116.25226760   137.56583067
 C     51  47  46     1.404013303251   117.57921583   349.62528805
 C     54  53  52     1.399785150167   119.78412386     3.18228060
 C     55  52  36     1.401516979579   119.68518384   141.54472834

---------------------------
INTERNAL COORDINATES (A.U.)
---------------------------
 C      0   0   0     0.000000000000     0.00000000     0.00000000
 C      1   0   0     2.673919380846     0.00000000     0.00000000
 C      2   1   0     2.769456540039   106.89780052     0.00000000
 C      1   2   3     2.766539953945   108.91640434     7.89456902
 C      4   1   2     2.674267264407   108.29747186   354.66052530
 C      4   1   2     2.667968231614   109.05791764   130.44679428
 C      1   2   3     2.668750069910   122.85159541   136.37959370
 C      6   4   1     2.774674526406   106.60821548     8.88683573
 C      7   1   2     2.649315712691   117.67895744     9.12304361
 C      2   1   3     2.717968158091   120.06170859   218.40723564
 C     10   2   1     2.706087428262   116.31713047   357.03950918
 C     10   2   1     2.780977540028   118.76288381   148.31996555
 C      3   2   1     2.605913833434   119.81810071   211.07345998
 C     12  10   2     2.706618777455   118.76968046   353.48476517
 C     13   3   2     2.757578358389   120.56938379   138.74805139
 C      5   4   1     2.643181031379   117.81065132   139.16847117
 C     15  13   3     2.645210580145   119.58132406   352.42823428
 C      6   4   1     2.728433930397   120.16226400   227.06992322
 C     18   6   4     2.701769074802   116.30575767   355.03267021
 C     18   6   4     2.783743851577   118.49551747   146.47391065
 C      8   6   4     2.591992962823   120.24462593   208.25668390
 C     20  18   6     2.728433930397   118.49551747     0.00000000
 C      9   7   1     2.763820468947   119.53147012   216.03798698
 C     23   9   7     2.649315712691   119.53147012     0.00000000
 C     11  10   2     2.758034738533   120.62535796   146.24011173
 C     23   9   7     2.714873498193   108.70541934   143.39896335
 C     12  10   2     2.716231408532   118.42394760   202.91462192
 C     25  11  10     2.584171982235   120.78861080     9.86418387
 C     27  12  10     2.662417977666   120.67131785   150.11578410
 C     14  12  10     2.729640080706   121.58634965   217.26843872
 C     15  13   3     2.730431670334   107.38753084   210.83979323
 C     30  14  12     2.653200631527   120.35708282   353.43287196
 C     31  15  13     2.648483263445   120.04367883   141.31547372
 C     17  15  13     2.730780500782   119.78412386   225.76097598
 C     19  18   6     2.744601504520   121.08601435   149.49703795
 C     34  17  15     2.641466384278   120.14914424   356.81771940
 C     20  18   6     2.701769074802   118.72167415   209.25369649
 C     35  19  18     2.622112551781   120.16560392     1.90387528
 C     37  20  18     2.739973605147   121.78257336   142.50955107
 C     22  20  18     2.667968231614   120.16226400   213.52608935
 C     24  23   9     2.668750069910   117.67895744   143.96201302
 C     39  37  20     2.643181031379   120.08410051     3.12514013
 C     26  23   9     2.706087428262   122.09215623   220.23880485
 C     41  24  23     2.673919380846   122.85159541   350.87695639
 C     44  41  24     2.769456540039   106.89780052   223.62040630
 C     28  25  11     2.770605082948   119.65595020   218.65616953
 C     46  28  25     2.662417977666   106.16809052   151.20840119
 C     46  28  25     2.716231408532   120.43679889     9.36180572
 C     32  30  14     2.772249944657   120.20886117   131.49275332
 C     49  32  30     2.628606035687   119.38281843     3.37216727
 C     47  46  28     2.677202700107   122.42925215   226.67184807
 C     36  34  17     2.748584740965   119.73648312   139.76255355
 C     52  36  34     2.641466384278   119.73648312     0.00000000
 C     53  52  36     2.730780500782   120.14914424   220.23744645
 C     52  36  34     2.739975305873   108.22437167   217.28197693
 C     45  44  41     2.605913833434   119.81810071   148.92654002
 C     48  46  28     2.706618777455   116.25226760   137.56583067
 C     51  47  46     2.653200631527   117.57921583   349.62528805
 C     54  53  52     2.645210580145   119.78412386     3.18228060
 C     55  52  36     2.648483263445   119.68518384   141.54472834

---------------------
BASIS SET INFORMATION
---------------------
There are 1 groups of distinct atoms

 Group   1 Type C   : 8s4p1d contracted to 4s2p1d pattern {5111/31/1}

Atom   0C    basis set group =>   1
Atom   1C    basis set group =>   1
Atom   2C    basis set group =>   1
Atom   3C    basis set group =>   1
Atom   4C    basis set group =>   1
Atom   5C    basis set group =>   1
Atom   6C    basis set group =>   1
Atom   7C    basis set group =>   1
Atom   8C    basis set group =>   1
Atom   9C    basis set group =>   1
Atom  10C    basis set group =>   1
Atom  11C    basis set group =>   1
Atom  12C    basis set group =>   1
Atom  13C    basis set group =>   1
Atom  14C    basis set group =>   1
Atom  15C    basis set group =>   1
Atom  16C    basis set group =>   1
Atom  17C    basis set group =>   1
Atom  18C    basis set group =>   1
Atom  19C    basis set group =>   1
Atom  20C    basis set group =>   1
Atom  21C    basis set group =>   1
Atom  22C    basis set group =>   1
Atom  23C    basis set group =>   1
Atom  24C    basis set group =>   1
Atom  25C    basis set group =>   1
Atom  26C    basis set group =>   1
Atom  27C    basis set group =>   1
Atom  28C    basis set group =>   1
Atom  29C    basis set group =>   1
Atom  30C    basis set group =>   1
Atom  31C    basis set group =>   1
Atom  32C    basis set group =>   1
Atom  33C    basis set group =>   1
Atom  34C    basis set group =>   1
Atom  35C    basis set group =>   1
Atom  36C    basis set group =>   1
Atom  37C    basis set group =>   1
Atom  38C    basis set group =>   1
Atom  39C    basis set group =>   1
Atom  40C    basis set group =>   1
Atom  41C    basis set group =>   1
Atom  42C    basis set group =>   1
Atom  43C    basis set group =>   1
Atom  44C    basis set group =>   1
Atom  45C    basis set group =>   1
Atom  46C    basis set group =>   1
Atom  47C    basis set group =>   1
Atom  48C    basis set group =>   1
Atom  49C    basis set group =>   1
Atom  50C    basis set group =>   1
Atom  51C    basis set group =>   1
Atom  52C    basis set group =>   1
Atom  53C    basis set group =>   1
Atom  54C    basis set group =>   1
Atom  55C    basis set group =>   1
Atom  56C    basis set group =>   1
Atom  57C    basis set group =>   1
Atom  58C    basis set group =>   1
Atom  59C    basis set group =>   1
---------------------------------
AUXILIARY/J BASIS SET INFORMATION
---------------------------------
There are 1 groups of distinct atoms

 Group   1 Type C   : 12s5p4d2f1g contracted to 6s4p3d1f1g pattern {711111/2111/211/2/1}

Atom   0C    basis set group =>   1
Atom   1C    basis set group =>   1
Atom   2C    basis set group =>   1
Atom   3C    basis set group =>   1
Atom   4C    basis set group =>   1
Atom   5C    basis set group =>   1
Atom   6C    basis set group =>   1
Atom   7C    basis set group =>   1
Atom   8C    basis set group =>   1
Atom   9C    basis set group =>   1
Atom  10C    basis set group =>   1
Atom  11C    basis set group =>   1
Atom  12C    basis set group =>   1
Atom  13C    basis set group =>   1
Atom  14C    basis set group =>   1
Atom  15C    basis set group =>   1
Atom  16C    basis set group =>   1
Atom  17C    basis set group =>   1
Atom  18C    basis set group =>   1
Atom  19C    basis set group =>   1
Atom  20C    basis set group =>   1
Atom  21C    basis set group =>   1
Atom  22C    basis set group =>   1
Atom  23C    basis set group =>   1
Atom  24C    basis set group =>   1
Atom  25C    basis set group =>   1
Atom  26C    basis set group =>   1
Atom  27C    basis set group =>   1
Atom  28C    basis set group =>   1
Atom  29C    basis set group =>   1
Atom  30C    basis set group =>   1
Atom  31C    basis set group =>   1
Atom  32C    basis set group =>   1
Atom  33C    basis set group =>   1
Atom  34C    basis set group =>   1
Atom  35C    basis set group =>   1
Atom  36C    basis set group =>   1
Atom  37C    basis set group =>   1
Atom  38C    basis set group =>   1
Atom  39C    basis set group =>   1
Atom  40C    basis set group =>   1
Atom  41C    basis set group =>   1
Atom  42C    basis set group =>   1
Atom  43C    basis set group =>   1
Atom  44C    basis set group =>   1
Atom  45C    basis set group =>   1
Atom  46C    basis set group =>   1
Atom  47C    basis set group =>   1
Atom  48C    basis set group =>   1
Atom  49C    basis set group =>   1
Atom  50C    basis set group =>   1
Atom  51C    basis set group =>   1
Atom  52C    basis set group =>   1
Atom  53C    basis set group =>   1
Atom  54C    basis set group =>   1
Atom  55C    basis set group =>   1
Atom  56C    basis set group =>   1
Atom  57C    basis set group =>   1
Atom  58C    basis set group =>   1
Atom  59C    basis set group =>   1


           ************************************************************
           *        Program running with 4 parallel MPI-processes     *
           *              working on a common directory               *
           ************************************************************
------------------------------------------------------------------------------
                           ORCA GTO INTEGRAL CALCULATION
                           -- RI-GTO INTEGRALS CHOSEN --
------------------------------------------------------------------------------
------------------------------------------------------------------------------
                   ___                                                        
                  /   \      - P O W E R E D   B Y -                         
                 /     \                                                     
                 |  |  |   _    _      __       _____    __    __             
                 |  |  |  | |  | |    /  \     |  _  \  |  |  /  |          
                  \  \/   | |  | |   /    \    | | | |  |  | /  /          
                 / \  \   | |__| |  /  /\  \   | |_| |  |  |/  /          
                |  |  |   |  __  | /  /__\  \  |    /   |      \           
                |  |  |   | |  | | |   __   |  |    \   |  |\   \          
                \     /   | |  | | |  |  |  |  | |\  \  |  | \   \       
                 \___/    |_|  |_| |__|  |__|  |_| \__\ |__|  \__/        
                                                                              
                      - O R C A' S   B I G   F R I E N D -                    
                                      &                                       
                       - I N T E G R A L  F E E D E R -                       
                                                                              
 v1 FN, 2020, v2 2021                                                         
------------------------------------------------------------------------------


Reading SHARK input file pbeh-3c.SHARKINP.tmp ... ok
----------------------
SHARK INTEGRAL PACKAGE
----------------------

Number of atoms                             ...     60
Number of basis functions                   ...    900
Number of shells                            ...    420
Maximum angular momentum                    ...      2
Integral batch strategy                     ... SHARK/LIBINT Hybrid
RI-J (if used) integral strategy            ... SPLIT-RIJ (Revised 2003 algorithm where possible)
Printlevel                                  ...      1
Contraction scheme used                     ... SEGMENTED contraction
Coulomb Range Separation                    ... NOT USED
Exchange Range Separation                   ... NOT USED
Finite Nucleus Model                        ... NOT USED
Auxiliary Coulomb fitting basis             ... AVAILABLE
   # of basis functions in Aux-J            ...   2940
   # of shells in Aux-J                     ...    900
   Maximum angular momentum in Aux-J        ...      4
Auxiliary J/K fitting basis                 ... NOT available
Auxiliary Correlation fitting basis         ... NOT available
Auxiliary 'external' fitting basis          ... NOT available
Integral threshold                          ...     2.500000e-11
Primitive cut-off                           ...     2.500000e-12
Primitive pair pre-selection threshold      ...     2.500000e-12

Calculating pre-screening integrals         ... done (  0.3 sec) Dimension = 420
Organizing shell pair data                  ... done (  3.0 sec)
Shell pair information
Total number of shell pairs                 ...     88410
Shell pairs after pre-screening             ...     56892
Total number of primitive shell pairs       ...    305370
Primitive shell pairs kept                  ...    119343
          la=0 lb=0:  14866 shell pairs
          la=1 lb=0:  22074 shell pairs
          la=1 lb=1:   6553 shell pairs
          la=2 lb=0:   7034 shell pairs
          la=2 lb=1:   5480 shell pairs
          la=2 lb=2:    885 shell pairs

Calculating one electron integrals          ... done (  0.3 sec)
Calculating RI/J V-Matrix + Cholesky decomp.... done (  5.1 sec)
Calculating Nuclear repulsion               ... done (  0.2 sec) ENN=   8319.392448301029 Eh

SHARK setup successfully completed in  12.8 seconds

Maximum memory used throughout the entire GTOINT-calculation: 116.0 MB


           ************************************************************
           *        Program running with 4 parallel MPI-processes     *
           *              working on a common directory               *
           ************************************************************
-------------------------------------------------------------------------------
                                 ORCA SCF
-------------------------------------------------------------------------------

------------
SCF SETTINGS
------------
Hamiltonian:
 Density Functional     Method          .... DFT(GTOs)
 Exchange Functional    Exchange        .... PBE
   PBE kappa parameter   XKappa         ....  1.024500
   PBE mue parameter    XMuePBE         ....  0.123457
 Correlation Functional Correlation     .... PBE
   PBE beta parameter  CBetaPBE         ....  0.030000
 LDA part of GGA corr.  LDAOpt          .... PW91-LDA
 Gradients option       PostSCFGGA      .... off
 Hybrid DFT is turned on
   Fraction HF Exchange ScalHFX         ....  0.420000
   Scaling of DF-GGA-X  ScalDFX         ....  0.580000
   Scaling of DF-GGA-C  ScalDFC         ....  1.000000
   Scaling of DF-LDA-C  ScalLDAC        ....  1.000000
   Perturbative correction              ....  0.000000
   Density functional embedding theory  .... OFF
 RI-approximation to the Coulomb term is turned on
   Number of AuxJ basis functions       .... 2940
   RIJ-ON(X) (HFX calculated with O(N)) .... on
   Number of AuxJ basis functions       .... 2940
   RIJ-COSX (HFX calculated with COS-X)).... on


General Settings:
 Integral files         IntName         .... pbeh-3c
 Hartree-Fock type      HFTyp           .... RHF
 Total Charge           Charge          ....    0
 Multiplicity           Mult            ....    1
 Number of Electrons    NEL             ....  360
 Basis Dimension        Dim             ....  900
 Nuclear Repulsion      ENuc            ....   8319.3924483010 Eh

Convergence Acceleration:
 DIIS                   CNVDIIS         .... on
   Start iteration      DIISMaxIt       ....    12
   Startup error        DIISStart       ....  0.200000
   # of expansion vecs  DIISMaxEq       ....     5
   Bias factor          DIISBfac        ....   1.050
   Max. coefficient     DIISMaxC        ....  10.000
 Trust-Rad. Augm. Hess. CNVTRAH         .... auto
   Auto Start mean grad. ratio tolernc. ....  1.125000
   Auto Start start iteration           ....    20
   Auto Start num. interpolation iter.  ....    10
   Max. Number of Micro iterations      ....    16
   Max. Number of Macro iterations      .... Maxiter - #DIIS iter
   Number of Davidson start vectors     ....     2
   Converg. threshold I  (grad. norm)   ....   1.000e-05
   Converg. threshold II (energy diff.) ....   1.000e-08
   Grad. Scal. Fac. for Micro threshold ....   0.100
   Minimum threshold for Micro iter.    ....   0.010
   NR start threshold (gradient norm)   ....   0.001
   Initial trust radius                 ....   0.400
   Minimum AH scaling param. (alpha)    ....   1.000
   Maximum AH scaling param. (alpha)    .... 1000.000
   Orbital update algorithm             .... Taylor
   White noise on init. David. guess    .... on
   Maximum white noise                  ....   0.010
   Quad. conv. algorithm                .... NR
   COSX micro iterations for RIJONX calc.... off
 SOSCF                  CNVSOSCF        .... on
   Start iteration      SOSCFMaxIt      ....   150
   Startup grad/error   SOSCFStart      ....  0.003300
 Level Shifting         CNVShift        .... on
   Level shift para.    LevelShift      ....    0.2500
   Turn off err/grad.   ShiftErr        ....    0.0010
 Zerner damping         CNVZerner       .... off
 Static damping         CNVDamp         .... on
   Fraction old density DampFac         ....    0.7000
   Max. Damping (<1)    DampMax         ....    0.9800
   Min. Damping (>=0)   DampMin         ....    0.0000
   Turn off err/grad.   DampErr         ....    0.1000
 Fernandez-Rico         CNVRico         .... off

SCF Procedure:
 Maximum # iterations   MaxIter         ....   125
 SCF integral mode      SCFMode         .... Direct
   Integral package                     .... SHARK and LIBINT hybrid scheme
 Reset frequency        DirectResetFreq ....    20
 Integral Threshold     Thresh          ....  2.500e-11 Eh
 Primitive CutOff       TCut            ....  2.500e-12 Eh

Convergence Tolerance:
 Convergence Check Mode ConvCheckMode   .... Total+1el-Energy
 Convergence forced     ConvForced      .... 0
 Energy Change          TolE            ....  1.000e-08 Eh
 1-El. energy change                    ....  1.000e-05 Eh
 Orbital Gradient       TolG            ....  1.000e-05
 Orbital Rotation angle TolX            ....  1.000e-05
 DIIS Error             TolErr          ....  5.000e-07


Diagonalization of the overlap matrix:
Smallest eigenvalue                        ... 1.771e-04
Time for diagonalization                   ...    0.229 sec
Threshold for overlap eigenvalues          ... 1.000e-08
Number of eigenvalues below threshold      ... 0
Time for construction of square roots      ...    0.439 sec
Total time needed                          ...    0.824 sec

--------------------------------
INITIAL GUESS: MINIMAL BASIS EHT
--------------------------------
The minimal basis has 300 functions
EHT matrix was diagonalized
Basis set overlap was calculated now projecting the orbitals
Using GuessMode=FMatrix for the initial guess
C*T matrix was formed
Effective Fockian was calculated
Effective Fockian was diagonalized
Initial density was built
                      ------------------
                      INITIAL GUESS DONE
                      ------------------
-------------------
DFT GRID GENERATION
-------------------

General Integration Accuracy     IntAcc      ... 4.959
Radial Grid Type                 RadialGrid  ... OptM3 with GC (2021)
Angular Grid (max. ang.)         AngularGrid ... 6 (Lebedev-590)
Angular grid pruning method      GridPruning ... 4 (adaptive)
Weight generation scheme         WeightScheme... Becke
Basis function cutoff            BFCut       ... 1.0000e-11
Integration weight cutoff        WCut        ... 1.0000e-14
Angular grids for H and He will be reduced by one unit
Partially contracted basis set               ... off
Rotationally invariant grid construction     ... off

Total number of grid points                  ...   821771
Total number of batches                      ...    12875
Average number of points per batch           ...       63
Average number of grid points per atom       ...    13696
Time for grid setup =   31.908 sec

--------------------
COSX GRID GENERATION
--------------------

GRIDX 1
-------
General Integration Accuracy     IntAcc      ... 4.020
Radial Grid Type                 RadialGrid  ... OptM3 with GC (2021)
Angular Grid (max. ang.)         AngularGrid ... 2 (Lebedev-110)
Angular grid pruning method      GridPruning ... 4 (adaptive)
Weight generation scheme         WeightScheme... Becke
Basis function cutoff            BFCut       ... 1.0000e-11
Integration weight cutoff        WCut        ... 1.0000e-14
Angular grids for H and He will be reduced by one unit
Partially contracted basis set               ... on
Rotationally invariant grid construction     ... off

Total number of grid points                  ...   100337
Total number of batches                      ...     1601
Average number of points per batch           ...       62
Average number of grid points per atom       ...     1672
UseSFitting                                  ... on

GRIDX 2
-------
General Integration Accuracy     IntAcc      ... 4.338
Radial Grid Type                 RadialGrid  ... OptM3 with GC (2021)
Angular Grid (max. ang.)         AngularGrid ... 3 (Lebedev-194)
Angular grid pruning method      GridPruning ... 4 (adaptive)
Weight generation scheme         WeightScheme... Becke
Basis function cutoff            BFCut       ... 1.0000e-11
Integration weight cutoff        WCut        ... 1.0000e-14
Angular grids for H and He will be reduced by one unit
Partially contracted basis set               ... on
Rotationally invariant grid construction     ... off

Total number of grid points                  ...   220114
Total number of batches                      ...     3470
Average number of points per batch           ...       63
Average number of grid points per atom       ...     3669
UseSFitting                                  ... on

GRIDX 3
-------
General Integration Accuracy     IntAcc      ... 4.871
Radial Grid Type                 RadialGrid  ... OptM3 with GC (2021)
Angular Grid (max. ang.)         AngularGrid ... 4 (Lebedev-302)
Angular grid pruning method      GridPruning ... 4 (adaptive)
Weight generation scheme         WeightScheme... Becke
Basis function cutoff            BFCut       ... 1.0000e-11
Integration weight cutoff        WCut        ... 1.0000e-14
Angular grids for H and He will be reduced by one unit
Partially contracted basis set               ... on
Rotationally invariant grid construction     ... off

Total number of grid points                  ...   379564
Total number of batches                      ...     5962
Average number of points per batch           ...       63
Average number of grid points per atom       ...     6326
UseSFitting                                  ... on

Time for X-Grid setup             =   33.792 sec

--------------
SCF ITERATIONS
--------------
ITER       Energy         Delta-E        Max-DP      RMS-DP      [F,P]     Damp
               ***  Starting incremental Fock matrix formation  ***
  0  -2275.5739763034   0.000000000000 0.14869899  0.00268198  0.4298576 0.7000
  1  -2277.1852323627  -1.611256059309 0.11516722  0.00198640  0.3033436 0.7000
  2  -2278.3325100563  -1.147277693547 0.08715362  0.00146875  0.2127467 0.7000
                               ***Turning on DIIS***
  3  -2279.1465980621  -0.814088005868 0.06472648  0.00107814  0.1491490 0.7000
  4  -2279.7234753159  -0.576877253799 0.04964383  0.00081960  0.1045568 0.7000
  5  -2280.1314662306  -0.407990914667 0.11857475  0.00197527  0.0732825 0.0000
                      *** Initiating the SOSCF procedure ***
                           *** Shutting down DIIS ***
                      *** Re-Reading the Fockian *** 
                      *** Removing any level shift *** 
ITER      Energy       Delta-E        Grad      Rot      Max-DP    RMS-DP
  6  -2281.10020623  -0.9687399949  0.001013  0.001013  0.001414  0.000041
               *** Restarting incremental Fock matrix formation ***
  7  -2281.10058427  -0.0003780466  0.000535  0.004442  0.000933  0.000027
  8  -2281.10065825  -0.0000739759  0.000206  0.003116  0.000450  0.000015
  9  -2281.10066353  -0.0000052862  0.000168  0.000661  0.000234  0.000005
 10  -2281.10066779  -0.0000042600  0.000072  0.000494  0.000182  0.000004
 11  -2281.10066704   0.0000007498  0.000089  0.000290  0.000130  0.000002
 12  -2281.10066860  -0.0000015571  0.000014  0.000162  0.000065  0.000001
 13  -2281.10066866  -0.0000000556  0.000012  0.000026  0.000025  0.000000
 14  -2281.10066865   0.0000000074  0.000003  0.000026  0.000009  0.000000
 15  -2281.10066870  -0.0000000490  0.000005  0.000008  0.000005  0.000000
                  ***Gradient check signals convergence***
              ***Rediagonalizing the Fockian in SOSCF/NRSCF***

               *****************************************************
               *                     SUCCESS                       *
               *           SCF CONVERGED AFTER  16 CYCLES          *
               *****************************************************

Old exchange energy                            =   -130.628012439 Eh
New exchange energy                            =   -130.628084401 Eh
Exchange energy change after final integration =     -0.000071962 Eh
Total energy after final integration           =  -2281.100740641 Eh
Final COS-X integration done in                =   285.516 sec

----------------
TOTAL SCF ENERGY
----------------

Total Energy       :        -2281.10074064 Eh          -62071.90683 eV

Components:
Nuclear Repulsion  :         8319.39244830 Eh          226382.17757 eV
Electronic Energy  :       -10600.49318894 Eh         -288454.08439 eV
One Electron Energy:       -19654.29107677 Eh         -534820.44995 eV
Two Electron Energy:         9053.79788783 Eh          246366.36555 eV
Max COSX asymmetry :            0.00000320 Eh               0.00009 eV

Virial components:
Potential Energy   :        -4542.66710367 Eh         -123612.25622 eV
Kinetic Energy     :         2261.56636302 Eh           61540.34939 eV
Virial Ratio       :            2.00863754


DFT components:
N(Alpha)           :      179.999925923734 electrons
N(Beta)            :      179.999925923734 electrons
N(Total)           :      359.999851847468 electrons
E(X)               :     -173.809805562978 Eh       
E(C)               :      -16.218673864823 Eh       
E(XC)              :     -190.028479427801 Eh       
DFET-embed. en.    :        0.000000000000 Eh       

---------------
SCF CONVERGENCE
---------------

  Last Energy change         ...    1.9520e-08  Tolerance :   1.0000e-08
  Last MAX-Density change    ...    1.7764e-15  Tolerance :   1.0000e-07
  Last RMS-Density change    ...    2.4682e-17  Tolerance :   5.0000e-09
  Last Orbital Gradient      ...    1.0260e-06  Tolerance :   1.0000e-05
  Last Orbital Rotation      ...    1.1368e-05  Tolerance :   1.0000e-05

             **** THE GBW FILE WAS UPDATED (pbeh-3c.gbw) ****
             **** DENSITY pbeh-3c.scfp WAS UPDATED ****
             **** ENERGY FILE WAS UPDATED (pbeh-3c.en.tmp) ****
             **** THE GBW FILE WAS UPDATED (pbeh-3c.gbw) ****
             **** DENSITY pbeh-3c.scfp WAS UPDATED ****
----------------
ORBITAL ENERGIES
----------------

  NO   OCC          E(Eh)            E(eV) 
   0   2.0000     -10.528113      -286.4845 
   1   2.0000     -10.527931      -286.4796 
   2   2.0000     -10.527929      -286.4795 
   3   2.0000     -10.527801      -286.4760 
   4   2.0000     -10.527051      -286.4556 
   5   2.0000     -10.527050      -286.4556 
   6   2.0000     -10.520576      -286.2794 
   7   2.0000     -10.520080      -286.2659 
   8   2.0000     -10.519843      -286.2595 
   9   2.0000     -10.519776      -286.2577 
  10   2.0000     -10.519403      -286.2475 
  11   2.0000     -10.519289      -286.2444 
  12   2.0000     -10.519283      -286.2443 
  13   2.0000     -10.518587      -286.2253 
  14   2.0000     -10.518546      -286.2242 
  15   2.0000     -10.518497      -286.2228 
  16   2.0000     -10.518459      -286.2218 
  17   2.0000     -10.517865      -286.2056 
  18   2.0000     -10.517095      -286.1847 
  19   2.0000     -10.517034      -286.1830 
  20   2.0000     -10.516944      -286.1806 
  21   2.0000     -10.516935      -286.1803 
  22   2.0000     -10.516928      -286.1802 
  23   2.0000     -10.516754      -286.1754 
  24   2.0000     -10.516625      -286.1719 
  25   2.0000     -10.516623      -286.1719 
  26   2.0000     -10.516060      -286.1565 
  27   2.0000     -10.515861      -286.1511 
  28   2.0000     -10.515853      -286.1509 
  29   2.0000     -10.515713      -286.1471 
  30   2.0000     -10.515683      -286.1463 
  31   2.0000     -10.515571      -286.1432 
  32   2.0000     -10.515495      -286.1412 
  33   2.0000     -10.515493      -286.1411 
  34   2.0000     -10.515322      -286.1365 
  35   2.0000     -10.514986      -286.1273 
  36   2.0000     -10.514977      -286.1271 
  37   2.0000     -10.514862      -286.1239 
  38   2.0000     -10.514851      -286.1236 
  39   2.0000     -10.514838      -286.1233 
  40   2.0000     -10.514822      -286.1228 
  41   2.0000     -10.514777      -286.1216 
  42   2.0000     -10.514549      -286.1154 
  43   2.0000     -10.514391      -286.1111 
  44   2.0000     -10.514034      -286.1014 
  45   2.0000     -10.513446      -286.0854 
  46   2.0000     -10.513330      -286.0823 
  47   2.0000     -10.513323      -286.0821 
  48   2.0000     -10.512801      -286.0679 
  49   2.0000     -10.512793      -286.0676 
  50   2.0000     -10.512742      -286.0663 
  51   2.0000     -10.512737      -286.0661 
  52   2.0000     -10.511376      -286.0291 
  53   2.0000     -10.511368      -286.0289 
  54   2.0000     -10.506576      -285.8985 
  55   2.0000     -10.506568      -285.8983 
  56   2.0000     -10.506222      -285.8888 
  57   2.0000     -10.506018      -285.8833 
  58   2.0000     -10.506005      -285.8829 
  59   2.0000     -10.505864      -285.8791 
  60   2.0000      -1.097675       -29.8693 
  61   2.0000      -1.080421       -29.3997 
  62   2.0000      -1.077726       -29.3264 
  63   2.0000      -1.073977       -29.2244 
  64   2.0000      -1.044846       -28.4317 
  65   2.0000      -1.037089       -28.2206 
  66   2.0000      -1.035510       -28.1777 
  67   2.0000      -1.032461       -28.0947 
  68   2.0000      -1.025100       -27.8944 
  69   2.0000      -0.992562       -27.0090 
  70   2.0000      -0.978331       -26.6217 
  71   2.0000      -0.978109       -26.6157 
  72   2.0000      -0.969720       -26.3874 
  73   2.0000      -0.968307       -26.3490 
  74   2.0000      -0.958156       -26.0728 
  75   2.0000      -0.956293       -26.0220 
  76   2.0000      -0.914185       -24.8762 
  77   2.0000      -0.904937       -24.6246 
  78   2.0000      -0.901724       -24.5372 
  79   2.0000      -0.895850       -24.3773 
  80   2.0000      -0.891408       -24.2564 
  81   2.0000      -0.890416       -24.2295 
  82   2.0000      -0.890308       -24.2265 
  83   2.0000      -0.886973       -24.1358 
  84   2.0000      -0.876358       -23.8469 
  85   2.0000      -0.832608       -22.6564 
  86   2.0000      -0.828300       -22.5392 
  87   2.0000      -0.827036       -22.5048 
  88   2.0000      -0.821489       -22.3539 
  89   2.0000      -0.818675       -22.2773 
  90   2.0000      -0.811062       -22.0701 
  91   2.0000      -0.797756       -21.7081 
  92   2.0000      -0.794186       -21.6109 
  93   2.0000      -0.776319       -21.1247 
  94   2.0000      -0.767774       -20.8922 
  95   2.0000      -0.752054       -20.4644 
  96   2.0000      -0.739165       -20.1137 
  97   2.0000      -0.729171       -19.8418 
  98   2.0000      -0.721216       -19.6253 
  99   2.0000      -0.717187       -19.5156 
 100   2.0000      -0.715345       -19.4655 
 101   2.0000      -0.715330       -19.4651 
 102   2.0000      -0.701581       -19.0910 
 103   2.0000      -0.696228       -18.9453 
 104   2.0000      -0.673731       -18.3332 
 105   2.0000      -0.673386       -18.3238 
 106   2.0000      -0.663324       -18.0500 
 107   2.0000      -0.654232       -17.8026 
 108   2.0000      -0.641801       -17.4643 
 109   2.0000      -0.626911       -17.0591 
 110   2.0000      -0.625104       -17.0099 
 111   2.0000      -0.621652       -16.9160 
 112   2.0000      -0.619187       -16.8489 
 113   2.0000      -0.600391       -16.3375 
 114   2.0000      -0.599891       -16.3239 
 115   2.0000      -0.593752       -16.1568 
 116   2.0000      -0.593246       -16.1431 
 117   2.0000      -0.581328       -15.8187 
 118   2.0000      -0.571569       -15.5532 
 119   2.0000      -0.570578       -15.5262 
 120   2.0000      -0.568364       -15.4660 
 121   2.0000      -0.562080       -15.2950 
 122   2.0000      -0.557128       -15.1602 
 123   2.0000      -0.552634       -15.0379 
 124   2.0000      -0.543886       -14.7999 
 125   2.0000      -0.539891       -14.6912 
 126   2.0000      -0.538665       -14.6578 
 127   2.0000      -0.535763       -14.5788 
 128   2.0000      -0.533228       -14.5099 
 129   2.0000      -0.528974       -14.3941 
 130   2.0000      -0.526247       -14.3199 
 131   2.0000      -0.523225       -14.2377 
 132   2.0000      -0.514909       -14.0114 
 133   2.0000      -0.513889       -13.9836 
 134   2.0000      -0.511379       -13.9153 
 135   2.0000      -0.506395       -13.7797 
 136   2.0000      -0.503197       -13.6927 
 137   2.0000      -0.502854       -13.6833 
 138   2.0000      -0.499874       -13.6023 
 139   2.0000      -0.496168       -13.5014 
 140   2.0000      -0.494435       -13.4543 
 141   2.0000      -0.490960       -13.3597 
 142   2.0000      -0.487214       -13.2578 
 143   2.0000      -0.487049       -13.2533 
 144   2.0000      -0.486637       -13.2421 
 145   2.0000      -0.483514       -13.1571 
 146   2.0000      -0.480769       -13.0824 
 147   2.0000      -0.472895       -12.8681 
 148   2.0000      -0.463646       -12.6165 
 149   2.0000      -0.441438       -12.0122 
 150   2.0000      -0.438990       -11.9455 
 151   2.0000      -0.438037       -11.9196 
 152   2.0000      -0.437684       -11.9100 
 153   2.0000      -0.434953       -11.8357 
 154   2.0000      -0.428397       -11.6573 
 155   2.0000      -0.427919       -11.6443 
 156   2.0000      -0.425241       -11.5714 
 157   2.0000      -0.423165       -11.5149 
 158   2.0000      -0.419713       -11.4210 
 159   2.0000      -0.417255       -11.3541 
 160   2.0000      -0.415765       -11.3136 
 161   2.0000      -0.415484       -11.3059 
 162   2.0000      -0.410451       -11.1689 
 163   2.0000      -0.410236       -11.1631 
 164   2.0000      -0.407590       -11.0911 
 165   2.0000      -0.400649       -10.9022 
 166   2.0000      -0.341376        -9.2893 
 167   2.0000      -0.331507        -9.0208 
 168   2.0000      -0.331055        -9.0085 
 169   2.0000      -0.329015        -8.9529 
 170   2.0000      -0.328387        -8.9359 
 171   2.0000      -0.327978        -8.9247 
 172   2.0000      -0.326497        -8.8844 
 173   2.0000      -0.323936        -8.8147 
 174   2.0000      -0.306932        -8.3520 
 175   2.0000      -0.275453        -7.4955 
 176   2.0000      -0.273692        -7.4475 
 177   2.0000      -0.270277        -7.3546 
 178   2.0000      -0.263294        -7.1646 
 179   2.0000      -0.259816        -7.0699 
 180   0.0000      -0.150217        -4.0876 
 181   0.0000      -0.138789        -3.7767 
 182   0.0000      -0.115649        -3.1470 
 183   0.0000      -0.094806        -2.5798 
 184   0.0000      -0.076789        -2.0895 
 185   0.0000      -0.066920        -1.8210 
 186   0.0000      -0.051919        -1.4128 
 187   0.0000      -0.045577        -1.2402 
 188   0.0000      -0.043470        -1.1829 
 189   0.0000      -0.034590        -0.9412 
 190   0.0000      -0.031607        -0.8601 
 191   0.0000      -0.031191        -0.8487 
 192   0.0000      -0.019180        -0.5219 
 193   0.0000      -0.012654        -0.3443 
 194   0.0000       0.014724         0.4007 
 195   0.0000       0.018148         0.4938 
 196   0.0000       0.026490         0.7208 
 197   0.0000       0.035485         0.9656 
 198   0.0000       0.037693         1.0257 
 199   0.0000       0.046603         1.2681 
 200   0.0000       0.047789         1.3004 
 201   0.0000       0.059507         1.6193 
 202   0.0000       0.070032         1.9057 
 203   0.0000       0.083540         2.2733 
 204   0.0000       0.085720         2.3326 
 205   0.0000       0.089630         2.4390 
 206   0.0000       0.093817         2.5529 
 207   0.0000       0.107071         2.9135 
 208   0.0000       0.108522         2.9530 
 209   0.0000       0.112784         3.0690 
 210   0.0000       0.132568         3.6074 
 211   0.0000       0.139957         3.8084 
 212   0.0000       0.146096         3.9755 
 213   0.0000       0.151039         4.1100 
 214   0.0000       0.151613         4.1256 
 215   0.0000       0.164555         4.4778 
 216   0.0000       0.171995         4.6802 
 217   0.0000       0.175725         4.7817 
 218   0.0000       0.182187         4.9576 
 219   0.0000       0.183027         4.9804 
 220   0.0000       0.187314         5.0971 
 221   0.0000       0.191728         5.2172 
 222   0.0000       0.197137         5.3644 
 223   0.0000       0.202087         5.4991 
 224   0.0000       0.204932         5.5765 
 225   0.0000       0.207272         5.6402 
 226   0.0000       0.215331         5.8595 
 227   0.0000       0.216440         5.8896 
 228   0.0000       0.223517         6.0822 
 229   0.0000       0.229464         6.2440 
 230   0.0000       0.239415         6.5148 
 231   0.0000       0.239464         6.5162 
 232   0.0000       0.243264         6.6195 
 233   0.0000       0.254772         6.9327 
 234   0.0000       0.256338         6.9753 
 235   0.0000       0.266243         7.2448 
 236   0.0000       0.274200         7.4614 
 237   0.0000       0.285500         7.7689 
 238   0.0000       0.298158         8.1133 
 239   0.0000       0.301656         8.2085 
 240   0.0000       0.306834         8.3494 
 241   0.0000       0.309022         8.4089 
 242   0.0000       0.311158         8.4670 
 243   0.0000       0.311902         8.4873 
 244   0.0000       0.317026         8.6267 
 245   0.0000       0.319534         8.6950 
 246   0.0000       0.323055         8.7908 
 247   0.0000       0.339208         9.2303 
 248   0.0000       0.359072         9.7709 
 249   0.0000       0.370354        10.0778 
 250   0.0000       0.390365        10.6224 
 251   0.0000       0.391537        10.6543 
 252   0.0000       0.399316        10.8659 
 253   0.0000       0.401775        10.9329 
 254   0.0000       0.409465        11.1421 
 255   0.0000       0.414839        11.2883 
 256   0.0000       0.419128        11.4051 
 257   0.0000       0.424885        11.5617 
 258   0.0000       0.426042        11.5932 
 259   0.0000       0.426863        11.6155 
 260   0.0000       0.448751        12.2111 
 261   0.0000       0.451043        12.2735 
 262   0.0000       0.451146        12.2763 
 263   0.0000       0.453731        12.3467 
 264   0.0000       0.458658        12.4807 
 265   0.0000       0.461021        12.5450 
 266   0.0000       0.461412        12.5557 
 267   0.0000       0.465068        12.6552 
 268   0.0000       0.470860        12.8128 
 269   0.0000       0.471007        12.8168 
 270   0.0000       0.471603        12.8330 
 271   0.0000       0.473426        12.8826 
 272   0.0000       0.476616        12.9694 
 273   0.0000       0.480068        13.0633 
 274   0.0000       0.481128        13.0922 
 275   0.0000       0.482232        13.1222 
 276   0.0000       0.483629        13.1602 
 277   0.0000       0.487677        13.2704 
 278   0.0000       0.489481        13.3194 
 279   0.0000       0.490796        13.3552 
 280   0.0000       0.493569        13.4307 
 281   0.0000       0.494361        13.4522 
 282   0.0000       0.496667        13.5150 
 283   0.0000       0.498898        13.5757 
 284   0.0000       0.499530        13.5929 
 285   0.0000       0.500323        13.6145 
 286   0.0000       0.502444        13.6722 
 287   0.0000       0.503253        13.6942 
 288   0.0000       0.504142        13.7184 
 289   0.0000       0.505494        13.7552 
 290   0.0000       0.507100        13.7989 
 291   0.0000       0.507269        13.8035 
 292   0.0000       0.510911        13.9026 
 293   0.0000       0.511515        13.9190 
 294   0.0000       0.514252        13.9935 
 295   0.0000       0.515050        14.0152 
 296   0.0000       0.519596        14.1389 
 297   0.0000       0.521129        14.1806 
 298   0.0000       0.522661        14.2223 
 299   0.0000       0.523256        14.2385 
 300   0.0000       0.527555        14.3555 
 301   0.0000       0.528941        14.3932 
 302   0.0000       0.531538        14.4639 
 303   0.0000       0.532536        14.4910 
 304   0.0000       0.532787        14.4979 
 305   0.0000       0.536124        14.5887 
 306   0.0000       0.537457        14.6249 
 307   0.0000       0.539129        14.6704 
 308   0.0000       0.540052        14.6956 
 309   0.0000       0.542570        14.7641 
 310   0.0000       0.543026        14.7765 
 311   0.0000       0.549929        14.9643 
 312   0.0000       0.550639        14.9837 
 313   0.0000       0.554133        15.0787 
 314   0.0000       0.559436        15.2230 
 315   0.0000       0.560677        15.2568 
 316   0.0000       0.561421        15.2770 
 317   0.0000       0.565502        15.3881 
 318   0.0000       0.567188        15.4340 
 319   0.0000       0.568745        15.4763 
 320   0.0000       0.570441        15.5225 
 321   0.0000       0.572805        15.5868 
 322   0.0000       0.573110        15.5951 
 323   0.0000       0.576194        15.6790 
 324   0.0000       0.576539        15.6884 
 325   0.0000       0.580002        15.7826 
 326   0.0000       0.580188        15.7877 
 327   0.0000       0.580969        15.8090 
 328   0.0000       0.581908        15.8345 
 329   0.0000       0.582792        15.8586 
 330   0.0000       0.583215        15.8701 
 331   0.0000       0.584429        15.9031 
 332   0.0000       0.588630        16.0174 
 333   0.0000       0.592007        16.1093 
 334   0.0000       0.592219        16.1151 
 335   0.0000       0.592762        16.1299 
 336   0.0000       0.595951        16.2166 
 337   0.0000       0.599801        16.3214 
 338   0.0000       0.600505        16.3406 
 339   0.0000       0.603714        16.4279 
 340   0.0000       0.606739        16.5102 
 341   0.0000       0.608852        16.5677 
 342   0.0000       0.609957        16.5978 
 343   0.0000       0.610806        16.6209 
 344   0.0000       0.616440        16.7742 
 345   0.0000       0.619698        16.8628 
 346   0.0000       0.622629        16.9426 
 347   0.0000       0.622991        16.9524 
 348   0.0000       0.624283        16.9876 
 349   0.0000       0.626181        17.0392 
 350   0.0000       0.630340        17.1524 
 351   0.0000       0.633435        17.2366 
 352   0.0000       0.633723        17.2445 
 353   0.0000       0.635762        17.3000 
 354   0.0000       0.639956        17.4141 
 355   0.0000       0.640403        17.4263 
 356   0.0000       0.642280        17.4773 
 357   0.0000       0.643162        17.5013 
 358   0.0000       0.646764        17.5993 
 359   0.0000       0.649919        17.6852 
 360   0.0000       0.652232        17.7481 
 361   0.0000       0.656392        17.8613 
 362   0.0000       0.659617        17.9491 
 363   0.0000       0.660922        17.9846 
 364   0.0000       0.664977        18.0949 
 365   0.0000       0.666102        18.1255 
 366   0.0000       0.669805        18.2263 
 367   0.0000       0.670860        18.2550 
 368   0.0000       0.672973        18.3125 
 369   0.0000       0.677116        18.4253 
 370   0.0000       0.679376        18.4868 
 371   0.0000       0.683094        18.5879 
 372   0.0000       0.685304        18.6481 
 373   0.0000       0.690126        18.7793 
 374   0.0000       0.694720        18.9043 
 375   0.0000       0.695750        18.9323 
 376   0.0000       0.697313        18.9748 
 377   0.0000       0.702016        19.1028 
 378   0.0000       0.702048        19.1037 
 379   0.0000       0.702875        19.1262 
 380   0.0000       0.708680        19.2842 
 381   0.0000       0.712697        19.3935 
 382   0.0000       0.714087        19.4313 
 383   0.0000       0.715732        19.4761 
 384   0.0000       0.717857        19.5339 
 385   0.0000       0.722965        19.6729 
 386   0.0000       0.727529        19.7971 
 387   0.0000       0.728059        19.8115 
 388   0.0000       0.731258        19.8985 
 389   0.0000       0.736826        20.0501 
 390   0.0000       0.740873        20.1602 
 391   0.0000       0.741243        20.1702 
 392   0.0000       0.743729        20.2379 
 393   0.0000       0.745751        20.2929 
 394   0.0000       0.746459        20.3122 
 395   0.0000       0.748314        20.3627 
 396   0.0000       0.750831        20.4312 
 397   0.0000       0.752843        20.4859 
 398   0.0000       0.753891        20.5144 
 399   0.0000       0.757501        20.6126 
 400   0.0000       0.758872        20.6500 
 401   0.0000       0.761930        20.7332 
 402   0.0000       0.762944        20.7608 
 403   0.0000       0.763424        20.7738 
 404   0.0000       0.767098        20.8738 
 405   0.0000       0.770204        20.9583 
 406   0.0000       0.771909        21.0047 
 407   0.0000       0.773286        21.0422 
 408   0.0000       0.775061        21.0905 
 409   0.0000       0.783381        21.3169 
 410   0.0000       0.786857        21.4115 
 411   0.0000       0.792148        21.5554 
 412   0.0000       0.792673        21.5697 
 413   0.0000       0.795378        21.6433 
 414   0.0000       0.803907        21.8754 
 415   0.0000       0.815317        22.1859 
 416   0.0000       0.820091        22.3158 
 417   0.0000       0.821852        22.3637 
 418   0.0000       0.850932        23.1550 
 419   0.0000       0.852912        23.2089 
 420   0.0000       0.877293        23.8724 
 421   0.0000       0.890274        24.2256 
 422   0.0000       0.892421        24.2840 
 423   0.0000       0.898339        24.4450 
 424   0.0000       0.913431        24.8557 
 425   0.0000       0.923601        25.1325 
 426   0.0000       0.923962        25.1423 
 427   0.0000       0.932450        25.3732 
 428   0.0000       0.937424        25.5086 
 429   0.0000       0.938953        25.5502 
 430   0.0000       0.943107        25.6633 
 431   0.0000       0.943963        25.6865 
 432   0.0000       0.951274        25.8855 
 433   0.0000       0.951470        25.8908 
 434   0.0000       0.959438        26.1076 
 435   0.0000       0.959567        26.1111 
 436   0.0000       0.960695        26.1419 
 437   0.0000       0.961522        26.1643 
 438   0.0000       0.962963        26.2036 
 439   0.0000       0.966029        26.2870 
 440   0.0000       0.977209        26.5912 
 441   0.0000       0.981805        26.7163 
 442   0.0000       0.984939        26.8016 
 443   0.0000       0.997218        27.1357 
 444   0.0000       0.997477        27.1427 
 445   0.0000       1.003780        27.3143 
 446   0.0000       1.006719        27.3942 
 447   0.0000       1.010070        27.4854 
 448   0.0000       1.011721        27.5303 
 449   0.0000       1.013137        27.5689 
 450   0.0000       1.014653        27.6101 
 451   0.0000       1.018604        27.7176 
 452   0.0000       1.021357        27.7925 
 453   0.0000       1.022894        27.8344 
 454   0.0000       1.025721        27.9113 
 455   0.0000       1.031831        28.0776 
 456   0.0000       1.038089        28.2478 
 457   0.0000       1.039067        28.2745 
 458   0.0000       1.040947        28.3256 
 459   0.0000       1.044991        28.4356 
 460   0.0000       1.047625        28.5073 
 461   0.0000       1.048698        28.5365 
 462   0.0000       1.060618        28.8609 
 463   0.0000       1.060671        28.8623 
 464   0.0000       1.080392        29.3990 
 465   0.0000       1.086815        29.5737 
 466   0.0000       1.090434        29.6722 
 467   0.0000       1.099998        29.9325 
 468   0.0000       1.103054        30.0156 
 469   0.0000       1.106807        30.1178 
 470   0.0000       1.111834        30.2545 
 471   0.0000       1.116049        30.3692 
 472   0.0000       1.118858        30.4457 
 473   0.0000       1.123071        30.5603 
 474   0.0000       1.128319        30.7031 
 475   0.0000       1.139031        30.9946 
 476   0.0000       1.139109        30.9967 
 477   0.0000       1.146651        31.2020 
 478   0.0000       1.153412        31.3859 
 479   0.0000       1.156434        31.4682 
 480   0.0000       1.162392        31.6303 
 481   0.0000       1.165282        31.7089 
 482   0.0000       1.168114        31.7860 
 483   0.0000       1.175371        31.9835 
 484   0.0000       1.175492        31.9868 
 485   0.0000       1.180907        32.1341 
 486   0.0000       1.182881        32.1878 
 487   0.0000       1.186673        32.2910 
 488   0.0000       1.193889        32.4874 
 489   0.0000       1.198782        32.6205 
 490   0.0000       1.200992        32.6807 
 491   0.0000       1.208482        32.8845 
 492   0.0000       1.212554        32.9953 
 493   0.0000       1.213813        33.0295 
 494   0.0000       1.218369        33.1535 
 495   0.0000       1.227755        33.4089 
 496   0.0000       1.230386        33.4805 
 497   0.0000       1.232906        33.5491 
 498   0.0000       1.236659        33.6512 
 499   0.0000       1.237011        33.6608 
 500   0.0000       1.237913        33.6853 
 501   0.0000       1.246840        33.9282 
 502   0.0000       1.251114        34.0446 
 503   0.0000       1.261571        34.3291 
 504   0.0000       1.273367        34.6501 
 505   0.0000       1.273569        34.6556 
 506   0.0000       1.283469        34.9250 
 507   0.0000       1.288841        35.0711 
 508   0.0000       1.296590        35.2820 
 509   0.0000       1.308041        35.5936 
 510   0.0000       1.310819        35.6692 
 511   0.0000       1.311900        35.6986 
 512   0.0000       1.319992        35.9188 
 513   0.0000       1.325241        36.0616 
 514   0.0000       1.326089        36.0847 
 515   0.0000       1.330151        36.1953 
 516   0.0000       1.333580        36.2885 
 517   0.0000       1.338050        36.4102 
 518   0.0000       1.342401        36.5286 
 519   0.0000       1.344391        36.5827 
 520   0.0000       1.347699        36.6728 
 521   0.0000       1.357749        36.9462 
 522   0.0000       1.358557        36.9682 
 523   0.0000       1.365740        37.1637 
 524   0.0000       1.376621        37.4598 
 525   0.0000       1.376822        37.4652 
 526   0.0000       1.385623        37.7047 
 527   0.0000       1.397976        38.0409 
 528   0.0000       1.400653        38.1137 
 529   0.0000       1.424287        38.7568 
 530   0.0000       1.430312        38.9208 
 531   0.0000       1.433456        39.0063 
 532   0.0000       1.446182        39.3526 
 533   0.0000       1.459720        39.7210 
 534   0.0000       1.463960        39.8364 
 535   0.0000       1.474884        40.1336 
 536   0.0000       1.478223        40.2245 
 537   0.0000       1.485858        40.4323 
 538   0.0000       1.493371        40.6367 
 539   0.0000       1.499149        40.7939 
 540   0.0000       1.503469        40.9115 
 541   0.0000       1.508272        41.0422 
 542   0.0000       1.514078        41.2002 
 543   0.0000       1.516513        41.2664 
 544   0.0000       1.531764        41.6814 
 545   0.0000       1.548642        42.1407 
 546   0.0000       1.557422        42.3796 
 547   0.0000       1.565326        42.5947 
 548   0.0000       1.567928        42.6655 
 549   0.0000       1.588186        43.2167 
 550   0.0000       1.588229        43.2179 
 551   0.0000       1.596479        43.4424 
 552   0.0000       1.616127        43.9770 
 553   0.0000       1.634804        44.4853 
 554   0.0000       1.639764        44.6202 
 555   0.0000       1.645889        44.7869 
 556   0.0000       1.658407        45.1276 
 557   0.0000       1.664099        45.2824 
 558   0.0000       1.665455        45.3193 
 559   0.0000       1.666625        45.3512 
 560   0.0000       1.678911        45.6855 
 561   0.0000       1.681024        45.7430 
 562   0.0000       1.685492        45.8646 
 563   0.0000       1.689796        45.9817 
 564   0.0000       1.689888        45.9842 
 565   0.0000       1.692807        46.0636 
 566   0.0000       1.694795        46.1177 
 567   0.0000       1.698744        46.2252 
 568   0.0000       1.701793        46.3081 
 569   0.0000       1.702182        46.3187 
 570   0.0000       1.703154        46.3452 
 571   0.0000       1.703537        46.3556 
 572   0.0000       1.712362        46.5957 
 573   0.0000       1.715809        46.6895 
 574   0.0000       1.717552        46.7370 
 575   0.0000       1.720701        46.8227 
 576   0.0000       1.722198        46.8634 
 577   0.0000       1.723793        46.9068 
 578   0.0000       1.724727        46.9322 
 579   0.0000       1.728091        47.0238 
 580   0.0000       1.729909        47.0732 
 581   0.0000       1.733265        47.1645 
 582   0.0000       1.736201        47.2444 
 583   0.0000       1.743273        47.4369 
 584   0.0000       1.743302        47.4377 
 585   0.0000       1.744078        47.4588 
 586   0.0000       1.748275        47.5730 
 587   0.0000       1.748680        47.5840 
 588   0.0000       1.749150        47.5968 
 589   0.0000       1.752721        47.6940 
 590   0.0000       1.753617        47.7183 
 591   0.0000       1.755141        47.7598 
 592   0.0000       1.757599        47.8267 
 593   0.0000       1.760450        47.9043 
 594   0.0000       1.761306        47.9276 
 595   0.0000       1.763398        47.9845 
 596   0.0000       1.766525        48.0696 
 597   0.0000       1.767251        48.0894 
 598   0.0000       1.769669        48.1551 
 599   0.0000       1.771715        48.2108 
 600   0.0000       1.776809        48.3494 
 601   0.0000       1.778166        48.3864 
 602   0.0000       1.778922        48.4069 
 603   0.0000       1.782528        48.5050 
 604   0.0000       1.783024        48.5186 
 605   0.0000       1.787001        48.6268 
 606   0.0000       1.787242        48.6333 
 607   0.0000       1.790082        48.7106 
 608   0.0000       1.791660        48.7535 
 609   0.0000       1.800668        48.9987 
 610   0.0000       1.802050        49.0363 
 611   0.0000       1.803684        49.0808 
 612   0.0000       1.810004        49.2527 
 613   0.0000       1.814529        49.3758 
 614   0.0000       1.817834        49.4658 
 615   0.0000       1.821690        49.5707 
 616   0.0000       1.830698        49.8158 
 617   0.0000       1.832755        49.8718 
 618   0.0000       1.838131        50.0181 
 619   0.0000       1.845018        50.2055 
 620   0.0000       1.851052        50.3697 
 621   0.0000       1.851501        50.3819 
 622   0.0000       1.859956        50.6120 
 623   0.0000       1.862005        50.6677 
 624   0.0000       1.866418        50.7878 
 625   0.0000       1.875594        51.0375 
 626   0.0000       1.880312        51.1659 
 627   0.0000       1.884021        51.2668 
 628   0.0000       1.894840        51.5612 
 629   0.0000       1.900031        51.7025 
 630   0.0000       1.907341        51.9014 
 631   0.0000       1.914062        52.0843 
 632   0.0000       1.921970        52.2995 
 633   0.0000       1.927782        52.4576 
 634   0.0000       1.934790        52.6483 
 635   0.0000       1.947037        52.9816 
 636   0.0000       1.962321        53.3975 
 637   0.0000       1.967280        53.5324 
 638   0.0000       1.971860        53.6571 
 639   0.0000       1.976646        53.7873 
 640   0.0000       1.983654        53.9780 
 641   0.0000       1.984859        54.0108 
 642   0.0000       1.987795        54.0906 
 643   0.0000       1.989483        54.1366 
 644   0.0000       1.994471        54.2723 
 645   0.0000       1.996017        54.3144 
 646   0.0000       2.000057        54.4243 
 647   0.0000       2.000734        54.4427 
 648   0.0000       2.008904        54.6650 
 649   0.0000       2.009572        54.6832 
 650   0.0000       2.017253        54.8922 
 651   0.0000       2.018887        54.9367 
 652   0.0000       2.023113        55.0517 
 653   0.0000       2.029290        55.2198 
 654   0.0000       2.034619        55.3648 
 655   0.0000       2.039343        55.4934 
 656   0.0000       2.045962        55.6734 
 657   0.0000       2.049490        55.7694 
 658   0.0000       2.056141        55.9504 
 659   0.0000       2.058222        56.0071 
 660   0.0000       2.059400        56.0391 
 661   0.0000       2.067181        56.2509 
 662   0.0000       2.073723        56.4289 
 663   0.0000       2.074721        56.4560 
 664   0.0000       2.076250        56.4976 
 665   0.0000       2.079332        56.5815 
 666   0.0000       2.084136        56.7122 
 667   0.0000       2.099820        57.1390 
 668   0.0000       2.103473        57.2384 
 669   0.0000       2.106582        57.3230 
 670   0.0000       2.111184        57.4482 
 671   0.0000       2.112084        57.4727 
 672   0.0000       2.117514        57.6205 
 673   0.0000       2.119808        57.6829 
 674   0.0000       2.124211        57.8027 
 675   0.0000       2.132383        58.0251 
 676   0.0000       2.135832        58.1189 
 677   0.0000       2.138711        58.1973 
 678   0.0000       2.139411        58.2163 
 679   0.0000       2.141966        58.2859 
 680   0.0000       2.144415        58.3525 
 681   0.0000       2.147966        58.4491 
 682   0.0000       2.154714        58.6327 
 683   0.0000       2.155427        58.6521 
 684   0.0000       2.157779        58.7162 
 685   0.0000       2.162049        58.8323 
 686   0.0000       2.162423        58.8425 
 687   0.0000       2.169914        59.0464 
 688   0.0000       2.172190        59.1083 
 689   0.0000       2.172686        59.1218 
 690   0.0000       2.197294        59.7914 
 691   0.0000       2.212392        60.2022 
 692   0.0000       2.250202        61.2311 
 693   0.0000       2.267058        61.6898 
 694   0.0000       2.269415        61.7539 
 695   0.0000       2.277922        61.9854 
 696   0.0000       2.286548        62.2201 
[...]
      px      :     0.990963
      py      :     1.026773
      dz2     :     0.021227  d :     0.107064
      dxz     :     0.017608
      dyz     :     0.033664
      dx2y2   :     0.015933
      dxy     :     0.018633
 37 C s       :     2.840979  s :     2.840979
      pz      :     1.051446  p :     3.048288
      px      :     0.972369
      py      :     1.024473
      dz2     :     0.029170  d :     0.112448
      dxz     :     0.016226
      dyz     :     0.038112
      dx2y2   :     0.011768
      dxy     :     0.017172
 38 C s       :     2.842117  s :     2.842117
      pz      :     1.005754  p :     3.045341
      px      :     1.011236
      py      :     1.028351
      dz2     :     0.025183  d :     0.112300
      dxz     :     0.015629
      dyz     :     0.021849
      dx2y2   :     0.027162
      dxy     :     0.022478
 39 C s       :     2.847375  s :     2.847375
      pz      :     1.015038  p :     3.039517
      px      :     1.011842
      py      :     1.012637
      dz2     :     0.026405  d :     0.114842
      dxz     :     0.020095
      dyz     :     0.017783
      dx2y2   :     0.032173
      dxy     :     0.018385
 40 C s       :     2.847401  s :     2.847401
      pz      :     1.007991  p :     3.037152
      px      :     1.013704
      py      :     1.015458
      dz2     :     0.024740  d :     0.114870
      dxz     :     0.018456
      dyz     :     0.017650
      dx2y2   :     0.032731
      dxy     :     0.021294
 41 C s       :     2.839606  s :     2.839606
      pz      :     0.987229  p :     3.053890
      px      :     1.030449
      py      :     1.036212
      dz2     :     0.011219  d :     0.114147
      dxz     :     0.017041
      dyz     :     0.019746
      dx2y2   :     0.030237
      dxy     :     0.035905
 42 C s       :     2.845315  s :     2.845315
      pz      :     1.015595  p :     3.048852
      px      :     1.004411
      py      :     1.028846
      dz2     :     0.021626  d :     0.105742
      dxz     :     0.014217
      dyz     :     0.024821
      dx2y2   :     0.024719
      dxy     :     0.020359
 43 C s       :     2.844847  s :     2.844847
      pz      :     0.997227  p :     3.048495
      px      :     1.019327
      py      :     1.031941
      dz2     :     0.012209  d :     0.109129
      dxz     :     0.017795
      dyz     :     0.019401
      dx2y2   :     0.024748
      dxy     :     0.034976
 44 C s       :     2.846516  s :     2.846516
      pz      :     0.968733  p :     3.037422
      px      :     1.015631
      py      :     1.053057
      dz2     :     0.007505  d :     0.112117
      dxz     :     0.015937
      dyz     :     0.017312
      dx2y2   :     0.032845
      dxy     :     0.038518
 45 C s       :     2.843385  s :     2.843385
      pz      :     1.021266  p :     3.048460
      px      :     0.990298
      py      :     1.036896
      dz2     :     0.022638  d :     0.109834
      dxz     :     0.016403
      dyz     :     0.035930
      dx2y2   :     0.016280
      dxy     :     0.018583
 46 C s       :     2.847924  s :     2.847924
      pz      :     1.012250  p :     3.035898
      px      :     1.003917
      py      :     1.019731
      dz2     :     0.034929  d :     0.114775
      dxz     :     0.017815
      dyz     :     0.021093
      dx2y2   :     0.023068
      dxy     :     0.017870
 47 C s       :     2.845113  s :     2.845113
      pz      :     1.009868  p :     3.050811
      px      :     1.011564
      py      :     1.029379
      dz2     :     0.019298  d :     0.105770
      dxz     :     0.014006
      dyz     :     0.021859
      dx2y2   :     0.026459
      dxy     :     0.024147
 48 C s       :     2.850170  s :     2.850170
      pz      :     1.016052  p :     3.029571
      px      :     1.048113
      py      :     0.965407
      dz2     :     0.023569  d :     0.110218
      dxz     :     0.037147
      dyz     :     0.016768
      dx2y2   :     0.016165
      dxy     :     0.016569
 49 C s       :     2.844715  s :     2.844715
      pz      :     1.024057  p :     3.043127
      px      :     1.048841
      py      :     0.970230
      dz2     :     0.023545  d :     0.110508
      dxz     :     0.036512
      dyz     :     0.018158
      dx2y2   :     0.017069
      dxy     :     0.015225
 50 C s       :     2.841004  s :     2.841004
      pz      :     1.030179  p :     3.052373
      px      :     1.030653
      py      :     0.991540
      dz2     :     0.024449  d :     0.113374
      dxz     :     0.035255
      dyz     :     0.019400
      dx2y2   :     0.014616
      dxy     :     0.019654
 51 C s       :     2.842283  s :     2.842283
      pz      :     1.028042  p :     3.047043
      px      :     0.998730
      py      :     1.020271
      dz2     :     0.033060  d :     0.111126
      dxz     :     0.018860
      dyz     :     0.024182
      dx2y2   :     0.018691
      dxy     :     0.016333
 52 C s       :     2.841474  s :     2.841474
      pz      :     1.023622  p :     3.047692
      px      :     0.987775
      py      :     1.036295
      dz2     :     0.021683  d :     0.111331
      dxz     :     0.017702
      dyz     :     0.035291
      dx2y2   :     0.017914
      dxy     :     0.018740
 53 C s       :     2.842022  s :     2.842022
      pz      :     0.995969  p :     3.041506
      px      :     1.016310
      py      :     1.029227
      dz2     :     0.023054  d :     0.112084
      dxz     :     0.016480
      dyz     :     0.018953
      dx2y2   :     0.029893
      dxy     :     0.023705
 54 C s       :     2.844001  s :     2.844001
      pz      :     1.032985  p :     3.046839
      px      :     1.020941
      py      :     0.992913
      dz2     :     0.024823  d :     0.110139
      dxz     :     0.033876
      dyz     :     0.019828
      dx2y2   :     0.013525
      dxy     :     0.018088
 55 C s       :     2.842098  s :     2.842098
      pz      :     0.965084  p :     3.042677
      px      :     1.024495
      py      :     1.053098
      dz2     :     0.008862  d :     0.112739
      dxz     :     0.018463
      dyz     :     0.015871
      dx2y2   :     0.032616
      dxy     :     0.036927
 56 C s       :     2.847385  s :     2.847385
      pz      :     0.997678  p :     3.041214
      px      :     1.019125
      py      :     1.024411
      dz2     :     0.011726  d :     0.106874
      dxz     :     0.018470
      dyz     :     0.019480
      dx2y2   :     0.025343
      dxy     :     0.031855
 57 C s       :     2.841742  s :     2.841742
      pz      :     1.016738  p :     3.054636
      px      :     1.024549
      py      :     1.013350
      dz2     :     0.020482  d :     0.111422
      dxz     :     0.021796
      dyz     :     0.015806
      dx2y2   :     0.032307
      dxy     :     0.021030
 58 C s       :     2.842320  s :     2.842320
      pz      :     0.992100  p :     3.049536
      px      :     1.033964
      py      :     1.023472
      dz2     :     0.011571  d :     0.110744
      dxz     :     0.018821
      dyz     :     0.017585
      dx2y2   :     0.027345
      dxy     :     0.035422
 59 C s       :     2.842791  s :     2.842791
      pz      :     1.016348  p :     3.043222
      px      :     1.029403
      py      :     0.997471
      dz2     :     0.022236  d :     0.111484
      dxz     :     0.024212
      dyz     :     0.016245
      dx2y2   :     0.029235
      dxy     :     0.019556


                      *****************************
                      * MAYER POPULATION ANALYSIS *
                      *****************************

  NA   - Mulliken gross atomic population
  ZA   - Total nuclear charge
  QA   - Mulliken gross atomic charge
  VA   - Mayer's total valence
  BVA  - Mayer's bonded valence
  FA   - Mayer's free valence

  ATOM       NA         ZA         QA         VA         BVA        FA
  0 C      6.0203     6.0000    -0.0203     3.7900     3.7900    -0.0000
  1 C      5.9965     6.0000     0.0035     3.7447     3.7447     0.0000
  2 C      6.0192     6.0000    -0.0192     3.7679     3.7679    -0.0000
  3 C      6.0180     6.0000    -0.0180     3.7859     3.7859     0.0000
  4 C      6.0012     6.0000    -0.0012     3.7578     3.7578     0.0000
  5 C      5.9911     6.0000     0.0089     3.7375     3.7375     0.0000
  6 C      5.9951     6.0000     0.0049     3.7435     3.7435    -0.0000
  7 C      6.0172     6.0000    -0.0172     3.7735     3.7735    -0.0000
  8 C      5.9978     6.0000     0.0022     3.7680     3.7680    -0.0000
  9 C      5.9720     6.0000     0.0280     3.7047     3.7047    -0.0000
 10 C      5.9930     6.0000     0.0070     3.7360     3.7360     0.0000
 11 C      5.9695     6.0000     0.0305     3.7040     3.7040    -0.0000
 12 C      6.0052     6.0000    -0.0052     3.7723     3.7723    -0.0000
 13 C      5.9993     6.0000     0.0007     3.7486     3.7486    -0.0000
 14 C      5.9962     6.0000     0.0038     3.7472     3.7472     0.0000
 15 C      6.0082     6.0000    -0.0082     3.7768     3.7768    -0.0000
 16 C      5.9880     6.0000     0.0120     3.7491     3.7491    -0.0000
 17 C      5.9694     6.0000     0.0306     3.7013     3.7013    -0.0000
 18 C      6.0026     6.0000    -0.0026     3.7535     3.7535    -0.0000
 19 C      5.9694     6.0000     0.0306     3.7013     3.7013    -0.0000
 20 C      6.0172     6.0000    -0.0172     3.7735     3.7735    -0.0000
 21 C      5.9911     6.0000     0.0089     3.7375     3.7375     0.0000
 22 C      5.9977     6.0000     0.0023     3.7680     3.7680     0.0000
 23 C      5.9951     6.0000     0.0049     3.7435     3.7435    -0.0000
 24 C      6.0107     6.0000    -0.0107     3.7768     3.7768     0.0000
 25 C      5.9930     6.0000     0.0070     3.7360     3.7360     0.0000
 26 C      5.9966     6.0000     0.0034     3.7458     3.7458     0.0000
 27 C      6.0215     6.0000    -0.0215     3.7610     3.7610    -0.0000
 28 C      6.0190     6.0000    -0.0190     3.7860     3.7860     0.0000
 29 C      6.0100     6.0000    -0.0100     3.7776     3.7776    -0.0000
 30 C      5.9903     6.0000     0.0097     3.7541     3.7541     0.0000
 31 C      5.9974     6.0000     0.0026     3.7551     3.7551    -0.0000
 32 C      5.9959     6.0000     0.0041     3.7513     3.7513     0.0000
 33 C      6.0011     6.0000    -0.0011     3.7586     3.7586    -0.0000
 34 C      6.0044     6.0000    -0.0044     3.7622     3.7622    -0.0000
 35 C      6.0014     6.0000    -0.0014     3.7618     3.7618     0.0000
 36 C      6.0026     6.0000    -0.0026     3.7535     3.7535    -0.0000
 37 C      6.0044     6.0000    -0.0044     3.7622     3.7622    -0.0000
 38 C      6.0082     6.0000    -0.0082     3.7768     3.7768    -0.0000
 39 C      6.0179     6.0000    -0.0179     3.7859     3.7859     0.0000
 40 C      6.0203     6.0000    -0.0203     3.7900     3.7900    -0.0000
 41 C      6.0012     6.0000    -0.0012     3.7578     3.7578     0.0000
 42 C      5.9720     6.0000     0.0280     3.7047     3.7047     0.0000
 43 C      5.9965     6.0000     0.0035     3.7448     3.7448    -0.0000
 44 C      6.0192     6.0000    -0.0192     3.7679     3.7679    -0.0000
 45 C      5.9966     6.0000     0.0034     3.7458     3.7458     0.0000
 46 C      6.0190     6.0000    -0.0190     3.7860     3.7860     0.0000
 47 C      5.9695     6.0000     0.0305     3.7040     3.7040     0.0000
 48 C      6.0146     6.0000    -0.0146     3.7693     3.7693    -0.0000
 49 C      6.0015     6.0000    -0.0015     3.7655     3.7655    -0.0000
 50 C      5.9974     6.0000     0.0026     3.7551     3.7551    -0.0000
 51 C      6.0014     6.0000    -0.0014     3.7618     3.7618     0.0000
 52 C      6.0011     6.0000    -0.0011     3.7586     3.7586    -0.0000
 53 C      5.9880     6.0000     0.0120     3.7490     3.7490    -0.0000
 54 C      5.9959     6.0000     0.0041     3.7513     3.7513     0.0000
 55 C      6.0052     6.0000    -0.0052     3.7723     3.7723     0.0000
 56 C      5.9993     6.0000     0.0007     3.7486     3.7486     0.0000
 57 C      6.0100     6.0000    -0.0100     3.7776     3.7776     0.0000
 58 C      5.9962     6.0000     0.0038     3.7472     3.7472     0.0000
 59 C      5.9903     6.0000     0.0097     3.7541     3.7541    -0.0000

  Mayer bond orders larger than 0.100000
B(  0-C ,  1-C ) :   1.3236 B(  0-C ,  3-C ) :   1.1126 B(  0-C ,  6-C ) :   1.2578 
B(  1-C ,  2-C ) :   1.1251 B(  1-C ,  9-C ) :   1.2388 B(  2-C ,  4-C ) :   1.1429 
B(  2-C , 12-C ) :   1.4257 B(  3-C ,  4-C ) :   1.2321 B(  3-C ,  5-C ) :   1.3499 
B(  4-C , 15-C ) :   1.3300 B(  5-C ,  7-C ) :   1.1107 B(  5-C , 17-C ) :   1.2204 
B(  6-C ,  7-C ) :   1.1184 B(  6-C ,  8-C ) :   1.3208 B(  7-C , 20-C ) :   1.4644 
B(  8-C , 10-C ) :   1.2524 B(  8-C , 22-C ) :   1.1209 B(  9-C , 10-C ) :   1.3019 
B(  9-C , 11-C ) :   1.1302 B( 10-C , 24-C ) :   1.1213 B( 11-C , 13-C ) :   1.3086 
B( 11-C , 26-C ) :   1.2328 B( 12-C , 13-C ) :   1.1260 B( 12-C , 14-C ) :   1.1458 
B( 13-C , 29-C ) :   1.2459 B( 14-C , 16-C ) :   1.3771 B( 14-C , 30-C ) :   1.1715 
B( 15-C , 16-C ) :   1.1482 B( 15-C , 18-C ) :   1.2231 B( 16-C , 33-C ) :   1.1699 
B( 17-C , 18-C ) :   1.3077 B( 17-C , 19-C ) :   1.1395 B( 18-C , 34-C ) :   1.1483 
B( 19-C , 21-C ) :   1.2204 B( 19-C , 36-C ) :   1.3077 B( 20-C , 21-C ) :   1.1107 
B( 20-C , 23-C ) :   1.1184 B( 21-C , 39-C ) :   1.3499 B( 22-C , 23-C ) :   1.3208 
B( 22-C , 25-C ) :   1.2524 B( 23-C , 40-C ) :   1.2578 B( 24-C , 25-C ) :   1.1213 
B( 24-C , 27-C ) :   1.4442 B( 25-C , 42-C ) :   1.3019 B( 26-C , 27-C ) :   1.1213 
B( 26-C , 28-C ) :   1.3339 B( 27-C , 45-C ) :   1.1213 B( 28-C , 31-C ) :   1.2538 
B( 28-C , 46-C ) :   1.1041 B( 29-C , 30-C ) :   1.1520 B( 29-C , 31-C ) :   1.3064 
B( 30-C , 32-C ) :   1.3726 B( 31-C , 48-C ) :   1.1392 B( 32-C , 35-C ) :   1.1795 
B( 32-C , 49-C ) :   1.1422 B( 33-C , 34-C ) :   1.1586 B( 33-C , 35-C ) :   1.3693 
B( 34-C , 37-C ) :   1.3881 B( 35-C , 51-C ) :   1.1529 B( 36-C , 37-C ) :   1.1483 
B( 36-C , 38-C ) :   1.2231 B( 37-C , 52-C ) :   1.1586 B( 38-C , 41-C ) :   1.3300 
B( 38-C , 53-C ) :   1.1482 B( 39-C , 40-C ) :   1.1126 B( 39-C , 41-C ) :   1.2321 
B( 40-C , 43-C ) :   1.3236 B( 41-C , 44-C ) :   1.1429 B( 42-C , 43-C ) :   1.2388 
B( 42-C , 47-C ) :   1.1302 B( 43-C , 44-C ) :   1.1251 B( 44-C , 55-C ) :   1.4257 
B( 45-C , 46-C ) :   1.3339 B( 45-C , 47-C ) :   1.2328 B( 46-C , 50-C ) :   1.2538 
B( 47-C , 56-C ) :   1.3086 B( 48-C , 49-C ) :   1.4150 B( 48-C , 50-C ) :   1.1392 
B( 49-C , 54-C ) :   1.1422 B( 50-C , 57-C ) :   1.3064 B( 51-C , 52-C ) :   1.3693 
B( 51-C , 54-C ) :   1.1795 B( 52-C , 53-C ) :   1.1699 B( 53-C , 58-C ) :   1.3771 
B( 54-C , 59-C ) :   1.3726 B( 55-C , 56-C ) :   1.1260 B( 55-C , 58-C ) :   1.1459 
B( 56-C , 57-C ) :   1.2459 B( 57-C , 59-C ) :   1.1520 B( 58-C , 59-C ) :   1.1715 


-------
TIMINGS
-------

Total SCF time: 0 days 0 hours 53 min 24 sec 

Total time                  ....    3204.496 sec
Sum of individual times     ....    3186.345 sec  ( 99.4%)

Fock matrix formation       ....    3094.717 sec  ( 96.6%)
  Split-RI-J                ....     182.059 sec  (  5.9% of F)
  Chain of spheres X        ....    2663.578 sec  ( 86.1% of F)
  XC integration            ....     228.865 sec  (  7.4% of F)
    Basis function eval.    ....      74.124 sec  ( 32.4% of XC)
    Density eval.           ....      81.103 sec  ( 35.4% of XC)
    XC-Functional eval.     ....       6.569 sec  (  2.9% of XC)
    XC-Potential eval.      ....      34.283 sec  ( 15.0% of XC)
Diagonalization             ....       6.166 sec  (  0.2%)
Density matrix formation    ....       0.913 sec  (  0.0%)
Population analysis         ....       0.461 sec  (  0.0%)
Initial guess               ....       1.292 sec  (  0.0%)
Orbital Transformation      ....       0.000 sec  (  0.0%)
Orbital Orthonormalization  ....       0.000 sec  (  0.0%)
DIIS solution               ....       7.377 sec  (  0.2%)
SOSCF solution              ....       9.718 sec  (  0.3%)
Grid generation             ....      65.700 sec  (  2.1%)

Maximum memory used throughout the entire SCF-calculation: 383.9 MB


-------------------------------------------------------------------------------
                          DFT DISPERSION CORRECTION                            
                                                                               
                              DFTD3 V3.1  Rev 1                                
                          USING Becke-Johnson damping                          
-------------------------------------------------------------------------------
The PBEh-3c composite method is recognized
Using three-body term ABC
Active option DFTDOPT                   ...         4   

molecular C6(AA) [au] = 84213.452119 


            DFT-D V3
 parameters
 s6 scaling factor         :     1.0000 
 a1 scaling factor         :     0.4860 
 s8 scaling factor         :     0.0000 
 a2 scaling factor         :     4.5000 
 Damping factor alpha9(ATM):    16.0000 
 ad hoc parameters k1-k3   :    16.0000     1.3333    -4.0000 

 Edisp/kcal,au: -60.786250584052  -0.096869045986 
 E6   /kcal   : -63.644703462 
 E8   /kcal   :  -0.000000000 
 E6(ABC)      :   2.858452878 
 % E8         :   0.000000000 
 % E6(ABC)    :  -4.702466184 

-------------------------   ----------------
Dispersion correction           -0.096869046
-------------------------   ----------------

------------------   -----------------
gCP correction             0.069663079
------------------   -----------------

-------------------------   --------------------
FINAL SINGLE POINT ENERGY     -2281.127946607874
-------------------------   --------------------


                            ***************************************
                            *     ORCA property calculations      *
                            ***************************************

                                    ---------------------
                                    Active property flags
                                    ---------------------
   (+) Dipole Moment


------------------------------------------------------------------------------
                       ORCA ELECTRIC PROPERTIES CALCULATION
------------------------------------------------------------------------------

Dipole Moment Calculation                       ... on
Quadrupole Moment Calculation                   ... off
Polarizability Calculation                      ... off
GBWName                                         ... pbeh-3c.gbw
Electron density                                ... pbeh-3c.scfp
The origin for moment calculation is the CENTER OF MASS  = (-0.000000,  0.000000 -0.000000)

-------------
DIPOLE MOMENT
-------------
                                X             Y             Z
Electronic contribution:      0.04002      -0.00592       0.00000
Nuclear contribution   :     -0.00000      -0.00000       0.00000
                        -----------------------------------------
Total Dipole Moment    :      0.04002      -0.00592       0.00000
                        -----------------------------------------
Magnitude (a.u.)       :      0.04046
Magnitude (Debye)      :      0.10283



--------------------
Rotational spectrum 
--------------------
 
Rotational constants in cm-1:     0.002903     0.002779     0.002649 
Rotational constants in MHz :    87.039958    83.319216    79.428453 

 Dipole components along the rotational axes: 
x,y,z [a.u.] :    -0.008373     0.000000    -0.039580 
x,y,z [Debye]:    -0.021282     0.000001    -0.100604 

 

Timings for individual modules:

Sum of individual times         ...     3221.017 sec (=  53.684 min)
GTO integral calculation        ...       15.087 sec (=   0.251 min)   0.5 %
SCF iterations                  ...     3205.930 sec (=  53.432 min)  99.5 %
                             ****ORCA TERMINATED NORMALLY****
TOTAL RUN TIME: 0 days 0 hours 53 minutes 45 seconds 125 msec
