
                                 *****************
                                 * O   R   C   A *
                                 *****************

                                            #,                                       
                                            ###                                      
                                            ####                                     
                                            #####                                    
                                            ######                                   
                                           ########,                                 
                                     ,,################,,,,,                         
                               ,,#################################,,                 
                          ,,##########################################,,             
                       ,#########################################, ''#####,          
                    ,#############################################,,   '####,        
                  ,##################################################,,,,####,       
                ,###########''''           ''''###############################       
              ,#####''   ,,,,##########,,,,          '''####'''          '####       
            ,##' ,,,,###########################,,,                        '##       
           ' ,,###''''                  '''############,,,                           
         ,,##''                                '''############,,,,        ,,,,,,###''
      ,#''                                            '''#######################'''  
     '                                                          ''''####''''         
             ,#######,   #######,   ,#######,      ##                                
            ,#'     '#,  ##    ##  ,#'     '#,    #''#        ######   ,####,        
            ##       ##  ##   ,#'  ##            #'  '#       #        #'  '#        
            ##       ##  #######   ##           ,######,      #####,   #    #        
            '#,     ,#'  ##    ##  '#,     ,#' ,#      #,         ##   #,  ,#        
             '#######'   ##     ##  '#######'  #'      '#     #####' # '####'        



                  #######################################################
                  #                        -***-                        #
                  #          Department of theory and spectroscopy      #
                  #    Directorship and core code : Frank Neese         #
                  #        Max Planck Institute fuer Kohlenforschung    #
                  #                Kaiser Wilhelm Platz 1               #
                  #                 D-45470 Muelheim/Ruhr               #
                  #                      Germany                        #
                  #                                                     #
                  #                  All rights reserved                #
                  #                        -***-                        #
                  #######################################################


                         Program Version 5.0.3 -  RELEASE  -


 With contributions from (in alphabetic order):
   Daniel Aravena         : Magnetic Suceptibility
   Michael Atanasov       : Ab Initio Ligand Field Theory (pilot matlab implementation)
   Alexander A. Auer      : GIAO ZORA, VPT2 properties, NMR spectrum
   Ute Becker             : Parallelization
   Giovanni Bistoni       : ED, misc. LED, open-shell LED, HFLD
   Martin Brehm           : Molecular dynamics
   Dmytro Bykov           : SCF Hessian
   Vijay G. Chilkuri      : MRCI spin determinant printing, contributions to CSF-ICE
   Dipayan Datta          : RHF DLPNO-CCSD density
   Achintya Kumar Dutta   : EOM-CC, STEOM-CC
   Dmitry Ganyushin       : Spin-Orbit,Spin-Spin,Magnetic field MRCI
   Miquel Garcia          : C-PCM and meta-GGA Hessian, CC/C-PCM, Gaussian charge scheme
   Yang Guo               : DLPNO-NEVPT2, F12-NEVPT2, CIM, IAO-localization
   Andreas Hansen         : Spin unrestricted coupled pair/coupled cluster methods
   Benjamin Helmich-Paris : MC-RPA, TRAH-SCF, COSX integrals
   Lee Huntington         : MR-EOM, pCC
   Robert Izsak           : Overlap fitted RIJCOSX, COSX-SCS-MP3, EOM
   Marcus Kettner         : VPT2
   Christian Kollmar      : KDIIS, OOCD, Brueckner-CCSD(T), CCSD density, CASPT2, CASPT2-K
   Simone Kossmann        : Meta GGA functionals, TD-DFT gradient, OOMP2, MP2 Hessian
   Martin Krupicka        : Initial AUTO-CI
   Lucas Lang             : DCDCAS
   Marvin Lechner         : AUTO-CI (C++ implementation), FIC-MRCC
   Dagmar Lenk            : GEPOL surface, SMD
   Dimitrios Liakos       : Extrapolation schemes; Compound Job, initial MDCI parallelization
   Dimitrios Manganas     : Further ROCIS development; embedding schemes
   Dimitrios Pantazis     : SARC Basis sets
   Anastasios Papadopoulos: AUTO-CI, single reference methods and gradients
   Taras Petrenko         : DFT Hessian,TD-DFT gradient, ASA, ECA, R-Raman, ABS, FL, XAS/XES, NRVS
   Peter Pinski           : DLPNO-MP2, DLPNO-MP2 Gradient
   Christoph Reimann      : Effective Core Potentials
   Marius Retegan         : Local ZFS, SOC
   Christoph Riplinger    : Optimizer, TS searches, QM/MM, DLPNO-CCSD(T), (RO)-DLPNO pert. Triples
   Tobias Risthaus        : Range-separated hybrids, TD-DFT gradient, RPA, STAB
   Michael Roemelt        : Original ROCIS implementation
   Masaaki Saitow         : Open-shell DLPNO-CCSD energy and density
   Barbara Sandhoefer     : DKH picture change effects
   Avijit Sen             : IP-ROCIS
   Kantharuban Sivalingam : CASSCF convergence, NEVPT2, FIC-MRCI
   Bernardo de Souza      : ESD, SOC TD-DFT
   Georgi Stoychev        : AutoAux, RI-MP2 NMR, DLPNO-MP2 response
   Willem Van den Heuvel  : Paramagnetic NMR
   Boris Wezisla          : Elementary symmetry handling
   Frank Wennmohs         : Technical directorship


 We gratefully acknowledge several colleagues who have allowed us to
 interface, adapt or use parts of their codes:
   Stefan Grimme, W. Hujo, H. Kruse, P. Pracht,  : VdW corrections, initial TS optimization,
                  C. Bannwarth, S. Ehlert          DFT functionals, gCP, sTDA/sTD-DF
   Ed Valeev, F. Pavosevic, A. Kumar             : LibInt (2-el integral package), F12 methods
   Garnet Chan, S. Sharma, J. Yang, R. Olivares  : DMRG
   Ulf Ekstrom                                   : XCFun DFT Library
   Mihaly Kallay                                 : mrcc  (arbitrary order and MRCC methods)
   Jiri Pittner, Ondrej Demel                    : Mk-CCSD
   Frank Weinhold                                : gennbo (NPA and NBO analysis)
   Christopher J. Cramer and Donald G. Truhlar   : smd solvation model
   Lars Goerigk                                  : TD-DFT with DH, B97 family of functionals
   V. Asgeirsson, H. Jonsson                     : NEB implementation
   FAccTs GmbH                                   : IRC, NEB, NEB-TS, DLPNO-Multilevel, CI-OPT
                                                   MM, QMMM, 2- and 3-layer-ONIOM, Crystal-QMMM,
                                                   LR-CPCM, SF, NACMEs, symmetry and pop. for TD-DFT,
                                                   nearIR, NL-DFT gradient (VV10), updates on ESD,
                                                   ML-optimized integration grids
   S Lehtola, MJT Oliveira, MAL Marques          : LibXC Library
   Liviu Ungur et al                             : ANISO software


 Your calculation uses the libint2 library for the computation of 2-el integrals
 For citations please refer to: http://libint.valeyev.net

 Your ORCA version has been built with support for libXC version: 5.1.0
 For citations please refer to: https://tddft.org/programs/libxc/

 This ORCA versions uses:
   CBLAS   interface :  Fast vector & matrix operations
   LAPACKE interface :  Fast linear algebra routines
   SCALAPACK package :  Parallel linear algebra routines
   Shared memory     :  Shared parallel matrices
   BLAS/LAPACK       :  OpenBLAS 0.3.15  USE64BITINT DYNAMIC_ARCH NO_AFFINITY Haswell SINGLE_THREADED
        Core in use  :  Haswell
   Copyright (c) 2011-2014, The OpenBLAS Project




***************************************
The coordinates will be read from file: 26.xyz
***************************************


Your calculation utilizes the geometrical counterpoise correction gCP
Please cite in your paper:
H.Kruse, S. Grimme J.Chem.Phys., 136, (2012), 154101 
   

Your calculation utilizes the atom-pairwise dispersion correction
with the Becke-Johnson damping scheme (D3BJ)
Cite in your paper:
S.Grimme, S.Ehrlich, L.Goerigk, J Comput Chem, (2011), 32, 1456–1465 
S.Grimme, J.Antony, S.Ehrlich and H.Krieg, J.Chem.Phys., 132, (2010), 154104 
   

Your calculation employs the composite approach PBEh-3c.
Please cite in your paper:
S. Grimme, J. G. Brandenburg, C. Bannwarth, A. Hansen J.Chem.Phys., 143, (2015), 054107 
   

================================================================================

----- Orbital basis set information -----
Your calculation utilizes the basis: def2-mSVP

----- AuxJ basis set information -----
Your calculation utilizes the auxiliary basis: def2/J
   F. Weigend, Phys. Chem. Chem. Phys. 8, 1057 (2006).

================================================================================
                                        WARNINGS
                       Please study these warnings very carefully!
================================================================================


INFO   : the flag for use of the SHARK integral package has been found!

================================================================================
                                       INPUT FILE
================================================================================
NAME = pbeh-3c.inp
|  1> ! PBEh-3c def2/J TightSCF DefGrid3
|  2> 
|  3> %maxcore 60000
|  4> 
|  5> %pal
|  6> nprocs 4
|  7> end
|  8> 
|  9> *xyzfile 1 1 26.xyz
| 10> 
| 11>                          ****END OF INPUT****
================================================================================

                       ****************************
                       * Single Point Calculation *
                       ****************************

---------------------------------
CARTESIAN COORDINATES (ANGSTROEM)
---------------------------------
  Na     0.146762    0.286176    1.813657
  C      0.126847    1.517567   -0.742537
  C     -1.115654    0.848286   -0.666477
  C     -1.154194   -0.560781   -0.563728
  C      0.049758   -1.300588   -0.537072
  C      1.292272   -0.631317   -0.613167
  C      1.330821    0.777771   -0.715913
  H      2.223410   -1.205719   -0.618605
  H      2.291789    1.293823   -0.800852
  H      0.156097    2.606137   -0.848070
  H     -2.047947    1.418911   -0.713229
  H     -2.116318   -1.080600   -0.530946
  H      0.019351   -2.392922   -0.483624

----------------------------
CARTESIAN COORDINATES (A.U.)
----------------------------
  NO LB      ZA    FRAG     MASS         X           Y           Z
   0 Na   11.0000    0    22.990    0.277341    0.540793    3.427315
   1 C     6.0000    0    12.011    0.239706    2.867785   -1.403193
   2 C     6.0000    0    12.011   -2.108280    1.603028   -1.259458
   3 C     6.0000    0    12.011   -2.181111   -1.059723   -1.065292
   4 C     6.0000    0    12.011    0.094028   -2.457755   -1.014919
   5 C     6.0000    0    12.011    2.442040   -1.193017   -1.158718
   6 C     6.0000    0    12.011    2.514887    1.469774   -1.352880
   7 H     1.0000    0     1.008    4.201635   -2.278479   -1.168994
   8 H     1.0000    0     1.008    4.330854    2.444971   -1.513390
   9 H     1.0000    0     1.008    0.294981    4.924886   -1.602620
  10 H     1.0000    0     1.008   -3.870059    2.681353   -1.347807
  11 H     1.0000    0     1.008   -3.999262   -2.042039   -1.003343
  12 H     1.0000    0     1.008    0.036568   -4.521968   -0.913916

--------------------------------
INTERNAL COORDINATES (ANGSTROEM)
--------------------------------
 Na     0   0   0     0.000000000000     0.00000000     0.00000000
 C      1   0   0     2.837402108958     0.00000000     0.00000000
 C      2   1   0     1.413339934887    75.65120272     0.00000000
 C      3   2   1     1.413333986505   120.00007900   296.47723012
 C      4   3   2     1.413337641009   120.00052591     0.00000000
 C      5   4   3     1.413348905790   119.99995586     0.00000000
 C      2   1   3     1.413350344414    75.51583508   233.19261580
 H      6   5   4     1.094067861839   119.99085178   181.58081946
 H      7   2   1     1.094067748418   119.99125428   242.01427245
 H      2   1   3     1.094065264777   121.23284462   116.63404315
 H      3   2   1     1.094061219698   119.99019340   118.06001922
 H      4   3   2     1.094061200650   119.99025137   181.58160955
 H      5   4   3     1.094064051274   119.99110446   181.58084629

---------------------------
INTERNAL COORDINATES (A.U.)
---------------------------
 Na     0   0   0     0.000000000000     0.00000000     0.00000000
 C      1   0   0     5.361912917741     0.00000000     0.00000000
 C      2   1   0     2.670825411070    75.65120272     0.00000000
 C      3   2   1     2.670814170257   120.00007900   296.47723012
 C      4   3   2     2.670821076270   120.00052591     0.00000000
 C      5   4   3     2.670842363620   119.99995586     0.00000000
 C      2   1   3     2.670845082226    75.51583508   233.19261580
 H      6   5   4     2.067488630800   119.99085178   181.58081946
 H      7   2   1     2.067488416466   119.99125428   242.01427245
 H      2   1   3     2.067483723065   121.23284462   116.63404315
 H      3   2   1     2.067476078973   119.99019340   118.06001922
 H      4   3   2     2.067476042978   119.99025137   181.58160955
 H      5   4   3     2.067481429877   119.99110446   181.58084629

---------------------
BASIS SET INFORMATION
---------------------
There are 3 groups of distinct atoms

 Group   1 Type Na  : 10s6p1d contracted to 4s2p1d pattern {5311/51/1}
 Group   2 Type C   : 8s4p1d contracted to 4s2p1d pattern {5111/31/1}
 Group   3 Type H   : 4s contracted to 2s pattern {31}

Atom   0Na   basis set group =>   1
Atom   1C    basis set group =>   2
Atom   2C    basis set group =>   2
Atom   3C    basis set group =>   2
Atom   4C    basis set group =>   2
Atom   5C    basis set group =>   2
Atom   6C    basis set group =>   2
Atom   7H    basis set group =>   3
Atom   8H    basis set group =>   3
Atom   9H    basis set group =>   3
Atom  10H    basis set group =>   3
Atom  11H    basis set group =>   3
Atom  12H    basis set group =>   3
---------------------------------
AUXILIARY/J BASIS SET INFORMATION
---------------------------------
There are 3 groups of distinct atoms

 Group   1 Type Na  : 14s5p5d2f1g contracted to 8s4p4d1f1g pattern {71111111/2111/2111/2/1}
 Group   2 Type C   : 12s5p4d2f1g contracted to 6s4p3d1f1g pattern {711111/2111/211/2/1}
 Group   3 Type H   : 5s2p1d contracted to 3s1p1d pattern {311/2/1}

Atom   0Na   basis set group =>   1
Atom   1C    basis set group =>   2
Atom   2C    basis set group =>   2
Atom   3C    basis set group =>   2
Atom   4C    basis set group =>   2
Atom   5C    basis set group =>   2
Atom   6C    basis set group =>   2
Atom   7H    basis set group =>   3
Atom   8H    basis set group =>   3
Atom   9H    basis set group =>   3
Atom  10H    basis set group =>   3
Atom  11H    basis set group =>   3
Atom  12H    basis set group =>   3


           ************************************************************
           *        Program running with 4 parallel MPI-processes     *
           *              working on a common directory               *
           ************************************************************
------------------------------------------------------------------------------
                           ORCA GTO INTEGRAL CALCULATION
                           -- RI-GTO INTEGRALS CHOSEN --
------------------------------------------------------------------------------
------------------------------------------------------------------------------
                   ___                                                        
                  /   \      - P O W E R E D   B Y -                         
                 /     \                                                     
                 |  |  |   _    _      __       _____    __    __             
                 |  |  |  | |  | |    /  \     |  _  \  |  |  /  |          
                  \  \/   | |  | |   /    \    | | | |  |  | /  /          
                 / \  \   | |__| |  /  /\  \   | |_| |  |  |/  /          
                |  |  |   |  __  | /  /__\  \  |    /   |      \           
                |  |  |   | |  | | |   __   |  |    \   |  |\   \          
                \     /   | |  | | |  |  |  |  | |\  \  |  | \   \       
                 \___/    |_|  |_| |__|  |__|  |_| \__\ |__|  \__/        
                                                                              
                      - O R C A' S   B I G   F R I E N D -                    
                                      &                                       
                       - I N T E G R A L  F E E D E R -                       
                                                                              
 v1 FN, 2020, v2 2021                                                         
------------------------------------------------------------------------------


Reading SHARK input file pbeh-3c.SHARKINP.tmp ... ok
----------------------
SHARK INTEGRAL PACKAGE
----------------------

Number of atoms                             ...     13
Number of basis functions                   ...    117
Number of shells                            ...     61
Maximum angular momentum                    ...      2
Integral batch strategy                     ... SHARK/LIBINT Hybrid
RI-J (if used) integral strategy            ... SPLIT-RIJ (Revised 2003 algorithm where possible)
Printlevel                                  ...      1
Contraction scheme used                     ... SEGMENTED contraction
Coulomb Range Separation                    ... NOT USED
Exchange Range Separation                   ... NOT USED
Finite Nucleus Model                        ... NOT USED
Auxiliary Coulomb fitting basis             ... AVAILABLE
   # of basis functions in Aux-J            ...    416
   # of shells in Aux-J                     ...    138
   Maximum angular momentum in Aux-J        ...      4
Auxiliary J/K fitting basis                 ... NOT available
Auxiliary Correlation fitting basis         ... NOT available
Auxiliary 'external' fitting basis          ... NOT available
Integral threshold                          ...     2.500000e-11
Primitive cut-off                           ...     2.500000e-12
Primitive pair pre-selection threshold      ...     2.500000e-12

Calculating pre-screening integrals         ... done (  0.1 sec) Dimension = 61
Organizing shell pair data                  ... done (  0.2 sec)
Shell pair information
Total number of shell pairs                 ...      1891
Shell pairs after pre-screening             ...      1816
Total number of primitive shell pairs       ...      7259
Primitive shell pairs kept                  ...      5141
          la=0 lb=0:    745 shell pairs
          la=1 lb=0:    560 shell pairs
          la=1 lb=1:    105 shell pairs
          la=2 lb=0:    280 shell pairs
          la=2 lb=1:     98 shell pairs
          la=2 lb=2:     28 shell pairs

Calculating one electron integrals          ... done (  0.0 sec)
Calculating RI/J V-Matrix + Cholesky decomp.... done (  0.1 sec)
Calculating Nuclear repulsion               ... done (  0.0 sec) ENN=    284.687982553154 Eh

SHARK setup successfully completed in   0.9 seconds

Maximum memory used throughout the entire GTOINT-calculation: 10.6 MB


           ************************************************************
           *        Program running with 4 parallel MPI-processes     *
           *              working on a common directory               *
           ************************************************************
-------------------------------------------------------------------------------
                                 ORCA SCF
-------------------------------------------------------------------------------

------------
SCF SETTINGS
------------
Hamiltonian:
 Density Functional     Method          .... DFT(GTOs)
 Exchange Functional    Exchange        .... PBE
   PBE kappa parameter   XKappa         ....  1.024500
   PBE mue parameter    XMuePBE         ....  0.123457
 Correlation Functional Correlation     .... PBE
   PBE beta parameter  CBetaPBE         ....  0.030000
 LDA part of GGA corr.  LDAOpt          .... PW91-LDA
 Gradients option       PostSCFGGA      .... off
 Hybrid DFT is turned on
   Fraction HF Exchange ScalHFX         ....  0.420000
   Scaling of DF-GGA-X  ScalDFX         ....  0.580000
   Scaling of DF-GGA-C  ScalDFC         ....  1.000000
   Scaling of DF-LDA-C  ScalLDAC        ....  1.000000
   Perturbative correction              ....  0.000000
   Density functional embedding theory  .... OFF
 RI-approximation to the Coulomb term is turned on
   Number of AuxJ basis functions       .... 416
   RIJ-ON(X) (HFX calculated with O(N)) .... on
   Number of AuxJ basis functions       .... 416
   RIJ-COSX (HFX calculated with COS-X)).... on


General Settings:
 Integral files         IntName         .... pbeh-3c
 Hartree-Fock type      HFTyp           .... RHF
 Total Charge           Charge          ....    1
 Multiplicity           Mult            ....    1
 Number of Electrons    NEL             ....   52
 Basis Dimension        Dim             ....  117
 Nuclear Repulsion      ENuc            ....    284.6879825532 Eh

Convergence Acceleration:
 DIIS                   CNVDIIS         .... on
   Start iteration      DIISMaxIt       ....    12
   Startup error        DIISStart       ....  0.200000
   # of expansion vecs  DIISMaxEq       ....     5
   Bias factor          DIISBfac        ....   1.050
   Max. coefficient     DIISMaxC        ....  10.000
 Trust-Rad. Augm. Hess. CNVTRAH         .... auto
   Auto Start mean grad. ratio tolernc. ....  1.125000
   Auto Start start iteration           ....    20
   Auto Start num. interpolation iter.  ....    10
   Max. Number of Micro iterations      ....    16
   Max. Number of Macro iterations      .... Maxiter - #DIIS iter
   Number of Davidson start vectors     ....     2
   Converg. threshold I  (grad. norm)   ....   1.000e-05
   Converg. threshold II (energy diff.) ....   1.000e-08
   Grad. Scal. Fac. for Micro threshold ....   0.100
   Minimum threshold for Micro iter.    ....   0.010
   NR start threshold (gradient norm)   ....   0.001
   Initial trust radius                 ....   0.400
   Minimum AH scaling param. (alpha)    ....   1.000
   Maximum AH scaling param. (alpha)    .... 1000.000
   Orbital update algorithm             .... Taylor
   White noise on init. David. guess    .... on
   Maximum white noise                  ....   0.010
   Quad. conv. algorithm                .... NR
   COSX micro iterations for RIJONX calc.... off
 SOSCF                  CNVSOSCF        .... on
   Start iteration      SOSCFMaxIt      ....   150
   Startup grad/error   SOSCFStart      ....  0.003300
 Level Shifting         CNVShift        .... on
   Level shift para.    LevelShift      ....    0.2500
   Turn off err/grad.   ShiftErr        ....    0.0010
 Zerner damping         CNVZerner       .... off
 Static damping         CNVDamp         .... on
   Fraction old density DampFac         ....    0.7000
   Max. Damping (<1)    DampMax         ....    0.9800
   Min. Damping (>=0)   DampMin         ....    0.0000
   Turn off err/grad.   DampErr         ....    0.1000
 Fernandez-Rico         CNVRico         .... off

SCF Procedure:
 Maximum # iterations   MaxIter         ....   125
 SCF integral mode      SCFMode         .... Direct
   Integral package                     .... SHARK and LIBINT hybrid scheme
 Reset frequency        DirectResetFreq ....    20
 Integral Threshold     Thresh          ....  2.500e-11 Eh
 Primitive CutOff       TCut            ....  2.500e-12 Eh

Convergence Tolerance:
 Convergence Check Mode ConvCheckMode   .... Total+1el-Energy
 Convergence forced     ConvForced      .... 0
 Energy Change          TolE            ....  1.000e-08 Eh
 1-El. energy change                    ....  1.000e-05 Eh
 Orbital Gradient       TolG            ....  1.000e-05
 Orbital Rotation angle TolX            ....  1.000e-05
 DIIS Error             TolErr          ....  5.000e-07


Diagonalization of the overlap matrix:
Smallest eigenvalue                        ... 5.473e-04
Time for diagonalization                   ...    0.004 sec
Threshold for overlap eigenvalues          ... 1.000e-08
Number of eigenvalues below threshold      ... 0
Time for construction of square roots      ...    0.005 sec
Total time needed                          ...    0.016 sec

--------------------------------
INITIAL GUESS: MINIMAL BASIS EHT
--------------------------------
The minimal basis has 45 functions
EHT matrix was diagonalized
Basis set overlap was calculated now projecting the orbitals
Using GuessMode=FMatrix for the initial guess
C*T matrix was formed
Effective Fockian was calculated
Effective Fockian was diagonalized
Initial density was built
                      ------------------
                      INITIAL GUESS DONE
                      ------------------
-------------------
DFT GRID GENERATION
-------------------

General Integration Accuracy     IntAcc      ... 4.959
Radial Grid Type                 RadialGrid  ... OptM3 with GC (2021)
Angular Grid (max. ang.)         AngularGrid ... 6 (Lebedev-590)
Angular grid pruning method      GridPruning ... 4 (adaptive)
Weight generation scheme         WeightScheme... Becke
Basis function cutoff            BFCut       ... 1.0000e-11
Integration weight cutoff        WCut        ... 1.0000e-14
Angular grids for H and He will be reduced by one unit
Partially contracted basis set               ... off
Rotationally invariant grid construction     ... off

Total number of grid points                  ...   153264
Total number of batches                      ...     2402
Average number of points per batch           ...       63
Average number of grid points per atom       ...    11790
Time for grid setup =    2.375 sec

--------------------
COSX GRID GENERATION
--------------------

GRIDX 1
-------
General Integration Accuracy     IntAcc      ... 4.020
Radial Grid Type                 RadialGrid  ... OptM3 with GC (2021)
Angular Grid (max. ang.)         AngularGrid ... 2 (Lebedev-110)
Angular grid pruning method      GridPruning ... 4 (adaptive)
Weight generation scheme         WeightScheme... Becke
Basis function cutoff            BFCut       ... 1.0000e-11
Integration weight cutoff        WCut        ... 1.0000e-14
Angular grids for H and He will be reduced by one unit
Partially contracted basis set               ... on
Rotationally invariant grid construction     ... off

Total number of grid points                  ...    17170
Total number of batches                      ...      275
Average number of points per batch           ...       62
Average number of grid points per atom       ...     1321
UseSFitting                                  ... on

GRIDX 2
-------
General Integration Accuracy     IntAcc      ... 4.338
Radial Grid Type                 RadialGrid  ... OptM3 with GC (2021)
Angular Grid (max. ang.)         AngularGrid ... 3 (Lebedev-194)
Angular grid pruning method      GridPruning ... 4 (adaptive)
Weight generation scheme         WeightScheme... Becke
Basis function cutoff            BFCut       ... 1.0000e-11
Integration weight cutoff        WCut        ... 1.0000e-14
Angular grids for H and He will be reduced by one unit
Partially contracted basis set               ... on
Rotationally invariant grid construction     ... off

Total number of grid points                  ...    38357
Total number of batches                      ...      606
Average number of points per batch           ...       63
Average number of grid points per atom       ...     2951
UseSFitting                                  ... on

GRIDX 3
-------
General Integration Accuracy     IntAcc      ... 4.871
Radial Grid Type                 RadialGrid  ... OptM3 with GC (2021)
Angular Grid (max. ang.)         AngularGrid ... 4 (Lebedev-302)
Angular grid pruning method      GridPruning ... 4 (adaptive)
Weight generation scheme         WeightScheme... Becke
Basis function cutoff            BFCut       ... 1.0000e-11
Integration weight cutoff        WCut        ... 1.0000e-14
Angular grids for H and He will be reduced by one unit
Partially contracted basis set               ... on
Rotationally invariant grid construction     ... off

Total number of grid points                  ...    72397
Total number of batches                      ...     1138
Average number of points per batch           ...       63
Average number of grid points per atom       ...     5569
UseSFitting                                  ... on

Time for X-Grid setup             =    1.804 sec

--------------
SCF ITERATIONS
--------------
ITER       Energy         Delta-E        Max-DP      RMS-DP      [F,P]     Damp
               ***  Starting incremental Fock matrix formation  ***
  0   -393.0102520534   0.000000000000 0.05483469  0.00313116  0.3866273 0.7000
  1   -393.1754849893  -0.165232935872 0.04244910  0.00241769  0.2728356 0.7000
                               ***Turning on DIIS***
  2   -393.2960228354  -0.120537846105 0.03213055  0.00182993  0.1914310 0.7000
  3   -393.3824560061  -0.086433170677 0.02553829  0.00147312  0.1342351 0.7000
  4   -393.4442295166  -0.061773510557 0.06457161  0.00371604  0.0940178 0.0000
                      *** Initiating the SOSCF procedure ***
                           *** Shutting down DIIS ***
                      *** Re-Reading the Fockian *** 
                      *** Removing any level shift *** 
ITER      Energy       Delta-E        Grad      Rot      Max-DP    RMS-DP
  5   -393.59356526  -0.1493357467  0.002519  0.002519  0.002710  0.000158
               *** Restarting incremental Fock matrix formation ***
  6   -393.59373387  -0.0001686049  0.001292  0.003441  0.002370  0.000093
  7   -393.59377170  -0.0000378282  0.000282  0.000784  0.000642  0.000038
  8   -393.59377316  -0.0000014637  0.000214  0.000176  0.000228  0.000012
  9   -393.59377392  -0.0000007574  0.000009  0.000029  0.000020  0.000001
 10   -393.59377392  -0.0000000030  0.000003  0.000006  0.000006  0.000000
                  ***Gradient check signals convergence***
              ***Rediagonalizing the Fockian in SOSCF/NRSCF***

               *****************************************************
               *                     SUCCESS                       *
               *           SCF CONVERGED AFTER  11 CYCLES          *
               *****************************************************

Old exchange energy                            =    -19.732150731 Eh
New exchange energy                            =    -19.732144533 Eh
Exchange energy change after final integration =      0.000006198 Eh
Total energy after final integration           =   -393.593767723 Eh
Final COS-X integration done in                =     2.894 sec

----------------
TOTAL SCF ENERGY
----------------

Total Energy       :         -393.59376772 Eh          -10710.23092 eV

Components:
Nuclear Repulsion  :          284.68798255 Eh            7746.75384 eV
Electronic Energy  :         -678.28175028 Eh          -18456.98476 eV
One Electron Energy:        -1094.63796548 Eh          -29786.61336 eV
Two Electron Energy:          416.35621520 Eh           11329.62860 eV
Max COSX asymmetry :            0.00000068 Eh               0.00002 eV

Virial components:
Potential Energy   :         -784.38588384 Eh          -21344.22502 eV
Kinetic Energy     :          390.79211611 Eh           10633.99410 eV
Virial Ratio       :            2.00716916


DFT components:
N(Alpha)           :       25.999998678986 electrons
N(Beta)            :       25.999998678986 electrons
N(Total)           :       51.999997357971 electrons
E(X)               :      -26.215028507830 Eh       
E(C)               :       -2.297502002670 Eh       
E(XC)              :      -28.512530510500 Eh       
DFET-embed. en.    :        0.000000000000 Eh       

---------------
SCF CONVERGENCE
---------------

  Last Energy change         ...   -5.1222e-10  Tolerance :   1.0000e-08
  Last MAX-Density change    ...    2.2204e-15  Tolerance :   1.0000e-07
  Last RMS-Density change    ...    4.5580e-17  Tolerance :   5.0000e-09
  Last Orbital Gradient      ...    2.0646e-06  Tolerance :   1.0000e-05
  Last Orbital Rotation      ...    3.6117e-06  Tolerance :   1.0000e-05

             **** THE GBW FILE WAS UPDATED (pbeh-3c.gbw) ****
             **** DENSITY pbeh-3c.scfp WAS UPDATED ****
             **** ENERGY FILE WAS UPDATED (pbeh-3c.en.tmp) ****
             **** THE GBW FILE WAS UPDATED (pbeh-3c.gbw) ****
             **** DENSITY pbeh-3c.scfp WAS UPDATED ****
----------------
ORBITAL ENERGIES
----------------

  NO   OCC          E(Eh)            E(eV) 
   0   2.0000     -39.179908     -1066.1395 
   1   2.0000     -10.627470      -289.1882 
   2   2.0000     -10.627262      -289.1825 
   3   2.0000     -10.627260      -289.1824 
   4   2.0000     -10.626685      -289.1668 
   5   2.0000     -10.626684      -289.1668 
   6   2.0000     -10.626480      -289.1612 
   7   2.0000      -2.614012       -71.1309 
   8   2.0000      -1.488329       -40.4995 
   9   2.0000      -1.488329       -40.4995 
  10   2.0000      -1.488175       -40.4953 
  11   2.0000      -1.120736       -30.4968 
  12   2.0000      -1.003409       -27.3041 
  13   2.0000      -1.003408       -27.3041 
  14   2.0000      -0.843821       -22.9615 
  15   2.0000      -0.843820       -22.9615 
  16   2.0000      -0.752026       -20.4637 
  17   2.0000      -0.687618       -18.7110 
  18   2.0000      -0.674542       -18.3552 
  19   2.0000      -0.645590       -17.5674 
  20   2.0000      -0.645588       -17.5674 
  21   2.0000      -0.598043       -16.2736 
  22   2.0000      -0.563424       -15.3315 
  23   2.0000      -0.563423       -15.3315 
  24   2.0000      -0.470185       -12.7944 
  25   2.0000      -0.470184       -12.7943 
  26   0.0000      -0.177398        -4.8272 
  27   0.0000      -0.162865        -4.4318 
  28   0.0000      -0.162864        -4.4318 
  29   0.0000      -0.094780        -2.5791 
  30   0.0000      -0.094771        -2.5788 
  31   0.0000      -0.066414        -1.8072 
  32   0.0000      -0.045594        -1.2407 
  33   0.0000       0.012762         0.3473 
  34   0.0000       0.019853         0.5402 
  35   0.0000       0.053578         1.4579 
  36   0.0000       0.053578         1.4579 
  37   0.0000       0.063014         1.7147 
  38   0.0000       0.063016         1.7147 
  39   0.0000       0.099358         2.7037 
  40   0.0000       0.134613         3.6630 
  41   0.0000       0.134615         3.6631 
  42   0.0000       0.159571         4.3422 
  43   0.0000       0.159573         4.3422 
  44   0.0000       0.172321         4.6891 
  45   0.0000       0.172327         4.6892 
  46   0.0000       0.180461         4.9106 
  47   0.0000       0.180463         4.9106 
  48   0.0000       0.200684         5.4609 
  49   0.0000       0.293559         7.9881 
  50   0.0000       0.408982        11.1290 
  51   0.0000       0.415739        11.3128 
  52   0.0000       0.419272        11.4090 
  53   0.0000       0.446687        12.1550 
  54   0.0000       0.446692        12.1551 
  55   0.0000       0.452906        12.3242 
  56   0.0000       0.452908        12.3242 
  57   0.0000       0.477272        12.9872 
  58   0.0000       0.526424        14.3247 
  59   0.0000       0.526430        14.3249 
  60   0.0000       0.547985        14.9114 
  61   0.0000       0.600616        16.3436 
  62   0.0000       0.600631        16.3440 
  63   0.0000       0.616641        16.7797 
  64   0.0000       0.766370        20.8540 
  65   0.0000       0.786058        21.3897 
  66   0.0000       0.786059        21.3898 
  67   0.0000       0.790393        21.5077 
  68   0.0000       0.812208        22.1013 
  69   0.0000       0.812210        22.1014 
  70   0.0000       0.903247        24.5786 
  71   0.0000       0.903252        24.5787 
  72   0.0000       0.908923        24.7331 
  73   0.0000       0.945683        25.7333 
  74   0.0000       0.945694        25.7336 
  75   0.0000       0.946933        25.7674 
  76   0.0000       0.946941        25.7676 
  77   0.0000       0.994239        27.0546 
  78   0.0000       1.118646        30.4399 
  79   0.0000       1.118650        30.4400 
  80   0.0000       1.130273        30.7563 
  81   0.0000       1.328332        36.1458 
  82   0.0000       1.358098        36.9557 
  83   0.0000       1.358100        36.9558 
  84   0.0000       1.386969        37.7413 
  85   0.0000       1.400491        38.1093 
  86   0.0000       1.400495        38.1094 
  87   0.0000       1.630153        44.3587 
  88   0.0000       1.638124        44.5756 
  89   0.0000       1.734140        47.1883 
  90   0.0000       1.868197        50.8362 
  91   0.0000       1.868200        50.8363 
  92   0.0000       1.932513        52.5863 
  93   0.0000       1.932516        52.5864 
  94   0.0000       1.996285        54.3217 
  95   0.0000       1.996286        54.3217 
  96   0.0000       2.027496        55.1710 
  97   0.0000       2.027500        55.1711 
  98   0.0000       2.171862        59.0994 
  99   0.0000       2.186585        59.5000 
 100   0.0000       2.186592        59.5002 
 101   0.0000       2.392479        65.1027 
 102   0.0000       2.392486        65.1029 
 103   0.0000       2.517885        68.5151 
 104   0.0000       2.556652        69.5700 
 105   0.0000       2.556660        69.5702 
 106   0.0000       2.572618        70.0045 
 107   0.0000       2.572624        70.0047 
 108   0.0000       2.637889        71.7806 
 109   0.0000       2.865368        77.9706 
 110   0.0000       3.215739        87.5047 
 111   0.0000      13.181567       358.6887 
 112   0.0000      13.553058       368.7974 
 113   0.0000      13.553063       368.7976 
 114   0.0000      13.909742       378.5033 
 115   0.0000      13.909750       378.5036 
 116   0.0000      14.302347       389.1866 

                    ********************************
                    * MULLIKEN POPULATION ANALYSIS *
                    ********************************

-----------------------
MULLIKEN ATOMIC CHARGES
-----------------------
   0 Na:    0.831956
   1 C :   -0.260683
   2 C :   -0.260401
   3 C :   -0.260356
   4 C :   -0.260656
   5 C :   -0.260840
   6 C :   -0.260889
   7 H :    0.288657
   8 H :    0.288665
   9 H :    0.288640
  10 H :    0.288630
  11 H :    0.288625
  12 H :    0.288651
Sum of atomic charges:    1.0000000

--------------------------------
MULLIKEN REDUCED ORBITAL CHARGES
--------------------------------
  0 Nas       :     4.055436  s :     4.055436
      pz      :     2.010221  p :     6.075219
      px      :     2.032553
      py      :     2.032446
      dz2     :     0.006406  d :     0.037388
      dxz     :     0.015857
      dyz     :     0.015720
      dx2y2   :    -0.000297
      dxy     :    -0.000297
  1 C s       :     3.286416  s :     3.286416
      pz      :     0.958155  p :     2.935633
      px      :     0.883777
      py      :     1.093701
      dz2     :     0.003696  d :     0.038633
      dxz     :     0.006411
      dyz     :     0.002491
      dx2y2   :     0.014721
      dxy     :     0.011314
  2 C s       :     3.286354  s :     3.286354
      pz      :     0.957024  p :     2.935416
      px      :     1.036597
      py      :     0.941795
      dz2     :     0.003707  d :     0.038632
      dxz     :     0.003582
      dyz     :     0.005281
      dx2y2   :     0.011992
      dxy     :     0.014070
  3 C s       :     3.286322  s :     3.286322
      pz      :     0.957626  p :     2.935401
      px      :     1.046541
      py      :     0.931235
      dz2     :     0.003597  d :     0.038632
      dxz     :     0.003474
      dyz     :     0.005479
      dx2y2   :     0.012404
      dxy     :     0.013678
  4 C s       :     3.286392  s :     3.286392
      pz      :     0.958288  p :     2.935631
      px      :     0.883773
      py      :     1.093570
      dz2     :     0.003545  d :     0.038634
      dxz     :     0.006327
      dyz     :     0.002678
      dx2y2   :     0.014688
      dxy     :     0.011396
  5 C s       :     3.286427  s :     3.286427
      pz      :     0.957322  p :     2.935778
      px      :     1.036740
      py      :     0.941716
      dz2     :     0.003667  d :     0.038635
      dxz     :     0.003598
      dyz     :     0.005296
      dx2y2   :     0.012058
      dxy     :     0.014017
  6 C s       :     3.286472  s :     3.286472
      pz      :     0.957777  p :     2.935783
      px      :     1.046696
      py      :     0.931310
      dz2     :     0.003709  d :     0.038634
      dxz     :     0.003390
      dyz     :     0.005490
      dx2y2   :     0.012328
      dxy     :     0.013717
  7 H s       :     0.711343  s :     0.711343
  8 H s       :     0.711335  s :     0.711335
  9 H s       :     0.711360  s :     0.711360
 10 H s       :     0.711370  s :     0.711370
 11 H s       :     0.711375  s :     0.711375
 12 H s       :     0.711349  s :     0.711349


                     *******************************
                     * LOEWDIN POPULATION ANALYSIS *
                     *******************************

----------------------
LOEWDIN ATOMIC CHARGES
----------------------
   0 Na:    0.505177
   1 C :   -0.090523
   2 C :   -0.090474
   3 C :   -0.090473
   4 C :   -0.090513
   5 C :   -0.090542
   6 C :   -0.090542
   7 H :    0.172998
   8 H :    0.173006
   9 H :    0.172982
  10 H :    0.172965
  11 H :    0.172961
  12 H :    0.172979

-------------------------------
LOEWDIN REDUCED ORBITAL CHARGES
-------------------------------
  0 Nas       :     4.093524  s :     4.093524
      pz      :     2.083658  p :     6.209479
      px      :     2.062862
      py      :     2.062959
      dz2     :     0.034493  d :     0.191821
      dxz     :     0.075149
      dyz     :     0.074575
      dx2y2   :     0.003802
      dxy     :     0.003802
  1 C s       :     2.894041  s :     2.894041
      pz      :     0.936587  p :     3.110828
      px      :     1.076369
      py      :     1.097873
      dz2     :     0.006258  d :     0.085654
      dxz     :     0.012876
      dyz     :     0.003449
      dx2y2   :     0.034200
      dxy     :     0.028870
  2 C s       :     2.894093  s :     2.894093
      pz      :     0.936883  p :     3.110730
      px      :     1.091853
      py      :     1.081994
      dz2     :     0.006263  d :     0.085651
      dxz     :     0.006110
      dyz     :     0.010190
      dx2y2   :     0.029937
      dxy     :     0.033152
  3 C s       :     2.894097  s :     2.894097
      pz      :     0.937623  p :     3.110725
      px      :     1.092870
      py      :     1.080231
      dz2     :     0.006086  d :     0.085651
      dxz     :     0.005671
      dyz     :     0.010708
      dx2y2   :     0.030545
      dxy     :     0.032642
  4 C s       :     2.894051  s :     2.894051
      pz      :     0.937958  p :     3.110808
      px      :     1.076356
      py      :     1.096495
      dz2     :     0.006005  d :     0.085653
      dxz     :     0.012777
      dyz     :     0.003646
      dx2y2   :     0.034255
      dxy     :     0.028969
  5 C s       :     2.893997  s :     2.893997
      pz      :     0.937439  p :     3.110888
      px      :     1.092222
      py      :     1.081227
      dz2     :     0.006198  d :     0.085657
      dxz     :     0.006047
      dyz     :     0.010284
      dx2y2   :     0.029980
      dxy     :     0.033147
  6 C s       :     2.893995  s :     2.893995
      pz      :     0.936799  p :     3.110892
      px      :     1.093244
      py      :     1.080849
      dz2     :     0.006274  d :     0.085656
      dxz     :     0.005636
      dyz     :     0.010676
      dx2y2   :     0.030466
      dxy     :     0.032604
  7 H s       :     0.827002  s :     0.827002
  8 H s       :     0.826994  s :     0.826994
  9 H s       :     0.827018  s :     0.827018
 10 H s       :     0.827035  s :     0.827035
 11 H s       :     0.827039  s :     0.827039
 12 H s       :     0.827021  s :     0.827021


                      *****************************
                      * MAYER POPULATION ANALYSIS *
                      *****************************

  NA   - Mulliken gross atomic population
  ZA   - Total nuclear charge
  QA   - Mulliken gross atomic charge
  VA   - Mayer's total valence
  BVA  - Mayer's bonded valence
  FA   - Mayer's free valence

  ATOM       NA         ZA         QA         VA         BVA        FA
  0 Na    10.1680    11.0000     0.8320     0.3345     0.3345    -0.0000
  1 C      6.2607     6.0000    -0.2607     3.7521     3.7521    -0.0000
  2 C      6.2604     6.0000    -0.2604     3.7522     3.7522    -0.0000
  3 C      6.2604     6.0000    -0.2604     3.7522     3.7522     0.0000
  4 C      6.2607     6.0000    -0.2607     3.7521     3.7521     0.0000
  5 C      6.2608     6.0000    -0.2608     3.7521     3.7521     0.0000
  6 C      6.2609     6.0000    -0.2609     3.7521     3.7521     0.0000
  7 H      0.7113     1.0000     0.2887     0.8899     0.8899     0.0000
  8 H      0.7113     1.0000     0.2887     0.8899     0.8899     0.0000
  9 H      0.7114     1.0000     0.2886     0.8900     0.8900    -0.0000
 10 H      0.7114     1.0000     0.2886     0.8900     0.8900    -0.0000
 11 H      0.7114     1.0000     0.2886     0.8900     0.8900     0.0000
 12 H      0.7113     1.0000     0.2887     0.8900     0.8900    -0.0000

  Mayer bond orders larger than 0.100000
B(  1-C ,  2-C ) :   1.3797 B(  1-C ,  6-C ) :   1.3797 B(  1-C ,  9-H ) :   0.8965 
B(  2-C ,  3-C ) :   1.3798 B(  2-C , 10-H ) :   0.8965 B(  3-C ,  4-C ) :   1.3797 
B(  3-C , 11-H ) :   0.8965 B(  4-C ,  5-C ) :   1.3797 B(  4-C , 12-H ) :   0.8965 
B(  5-C ,  6-C ) :   1.3797 B(  5-C ,  7-H ) :   0.8965 B(  6-C ,  8-H ) :   0.8965 


-------
TIMINGS
-------

Total SCF time: 0 days 0 hours 0 min 45 sec 

Total time                  ....      45.680 sec
Sum of individual times     ....      43.407 sec  ( 95.0%)

Fock matrix formation       ....      37.189 sec  ( 81.4%)
  Split-RI-J                ....       3.866 sec  ( 10.4% of F)
  Chain of spheres X        ....      18.695 sec  ( 50.3% of F)
  XC integration            ....       9.642 sec  ( 25.9% of F)
    Basis function eval.    ....       2.038 sec  ( 21.1% of XC)
    Density eval.           ....       1.287 sec  ( 13.3% of XC)
    XC-Functional eval.     ....       0.947 sec  (  9.8% of XC)
    XC-Potential eval.      ....       0.920 sec  (  9.5% of XC)
Diagonalization             ....       0.264 sec  (  0.6%)
Density matrix formation    ....       0.049 sec  (  0.1%)
Population analysis         ....       0.409 sec  (  0.9%)
Initial guess               ....       0.011 sec  (  0.0%)
Orbital Transformation      ....       0.000 sec  (  0.0%)
Orbital Orthonormalization  ....       0.000 sec  (  0.0%)
DIIS solution               ....       1.052 sec  (  2.3%)
SOSCF solution              ....       0.254 sec  (  0.6%)
Grid generation             ....       4.179 sec  (  9.1%)

Maximum memory used throughout the entire SCF-calculation: 52.6 MB


-------------------------------------------------------------------------------
                          DFT DISPERSION CORRECTION                            
                                                                               
                              DFTD3 V3.1  Rev 1                                
                          USING Becke-Johnson damping                          
-------------------------------------------------------------------------------
The PBEh-3c composite method is recognized
Using three-body term ABC
Active option DFTDOPT                   ...         4   

molecular C6(AA) [au] = 2431.704092 


            DFT-D V3
 parameters
 s6 scaling factor         :     1.0000 
 a1 scaling factor         :     0.4860 
 s8 scaling factor         :     0.0000 
 a2 scaling factor         :     4.5000 
 Damping factor alpha9(ATM):    16.0000 
 ad hoc parameters k1-k3   :    16.0000     1.3333    -4.0000 

 Edisp/kcal,au: -3.892542671278  -0.006203160935 
 E6   /kcal   :  -3.901347730 
 E8   /kcal   :  -0.000000000 
 E6(ABC)      :   0.008805059 
 % E8         :   0.000000000 
 % E6(ABC)    :  -0.226203279 

-------------------------   ----------------
Dispersion correction           -0.006203161
-------------------------   ----------------

------------------   -----------------
gCP correction             0.015036616
------------------   -----------------

-------------------------   --------------------
FINAL SINGLE POINT ENERGY      -393.584934267667
-------------------------   --------------------


                            ***************************************
                            *     ORCA property calculations      *
                            ***************************************

                                    ---------------------
                                    Active property flags
                                    ---------------------
   (+) Dipole Moment


------------------------------------------------------------------------------
                       ORCA ELECTRIC PROPERTIES CALCULATION
------------------------------------------------------------------------------

Dipole Moment Calculation                       ... on
Quadrupole Moment Calculation                   ... off
Polarizability Calculation                      ... off
GBWName                                         ... pbeh-3c.gbw
Electron density                                ... pbeh-3c.scfp
The origin for moment calculation is the CENTER OF MASS  = ( 0.191931,  0.281155 -0.157757)

-------------
DIPOLE MOMENT
-------------
                                X             Y             Z
Electronic contribution:      0.17954       0.54941       7.58719
Nuclear contribution   :     -0.11926      -0.36320      -5.01527
                        -----------------------------------------
Total Dipole Moment    :      0.06029       0.18621       2.57192
                        -----------------------------------------
Magnitude (a.u.)       :      2.57935
Magnitude (Debye)      :      6.55620



--------------------
Rotational spectrum 
--------------------
 
Rotational constants in cm-1:     0.092641     0.084836     0.084836 
Rotational constants in MHz :  2777.292606  2543.326335  2543.311413 

 Dipole components along the rotational axes: 
x,y,z [a.u.] :     2.579256    -0.000120     0.022491 
x,y,z [Debye]:     6.555947    -0.000304     0.057167 

 

Timings for individual modules:

Sum of individual times         ...       47.319 sec (=   0.789 min)
GTO integral calculation        ...        1.322 sec (=   0.022 min)   2.8 %
SCF iterations                  ...       45.998 sec (=   0.767 min)  97.2 %
                             ****ORCA TERMINATED NORMALLY****
TOTAL RUN TIME: 0 days 0 hours 0 minutes 48 seconds 355 msec
