
                                 *****************
                                 * O   R   C   A *
                                 *****************

                                            #,                                       
                                            ###                                      
                                            ####                                     
                                            #####                                    
                                            ######                                   
                                           ########,                                 
                                     ,,################,,,,,                         
                               ,,#################################,,                 
                          ,,##########################################,,             
                       ,#########################################, ''#####,          
                    ,#############################################,,   '####,        
                  ,##################################################,,,,####,       
                ,###########''''           ''''###############################       
              ,#####''   ,,,,##########,,,,          '''####'''          '####       
            ,##' ,,,,###########################,,,                        '##       
           ' ,,###''''                  '''############,,,                           
         ,,##''                                '''############,,,,        ,,,,,,###''
      ,#''                                            '''#######################'''  
     '                                                          ''''####''''         
             ,#######,   #######,   ,#######,      ##                                
            ,#'     '#,  ##    ##  ,#'     '#,    #''#        ######   ,####,        
            ##       ##  ##   ,#'  ##            #'  '#       #        #'  '#        
            ##       ##  #######   ##           ,######,      #####,   #    #        
            '#,     ,#'  ##    ##  '#,     ,#' ,#      #,         ##   #,  ,#        
             '#######'   ##     ##  '#######'  #'      '#     #####' # '####'        



                  #######################################################
                  #                        -***-                        #
                  #          Department of theory and spectroscopy      #
                  #    Directorship and core code : Frank Neese         #
                  #        Max Planck Institute fuer Kohlenforschung    #
                  #                Kaiser Wilhelm Platz 1               #
                  #                 D-45470 Muelheim/Ruhr               #
                  #                      Germany                        #
                  #                                                     #
                  #                  All rights reserved                #
                  #                        -***-                        #
                  #######################################################


                         Program Version 5.0.3 -  RELEASE  -


 With contributions from (in alphabetic order):
   Daniel Aravena         : Magnetic Suceptibility
   Michael Atanasov       : Ab Initio Ligand Field Theory (pilot matlab implementation)
   Alexander A. Auer      : GIAO ZORA, VPT2 properties, NMR spectrum
   Ute Becker             : Parallelization
   Giovanni Bistoni       : ED, misc. LED, open-shell LED, HFLD
   Martin Brehm           : Molecular dynamics
   Dmytro Bykov           : SCF Hessian
   Vijay G. Chilkuri      : MRCI spin determinant printing, contributions to CSF-ICE
   Dipayan Datta          : RHF DLPNO-CCSD density
   Achintya Kumar Dutta   : EOM-CC, STEOM-CC
   Dmitry Ganyushin       : Spin-Orbit,Spin-Spin,Magnetic field MRCI
   Miquel Garcia          : C-PCM and meta-GGA Hessian, CC/C-PCM, Gaussian charge scheme
   Yang Guo               : DLPNO-NEVPT2, F12-NEVPT2, CIM, IAO-localization
   Andreas Hansen         : Spin unrestricted coupled pair/coupled cluster methods
   Benjamin Helmich-Paris : MC-RPA, TRAH-SCF, COSX integrals
   Lee Huntington         : MR-EOM, pCC
   Robert Izsak           : Overlap fitted RIJCOSX, COSX-SCS-MP3, EOM
   Marcus Kettner         : VPT2
   Christian Kollmar      : KDIIS, OOCD, Brueckner-CCSD(T), CCSD density, CASPT2, CASPT2-K
   Simone Kossmann        : Meta GGA functionals, TD-DFT gradient, OOMP2, MP2 Hessian
   Martin Krupicka        : Initial AUTO-CI
   Lucas Lang             : DCDCAS
   Marvin Lechner         : AUTO-CI (C++ implementation), FIC-MRCC
   Dagmar Lenk            : GEPOL surface, SMD
   Dimitrios Liakos       : Extrapolation schemes; Compound Job, initial MDCI parallelization
   Dimitrios Manganas     : Further ROCIS development; embedding schemes
   Dimitrios Pantazis     : SARC Basis sets
   Anastasios Papadopoulos: AUTO-CI, single reference methods and gradients
   Taras Petrenko         : DFT Hessian,TD-DFT gradient, ASA, ECA, R-Raman, ABS, FL, XAS/XES, NRVS
   Peter Pinski           : DLPNO-MP2, DLPNO-MP2 Gradient
   Christoph Reimann      : Effective Core Potentials
   Marius Retegan         : Local ZFS, SOC
   Christoph Riplinger    : Optimizer, TS searches, QM/MM, DLPNO-CCSD(T), (RO)-DLPNO pert. Triples
   Tobias Risthaus        : Range-separated hybrids, TD-DFT gradient, RPA, STAB
   Michael Roemelt        : Original ROCIS implementation
   Masaaki Saitow         : Open-shell DLPNO-CCSD energy and density
   Barbara Sandhoefer     : DKH picture change effects
   Avijit Sen             : IP-ROCIS
   Kantharuban Sivalingam : CASSCF convergence, NEVPT2, FIC-MRCI
   Bernardo de Souza      : ESD, SOC TD-DFT
   Georgi Stoychev        : AutoAux, RI-MP2 NMR, DLPNO-MP2 response
   Willem Van den Heuvel  : Paramagnetic NMR
   Boris Wezisla          : Elementary symmetry handling
   Frank Wennmohs         : Technical directorship


 We gratefully acknowledge several colleagues who have allowed us to
 interface, adapt or use parts of their codes:
   Stefan Grimme, W. Hujo, H. Kruse, P. Pracht,  : VdW corrections, initial TS optimization,
                  C. Bannwarth, S. Ehlert          DFT functionals, gCP, sTDA/sTD-DF
   Ed Valeev, F. Pavosevic, A. Kumar             : LibInt (2-el integral package), F12 methods
   Garnet Chan, S. Sharma, J. Yang, R. Olivares  : DMRG
   Ulf Ekstrom                                   : XCFun DFT Library
   Mihaly Kallay                                 : mrcc  (arbitrary order and MRCC methods)
   Jiri Pittner, Ondrej Demel                    : Mk-CCSD
   Frank Weinhold                                : gennbo (NPA and NBO analysis)
   Christopher J. Cramer and Donald G. Truhlar   : smd solvation model
   Lars Goerigk                                  : TD-DFT with DH, B97 family of functionals
   V. Asgeirsson, H. Jonsson                     : NEB implementation
   FAccTs GmbH                                   : IRC, NEB, NEB-TS, DLPNO-Multilevel, CI-OPT
                                                   MM, QMMM, 2- and 3-layer-ONIOM, Crystal-QMMM,
                                                   LR-CPCM, SF, NACMEs, symmetry and pop. for TD-DFT,
                                                   nearIR, NL-DFT gradient (VV10), updates on ESD,
                                                   ML-optimized integration grids
   S Lehtola, MJT Oliveira, MAL Marques          : LibXC Library
   Liviu Ungur et al                             : ANISO software


 Your calculation uses the libint2 library for the computation of 2-el integrals
 For citations please refer to: http://libint.valeyev.net

 Your ORCA version has been built with support for libXC version: 5.1.0
 For citations please refer to: https://tddft.org/programs/libxc/

 This ORCA versions uses:
   CBLAS   interface :  Fast vector & matrix operations
   LAPACKE interface :  Fast linear algebra routines
   SCALAPACK package :  Parallel linear algebra routines
   Shared memory     :  Shared parallel matrices
   BLAS/LAPACK       :  OpenBLAS 0.3.15  USE64BITINT DYNAMIC_ARCH NO_AFFINITY Haswell SINGLE_THREADED
        Core in use  :  Haswell
   Copyright (c) 2011-2014, The OpenBLAS Project




***************************************
The coordinates will be read from file: 14.xyz
***************************************


Your calculation utilizes the geometrical counterpoise correction gCP
Please cite in your paper:
H.Kruse, S. Grimme J.Chem.Phys., 136, (2012), 154101 
   

Your calculation utilizes the atom-pairwise dispersion correction
with the Becke-Johnson damping scheme (D3BJ)
Cite in your paper:
S.Grimme, S.Ehrlich, L.Goerigk, J Comput Chem, (2011), 32, 1456–1465 
S.Grimme, J.Antony, S.Ehrlich and H.Krieg, J.Chem.Phys., 132, (2010), 154104 
   

Your calculation employs the composite approach PBEh-3c.
Please cite in your paper:
S. Grimme, J. G. Brandenburg, C. Bannwarth, A. Hansen J.Chem.Phys., 143, (2015), 054107 
   

================================================================================

----- Orbital basis set information -----
Your calculation utilizes the basis: def2-mSVP

----- AuxJ basis set information -----
Your calculation utilizes the auxiliary basis: def2/J
   F. Weigend, Phys. Chem. Chem. Phys. 8, 1057 (2006).

================================================================================
                                        WARNINGS
                       Please study these warnings very carefully!
================================================================================


INFO   : the flag for use of the SHARK integral package has been found!

================================================================================
                                       INPUT FILE
================================================================================
NAME = pbeh-3c.inp
|  1> ! PBEh-3c def2/J TightSCF DefGrid3
|  2> 
|  3> %maxcore 60000
|  4> 
|  5> %pal
|  6> nprocs 4
|  7> end
|  8> 
|  9> *xyzfile 0 1 14.xyz
| 10> 
| 11>                          ****END OF INPUT****
================================================================================

                       ****************************
                       * Single Point Calculation *
                       ****************************

---------------------------------
CARTESIAN COORDINATES (ANGSTROEM)
---------------------------------
  N      1.496232   -3.057165   -0.040003
  C      0.192388   -2.731826    0.265791
  C      0.071028   -1.366637    0.404587
  C      1.377570   -0.821063    0.168116
  C      1.883617    0.497812    0.175341
  C      3.232227    0.684930   -0.089280
  C      4.084441   -0.413575   -0.361737
  C      3.606549   -1.709947   -0.370986
  C      2.244360   -1.904267   -0.103488
  H      1.844852   -3.988211   -0.174870
  H     -0.559473   -3.498010    0.364360
  H      1.226653    1.327839    0.389910
  H      5.126264   -0.205192   -0.561483
  H      4.270049   -2.539653   -0.578189
  O      3.861326    1.902940   -0.114626
  C      3.051470    3.032232    0.157525
  H      2.615388    2.977155    1.157775
  H      2.251208    3.134330   -0.579516
  H      3.708400    3.894766    0.097505
  C     -1.185197   -0.602616    0.680691
  C     -1.759435    0.014941   -0.602423
  N     -2.975141    0.777710   -0.368737
  C     -4.178711    0.158702   -0.208034
  C     -5.348005    1.071202    0.104032
  H     -0.992104    0.194012    1.404828
  H     -1.942302   -1.258897    1.110668
  H     -1.994304   -0.782354   -1.305535
  H     -1.026041    0.673141   -1.068483
  H     -2.913417    1.764231   -0.196483
  O     -4.311619   -1.053141   -0.312611
  H     -6.146195    0.864403   -0.605288
  H     -5.093521    2.128749    0.060880
  H     -5.718559    0.833457    1.099762

----------------------------
CARTESIAN COORDINATES (A.U.)
----------------------------
  NO LB      ZA    FRAG     MASS         X           Y           Z
   0 N     7.0000    0    14.007    2.827469   -5.777205   -0.075594
   1 C     6.0000    0    12.011    0.363561   -5.162404    0.502273
   2 C     6.0000    0    12.011    0.134224   -2.582569    0.764560
   3 C     6.0000    0    12.011    2.603230   -1.551585    0.317692
   4 C     6.0000    0    12.011    3.559520    0.940729    0.331347
   5 C     6.0000    0    12.011    6.108024    1.294331   -0.168716
   6 C     6.0000    0    12.011    7.718475   -0.781544   -0.683585
   7 C     6.0000    0    12.011    6.815390   -3.231332   -0.701063
   8 C     6.0000    0    12.011    4.241226   -3.598544   -0.195565
   9 H     1.0000    0     1.008    3.486265   -7.536627   -0.330457
  10 H     1.0000    0     1.008   -1.057250   -6.610281    0.688540
  11 H     1.0000    0     1.008    2.318038    2.509253    0.736824
  12 H     1.0000    0     1.008    9.687235   -0.387756   -1.061050
  13 H     1.0000    0     1.008    8.069223   -4.799249   -1.092620
  14 O     8.0000    0    15.999    7.296848    3.596036   -0.216611
  15 C     6.0000    0    12.011    5.766443    5.730088    0.297678
  16 H     1.0000    0     1.008    4.942367    5.626008    2.187878
  17 H     1.0000    0     1.008    4.254167    5.923026   -1.095127
  18 H     1.0000    0     1.008    7.007860    7.360041    0.184259
  19 C     6.0000    0    12.011   -2.239697   -1.138780    1.286321
  20 C     6.0000    0    12.011   -3.324850    0.028235   -1.138415
  21 N     7.0000    0    14.007   -5.622201    1.469660   -0.696811
  22 C     6.0000    0    12.011   -7.896618    0.299904   -0.393128
  23 C     6.0000    0    12.011  -10.106266    2.024279    0.196593
  24 H     1.0000    0     1.008   -1.874804    0.366630    2.654741
  25 H     1.0000    0     1.008   -3.670418   -2.378970    2.098859
  26 H     1.0000    0     1.008   -3.768688   -1.478436   -2.467104
  27 H     1.0000    0     1.008   -1.938936    1.272053   -2.019141
  28 H     1.0000    0     1.008   -5.505559    3.333914   -0.371298
  29 O     8.0000    0    15.999   -8.147780   -1.990149   -0.590748
  30 H     1.0000    0     1.008  -11.614626    1.633486   -1.143829
  31 H     1.0000    0     1.008   -9.625361    4.022753    0.115047
  32 H     1.0000    0     1.008  -10.806511    1.575006    2.078250

--------------------------------
INTERNAL COORDINATES (ANGSTROEM)
--------------------------------
 N      0   0   0     0.000000000000     0.00000000     0.00000000
 C      1   0   0     1.378174281767     0.00000000     0.00000000
 C      2   1   0     1.377583406650   109.85505370     0.00000000
 C      3   2   1     1.435486203894   106.25196254     0.08443835
 C      4   3   2     1.412646247610   132.84667540   180.40020967
 C      5   4   3     1.387006348647   118.24783201   179.40608826
 C      6   5   4     1.416762704385   121.12838949     0.06627002
 C      7   6   5     1.381682515801   121.38084326   359.84038746
 C      1   2   3     1.375826942237   109.07843685     0.05393458
 H      1   2   3     1.003280494045   125.28438188   178.86400866
 H      2   1   3     1.077983409980   120.82089233   180.06424486
 H      5   4   3     1.080086203866   120.03939823   359.82913370
 H      7   6   5     1.081072259061   117.75935646   179.95080572
 H      8   7   6     1.082394123951   120.56255252   180.16526769
 O      6   5   4     1.371114842566   124.71476744   180.08110729
 C     15   6   5     1.416062285590   116.26220649     0.24301522
 H     16  15   6     1.092567091580   111.34699954    60.92407696
 H     16  15   6     1.092736198022   111.32865624   298.72569284
 H     16  15   6     1.085874717693   106.07217317   179.85020473
 C      3   2   1     1.496015032878   126.77538500   177.40033697
 C     20   3   2     1.535418798601   111.42143484   260.06199353
 N     21  20   3     1.454086293824   112.91507348   180.60256380
 C     22  21  20     1.362929396944   121.26580168   281.20763156
 C     23  22  21     1.515682170890   115.60136484   176.76956057
 H     20   3   2     1.093744376400   110.23777557   138.84487170
 H     20   3   2     1.090317110999   110.39380614    20.28524079
 H     21  20   3     1.088673797282   109.01659393    60.67404842
 H     21  20   3     1.090094455924   110.39705785   302.03059100
 H     22  21  20     1.003346788916   119.46752189    92.67641024
 O     23  22  21     1.223587585759   122.38868789   356.52365505
 H     24  23  22     1.087662263903   108.50612742   127.47899978
 H     24  23  22     1.088590767262   113.35086514     5.87671230
 H     24  23  22     1.088719862107   108.62738305   244.37726219

---------------------------
INTERNAL COORDINATES (A.U.)
---------------------------
 N      0   0   0     0.000000000000     0.00000000     0.00000000
 C      1   0   0     2.604371957353     0.00000000     0.00000000
 C      2   1   0     2.603255365203   109.85505370     0.00000000
 C      3   2   1     2.712675794381   106.25196254     0.08443835
 C      4   3   2     2.669514532094   132.84667540   180.40020967
 C      5   4   3     2.621062144952   118.24783201   179.40608826
 C      6   5   4     2.677293508042   121.12838949     0.06627002
 C      7   6   5     2.611001558892   121.38084326   359.84038746
 C      1   2   3     2.599936128497   109.07843685     0.05393458
 H      1   2   3     1.895925369250   125.28438188   178.86400866
 H      2   1   3     2.037093421773   120.82089233   180.06424486
 H      5   4   3     2.041067126332   120.03939823   359.82913370
 H      7   6   5     2.042930500604   117.75935646   179.95080572
 H      8   7   6     2.045428463233   120.56255252   180.16526769
 O      6   5   4     2.591031550604   124.71476744   180.08110729
 C     15   6   5     2.675969908340   116.26220649     0.24301522
 H     16  15   6     2.064652586021   111.34699954    60.92407696
 H     16  15   6     2.064972150885   111.32865624   298.72569284
 H     16  15   6     2.052005832188   106.07217317   179.85020473
 C      3   2   1     2.827058704368   126.77538500   177.40033697
 C     20   3   2     2.901521030231   111.42143484   260.06199353
 N     21  20   3     2.747824870416   112.91507348   180.60256380
 C     22  21  20     2.575563300095   121.26580168   281.20763156
 C     23  22  21     2.864224209050   115.60136484   176.76956057
 H     20   3   2     2.066877331912   110.23777557   138.84487170
 H     20   3   2     2.060400738917   110.39380614    20.28524079
 H     21  20   3     2.057295326039   109.01659393    60.67404842
 H     21  20   3     2.059979981802   110.39705785   302.03059100
 H     22  21  20     1.896050648401   119.46752189    92.67641024
 O     23  22  21     2.312245437951   122.38868789   356.52365505
 H     24  23  22     2.055383804977   108.50612742   127.47899978
 H     24  23  22     2.057138422041   113.35086514     5.87671230
 H     24  23  22     2.057382375943   108.62738305   244.37726219

---------------------
BASIS SET INFORMATION
---------------------
There are 4 groups of distinct atoms

 Group   1 Type N   : 8s4p1d contracted to 4s2p1d pattern {5111/31/1}
 Group   2 Type C   : 8s4p1d contracted to 4s2p1d pattern {5111/31/1}
 Group   3 Type H   : 4s contracted to 2s pattern {31}
 Group   4 Type O   : 8s4p1d contracted to 4s2p1d pattern {5111/31/1}

Atom   0N    basis set group =>   1
Atom   1C    basis set group =>   2
Atom   2C    basis set group =>   2
Atom   3C    basis set group =>   2
Atom   4C    basis set group =>   2
Atom   5C    basis set group =>   2
Atom   6C    basis set group =>   2
Atom   7C    basis set group =>   2
Atom   8C    basis set group =>   2
Atom   9H    basis set group =>   3
Atom  10H    basis set group =>   3
Atom  11H    basis set group =>   3
Atom  12H    basis set group =>   3
Atom  13H    basis set group =>   3
Atom  14O    basis set group =>   4
Atom  15C    basis set group =>   2
Atom  16H    basis set group =>   3
Atom  17H    basis set group =>   3
Atom  18H    basis set group =>   3
Atom  19C    basis set group =>   2
Atom  20C    basis set group =>   2
Atom  21N    basis set group =>   1
Atom  22C    basis set group =>   2
Atom  23C    basis set group =>   2
Atom  24H    basis set group =>   3
Atom  25H    basis set group =>   3
Atom  26H    basis set group =>   3
Atom  27H    basis set group =>   3
Atom  28H    basis set group =>   3
Atom  29O    basis set group =>   4
Atom  30H    basis set group =>   3
Atom  31H    basis set group =>   3
Atom  32H    basis set group =>   3
---------------------------------
AUXILIARY/J BASIS SET INFORMATION
---------------------------------
There are 4 groups of distinct atoms

 Group   1 Type N   : 12s5p4d2f1g contracted to 6s4p3d1f1g pattern {711111/2111/211/2/1}
 Group   2 Type C   : 12s5p4d2f1g contracted to 6s4p3d1f1g pattern {711111/2111/211/2/1}
 Group   3 Type H   : 5s2p1d contracted to 3s1p1d pattern {311/2/1}
 Group   4 Type O   : 12s5p4d2f1g contracted to 6s4p3d1f1g pattern {711111/2111/211/2/1}

Atom   0N    basis set group =>   1
Atom   1C    basis set group =>   2
Atom   2C    basis set group =>   2
Atom   3C    basis set group =>   2
Atom   4C    basis set group =>   2
Atom   5C    basis set group =>   2
Atom   6C    basis set group =>   2
Atom   7C    basis set group =>   2
Atom   8C    basis set group =>   2
Atom   9H    basis set group =>   3
Atom  10H    basis set group =>   3
Atom  11H    basis set group =>   3
Atom  12H    basis set group =>   3
Atom  13H    basis set group =>   3
Atom  14O    basis set group =>   4
Atom  15C    basis set group =>   2
Atom  16H    basis set group =>   3
Atom  17H    basis set group =>   3
Atom  18H    basis set group =>   3
Atom  19C    basis set group =>   2
Atom  20C    basis set group =>   2
Atom  21N    basis set group =>   1
Atom  22C    basis set group =>   2
Atom  23C    basis set group =>   2
Atom  24H    basis set group =>   3
Atom  25H    basis set group =>   3
Atom  26H    basis set group =>   3
Atom  27H    basis set group =>   3
Atom  28H    basis set group =>   3
Atom  29O    basis set group =>   4
Atom  30H    basis set group =>   3
Atom  31H    basis set group =>   3
Atom  32H    basis set group =>   3


           ************************************************************
           *        Program running with 4 parallel MPI-processes     *
           *              working on a common directory               *
           ************************************************************
------------------------------------------------------------------------------
                           ORCA GTO INTEGRAL CALCULATION
                           -- RI-GTO INTEGRALS CHOSEN --
------------------------------------------------------------------------------
------------------------------------------------------------------------------
                   ___                                                        
                  /   \      - P O W E R E D   B Y -                         
                 /     \                                                     
                 |  |  |   _    _      __       _____    __    __             
                 |  |  |  | |  | |    /  \     |  _  \  |  |  /  |          
                  \  \/   | |  | |   /    \    | | | |  |  | /  /          
                 / \  \   | |__| |  /  /\  \   | |_| |  |  |/  /          
                |  |  |   |  __  | /  /__\  \  |    /   |      \           
                |  |  |   | |  | | |   __   |  |    \   |  |\   \          
                \     /   | |  | | |  |  |  |  | |\  \  |  | \   \       
                 \___/    |_|  |_| |__|  |__|  |_| \__\ |__|  \__/        
                                                                              
                      - O R C A' S   B I G   F R I E N D -                    
                                      &                                       
                       - I N T E G R A L  F E E D E R -                       
                                                                              
 v1 FN, 2020, v2 2021                                                         
------------------------------------------------------------------------------


Reading SHARK input file pbeh-3c.SHARKINP.tmp ... ok
----------------------
SHARK INTEGRAL PACKAGE
----------------------

Number of atoms                             ...     33
Number of basis functions                   ...    287
Number of shells                            ...    151
Maximum angular momentum                    ...      2
Integral batch strategy                     ... SHARK/LIBINT Hybrid
RI-J (if used) integral strategy            ... SPLIT-RIJ (Revised 2003 algorithm where possible)
Printlevel                                  ...      1
Contraction scheme used                     ... SEGMENTED contraction
Coulomb Range Separation                    ... NOT USED
Exchange Range Separation                   ... NOT USED
Finite Nucleus Model                        ... NOT USED
Auxiliary Coulomb fitting basis             ... AVAILABLE
   # of basis functions in Aux-J            ...   1009
   # of shells in Aux-J                     ...    335
   Maximum angular momentum in Aux-J        ...      4
Auxiliary J/K fitting basis                 ... NOT available
Auxiliary Correlation fitting basis         ... NOT available
Auxiliary 'external' fitting basis          ... NOT available
Integral threshold                          ...     2.500000e-11
Primitive cut-off                           ...     2.500000e-12
Primitive pair pre-selection threshold      ...     2.500000e-12

Calculating pre-screening integrals         ... done (  0.1 sec) Dimension = 151
Organizing shell pair data                  ... done (  0.2 sec)
Shell pair information
Total number of shell pairs                 ...     11476
Shell pairs after pre-screening             ...      7819
Total number of primitive shell pairs       ...     41024
Primitive shell pairs kept                  ...     18090
          la=0 lb=0:   3104 shell pairs
          la=1 lb=0:   2610 shell pairs
          la=1 lb=1:    522 shell pairs
          la=2 lb=0:   1038 shell pairs
          la=2 lb=1:    447 shell pairs
          la=2 lb=2:     98 shell pairs

Calculating one electron integrals          ... done (  0.1 sec)
Calculating RI/J V-Matrix + Cholesky decomp.... done (  0.6 sec)
Calculating Nuclear repulsion               ... done (  0.0 sec) ENN=   1146.140674484033 Eh

SHARK setup successfully completed in   2.2 seconds

Maximum memory used throughout the entire GTOINT-calculation: 17.7 MB


           ************************************************************
           *        Program running with 4 parallel MPI-processes     *
           *              working on a common directory               *
           ************************************************************
-------------------------------------------------------------------------------
                                 ORCA SCF
-------------------------------------------------------------------------------

------------
SCF SETTINGS
------------
Hamiltonian:
 Density Functional     Method          .... DFT(GTOs)
 Exchange Functional    Exchange        .... PBE
   PBE kappa parameter   XKappa         ....  1.024500
   PBE mue parameter    XMuePBE         ....  0.123457
 Correlation Functional Correlation     .... PBE
   PBE beta parameter  CBetaPBE         ....  0.030000
 LDA part of GGA corr.  LDAOpt          .... PW91-LDA
 Gradients option       PostSCFGGA      .... off
 Hybrid DFT is turned on
   Fraction HF Exchange ScalHFX         ....  0.420000
   Scaling of DF-GGA-X  ScalDFX         ....  0.580000
   Scaling of DF-GGA-C  ScalDFC         ....  1.000000
   Scaling of DF-LDA-C  ScalLDAC        ....  1.000000
   Perturbative correction              ....  0.000000
   Density functional embedding theory  .... OFF
 RI-approximation to the Coulomb term is turned on
   Number of AuxJ basis functions       .... 1009
   RIJ-ON(X) (HFX calculated with O(N)) .... on
   Number of AuxJ basis functions       .... 1009
   RIJ-COSX (HFX calculated with COS-X)).... on


General Settings:
 Integral files         IntName         .... pbeh-3c
 Hartree-Fock type      HFTyp           .... RHF
 Total Charge           Charge          ....    0
 Multiplicity           Mult            ....    1
 Number of Electrons    NEL             ....  124
 Basis Dimension        Dim             ....  287
 Nuclear Repulsion      ENuc            ....   1146.1406744840 Eh

Convergence Acceleration:
 DIIS                   CNVDIIS         .... on
   Start iteration      DIISMaxIt       ....    12
   Startup error        DIISStart       ....  0.200000
   # of expansion vecs  DIISMaxEq       ....     5
   Bias factor          DIISBfac        ....   1.050
   Max. coefficient     DIISMaxC        ....  10.000
 Trust-Rad. Augm. Hess. CNVTRAH         .... auto
   Auto Start mean grad. ratio tolernc. ....  1.125000
   Auto Start start iteration           ....    20
   Auto Start num. interpolation iter.  ....    10
   Max. Number of Micro iterations      ....    16
   Max. Number of Macro iterations      .... Maxiter - #DIIS iter
   Number of Davidson start vectors     ....     2
   Converg. threshold I  (grad. norm)   ....   1.000e-05
   Converg. threshold II (energy diff.) ....   1.000e-08
   Grad. Scal. Fac. for Micro threshold ....   0.100
   Minimum threshold for Micro iter.    ....   0.010
   NR start threshold (gradient norm)   ....   0.001
   Initial trust radius                 ....   0.400
   Minimum AH scaling param. (alpha)    ....   1.000
   Maximum AH scaling param. (alpha)    .... 1000.000
   Orbital update algorithm             .... Taylor
   White noise on init. David. guess    .... on
   Maximum white noise                  ....   0.010
   Quad. conv. algorithm                .... NR
   COSX micro iterations for RIJONX calc.... off
 SOSCF                  CNVSOSCF        .... on
   Start iteration      SOSCFMaxIt      ....   150
   Startup grad/error   SOSCFStart      ....  0.003300
 Level Shifting         CNVShift        .... on
   Level shift para.    LevelShift      ....    0.2500
   Turn off err/grad.   ShiftErr        ....    0.0010
 Zerner damping         CNVZerner       .... off
 Static damping         CNVDamp         .... on
   Fraction old density DampFac         ....    0.7000
   Max. Damping (<1)    DampMax         ....    0.9800
   Min. Damping (>=0)   DampMin         ....    0.0000
   Turn off err/grad.   DampErr         ....    0.1000
 Fernandez-Rico         CNVRico         .... off

SCF Procedure:
 Maximum # iterations   MaxIter         ....   125
 SCF integral mode      SCFMode         .... Direct
   Integral package                     .... SHARK and LIBINT hybrid scheme
 Reset frequency        DirectResetFreq ....    20
 Integral Threshold     Thresh          ....  2.500e-11 Eh
 Primitive CutOff       TCut            ....  2.500e-12 Eh

Convergence Tolerance:
 Convergence Check Mode ConvCheckMode   .... Total+1el-Energy
 Convergence forced     ConvForced      .... 0
 Energy Change          TolE            ....  1.000e-08 Eh
 1-El. energy change                    ....  1.000e-05 Eh
 Orbital Gradient       TolG            ....  1.000e-05
 Orbital Rotation angle TolX            ....  1.000e-05
 DIIS Error             TolErr          ....  5.000e-07


Diagonalization of the overlap matrix:
Smallest eigenvalue                        ... 4.199e-04
Time for diagonalization                   ...    0.015 sec
Threshold for overlap eigenvalues          ... 1.000e-08
Number of eigenvalues below threshold      ... 0
Time for construction of square roots      ...    0.687 sec
Total time needed                          ...    0.702 sec

--------------------------------
INITIAL GUESS: MINIMAL BASIS EHT
--------------------------------
The minimal basis has 101 functions
EHT matrix was diagonalized
Basis set overlap was calculated now projecting the orbitals
Using GuessMode=FMatrix for the initial guess
C*T matrix was formed
Effective Fockian was calculated
Effective Fockian was diagonalized
Initial density was built
                      ------------------
                      INITIAL GUESS DONE
                      ------------------
-------------------
DFT GRID GENERATION
-------------------

General Integration Accuracy     IntAcc      ... 4.959
Radial Grid Type                 RadialGrid  ... OptM3 with GC (2021)
Angular Grid (max. ang.)         AngularGrid ... 6 (Lebedev-590)
Angular grid pruning method      GridPruning ... 4 (adaptive)
Weight generation scheme         WeightScheme... Becke
Basis function cutoff            BFCut       ... 1.0000e-11
Integration weight cutoff        WCut        ... 1.0000e-14
Angular grids for H and He will be reduced by one unit
Partially contracted basis set               ... off
Rotationally invariant grid construction     ... off

Total number of grid points                  ...   379160
Total number of batches                      ...     5939
Average number of points per batch           ...       63
Average number of grid points per atom       ...    11490
Time for grid setup =    8.094 sec

--------------------
COSX GRID GENERATION
--------------------

GRIDX 1
-------
General Integration Accuracy     IntAcc      ... 4.020
Radial Grid Type                 RadialGrid  ... OptM3 with GC (2021)
Angular Grid (max. ang.)         AngularGrid ... 2 (Lebedev-110)
Angular grid pruning method      GridPruning ... 4 (adaptive)
Weight generation scheme         WeightScheme... Becke
Basis function cutoff            BFCut       ... 1.0000e-11
Integration weight cutoff        WCut        ... 1.0000e-14
Angular grids for H and He will be reduced by one unit
Partially contracted basis set               ... on
Rotationally invariant grid construction     ... off

Total number of grid points                  ...    42020
Total number of batches                      ...      673
Average number of points per batch           ...       62
Average number of grid points per atom       ...     1273
UseSFitting                                  ... on

GRIDX 2
-------
General Integration Accuracy     IntAcc      ... 4.338
Radial Grid Type                 RadialGrid  ... OptM3 with GC (2021)
Angular Grid (max. ang.)         AngularGrid ... 3 (Lebedev-194)
Angular grid pruning method      GridPruning ... 4 (adaptive)
Weight generation scheme         WeightScheme... Becke
Basis function cutoff            BFCut       ... 1.0000e-11
Integration weight cutoff        WCut        ... 1.0000e-14
Angular grids for H and He will be reduced by one unit
Partially contracted basis set               ... on
Rotationally invariant grid construction     ... off

Total number of grid points                  ...    91850
Total number of batches                      ...     1452
Average number of points per batch           ...       63
Average number of grid points per atom       ...     2783
UseSFitting                                  ... on

GRIDX 3
-------
General Integration Accuracy     IntAcc      ... 4.871
Radial Grid Type                 RadialGrid  ... OptM3 with GC (2021)
Angular Grid (max. ang.)         AngularGrid ... 4 (Lebedev-302)
Angular grid pruning method      GridPruning ... 4 (adaptive)
Weight generation scheme         WeightScheme... Becke
Basis function cutoff            BFCut       ... 1.0000e-11
Integration weight cutoff        WCut        ... 1.0000e-14
Angular grids for H and He will be reduced by one unit
Partially contracted basis set               ... on
Rotationally invariant grid construction     ... off

Total number of grid points                  ...   174008
Total number of batches                      ...     2738
Average number of points per batch           ...       63
Average number of grid points per atom       ...     5273
UseSFitting                                  ... on

Time for X-Grid setup             =    6.800 sec

--------------
SCF ITERATIONS
--------------
ITER       Energy         Delta-E        Max-DP      RMS-DP      [F,P]     Damp
               ***  Starting incremental Fock matrix formation  ***
  0   -761.2783737615   0.000000000000 0.20598054  0.00457321  0.5749306 0.7000
  1   -761.9874738799  -0.709100118346 0.12849988  0.00296399  0.2915474 0.7000
  2   -762.3908853332  -0.403411453354 0.09148901  0.00196867  0.2051261 0.7000
                               ***Turning on DIIS***
  3   -762.6757600607  -0.284874727486 0.06441151  0.00139774  0.1441677 0.7000
  4   -762.8800973636  -0.204337302943 0.04441324  0.00104934  0.1011329 0.7000
  5   -763.0247535467  -0.144656183066 0.10205195  0.00256346  0.0709964 0.0000
  6   -763.3688248194  -0.344071272682 0.00662462  0.00010973  0.0049470 0.0000
                      *** Initiating the SOSCF procedure ***
                           *** Shutting down DIIS ***
                      *** Re-Reading the Fockian *** 
                      *** Removing any level shift *** 
ITER      Energy       Delta-E        Grad      Rot      Max-DP    RMS-DP
  7   -763.36901600  -0.0001911774  0.000662  0.000662  0.002116  0.000048
               *** Restarting incremental Fock matrix formation ***
  8   -763.36906668  -0.0000506821  0.000838  0.002307  0.002454  0.000037
  9   -763.36907493  -0.0000082527  0.000459  0.000813  0.001732  0.000028
 10   -763.36908022  -0.0000052931  0.000104  0.000220  0.000620  0.000011
 11   -763.36908082  -0.0000005911  0.000028  0.000041  0.000121  0.000002
 12   -763.36908085  -0.0000000297  0.000021  0.000025  0.000077  0.000001
 13   -763.36908088  -0.0000000338  0.000003  0.000013  0.000013  0.000000
                 **** Energy Check signals convergence ****
              ***Rediagonalizing the Fockian in SOSCF/NRSCF***

               *****************************************************
               *                     SUCCESS                       *
               *           SCF CONVERGED AFTER  14 CYCLES          *
               *****************************************************

Old exchange energy                            =    -43.179862468 Eh
New exchange energy                            =    -43.179879795 Eh
Exchange energy change after final integration =     -0.000017327 Eh
Total energy after final integration           =   -763.369098201 Eh
Final COS-X integration done in                =    25.995 sec

----------------
TOTAL SCF ENERGY
----------------

Total Energy       :         -763.36909820 Eh          -20772.32921 eV

Components:
Nuclear Repulsion  :         1146.14067448 Eh           31188.07332 eV
Electronic Energy  :        -1909.50977269 Eh          -51960.40253 eV
One Electron Energy:        -3313.05508463 Eh          -90152.81213 eV
Two Electron Energy:         1403.54531195 Eh           38192.40960 eV
Max COSX asymmetry :            0.00000103 Eh               0.00003 eV

Virial components:
Potential Energy   :        -1520.78805831 Eh          -41382.74692 eV
Kinetic Energy     :          757.41896010 Eh           20610.41772 eV
Virial Ratio       :            2.00785581


DFT components:
N(Alpha)           :       62.000011715731 electrons
N(Beta)            :       62.000011715731 electrons
N(Total)           :      124.000023431462 electrons
E(X)               :      -57.399828379313 Eh       
E(C)               :       -5.446717964617 Eh       
E(XC)              :      -62.846546343930 Eh       
DFET-embed. en.    :        0.000000000000 Eh       

---------------
SCF CONVERGENCE
---------------

  Last Energy change         ...    4.5534e-09  Tolerance :   1.0000e-08
  Last MAX-Density change    ...    2.8866e-15  Tolerance :   1.0000e-07
  Last RMS-Density change    ...    3.3113e-17  Tolerance :   5.0000e-09
  Last Orbital Gradient      ...    4.2480e-06  Tolerance :   1.0000e-05
  Last Orbital Rotation      ...    6.4686e-06  Tolerance :   1.0000e-05

             **** THE GBW FILE WAS UPDATED (pbeh-3c.gbw) ****
             **** DENSITY pbeh-3c.scfp WAS UPDATED ****
             **** ENERGY FILE WAS UPDATED (pbeh-3c.en.tmp) ****
             **** THE GBW FILE WAS UPDATED (pbeh-3c.gbw) ****
             **** DENSITY pbeh-3c.scfp WAS UPDATED ****
----------------
ORBITAL ENERGIES
----------------

  NO   OCC          E(Eh)            E(eV) 
   0   2.0000     -19.519233      -531.1453 
   1   2.0000     -19.448265      -529.2142 
   2   2.0000     -14.680860      -399.4865 
   3   2.0000     -14.658165      -398.8689 
   4   2.0000     -10.543021      -286.8902 
   5   2.0000     -10.498955      -285.6911 
   6   2.0000     -10.487139      -285.3696 
   7   2.0000     -10.473351      -284.9944 
   8   2.0000     -10.472710      -284.9769 
   9   2.0000     -10.468883      -284.8728 
  10   2.0000     -10.450131      -284.3625 
  11   2.0000     -10.442201      -284.1467 
  12   2.0000     -10.440469      -284.0996 
  13   2.0000     -10.440401      -284.0977 
  14   2.0000     -10.437905      -284.0298 
  15   2.0000     -10.437104      -284.0080 
  16   2.0000     -10.436139      -283.9818 
  17   2.0000      -1.167452       -31.7680 
  18   2.0000      -1.134937       -30.8832 
  19   2.0000      -1.082909       -29.4674 
  20   2.0000      -1.017472       -27.6868 
  21   2.0000      -0.934992       -25.4424 
  22   2.0000      -0.895790       -24.3757 
  23   2.0000      -0.848273       -23.0827 
  24   2.0000      -0.831005       -22.6128 
  25   2.0000      -0.820544       -22.3281 
  26   2.0000      -0.794905       -21.6305 
  27   2.0000      -0.774805       -21.0835 
  28   2.0000      -0.719858       -19.5883 
  29   2.0000      -0.688552       -18.7365 
  30   2.0000      -0.667167       -18.1545 
  31   2.0000      -0.651331       -17.7236 
  32   2.0000      -0.629690       -17.1347 
  33   2.0000      -0.607110       -16.5203 
  34   2.0000      -0.575504       -15.6603 
  35   2.0000      -0.569940       -15.5089 
  36   2.0000      -0.554290       -15.0830 
  37   2.0000      -0.532113       -14.4795 
  38   2.0000      -0.529119       -14.3981 
  39   2.0000      -0.524823       -14.2812 
  40   2.0000      -0.510561       -13.8931 
  41   2.0000      -0.505075       -13.7438 
  42   2.0000      -0.493664       -13.4333 
  43   2.0000      -0.482497       -13.1294 
  44   2.0000      -0.473270       -12.8783 
  45   2.0000      -0.461478       -12.5575 
  46   2.0000      -0.456960       -12.4345 
  47   2.0000      -0.454439       -12.3659 
  48   2.0000      -0.450281       -12.2528 
  49   2.0000      -0.442702       -12.0465 
  50   2.0000      -0.431772       -11.7491 
  51   2.0000      -0.414135       -11.2692 
  52   2.0000      -0.405618       -11.0374 
  53   2.0000      -0.403627       -10.9832 
  54   2.0000      -0.393974       -10.7206 
  55   2.0000      -0.374008       -10.1773 
  56   2.0000      -0.348246        -9.4762 
  57   2.0000      -0.320278        -8.7152 
  58   2.0000      -0.303202        -8.2505 
  59   2.0000      -0.296462        -8.0671 
  60   2.0000      -0.240243        -6.5373 
  61   2.0000      -0.235827        -6.4172 
  62   0.0000       0.009800         0.2667 
  63   0.0000       0.061248         1.6667 
  64   0.0000       0.066674         1.8143 
  65   0.0000       0.096307         2.6206 
  66   0.0000       0.114386         3.1126 
  67   0.0000       0.129749         3.5307 
  68   0.0000       0.141330         3.8458 
  69   0.0000       0.154719         4.2101 
  70   0.0000       0.170991         4.6529 
  71   0.0000       0.175896         4.7864 
  72   0.0000       0.181516         4.9393 
  73   0.0000       0.192288         5.2324 
  74   0.0000       0.202587         5.5127 
  75   0.0000       0.204053         5.5526 
  76   0.0000       0.207967         5.6591 
  77   0.0000       0.213179         5.8009 
  78   0.0000       0.219190         5.9645 
  79   0.0000       0.224259         6.1024 
  80   0.0000       0.226522         6.1640 
  81   0.0000       0.229103         6.2342 
  82   0.0000       0.238502         6.4900 
  83   0.0000       0.246007         6.6942 
  84   0.0000       0.249259         6.7827 
  85   0.0000       0.268562         7.3079 
  86   0.0000       0.274005         7.4560 
  87   0.0000       0.282401         7.6845 
  88   0.0000       0.292082         7.9480 
  89   0.0000       0.304158         8.2765 
  90   0.0000       0.323220         8.7953 
  91   0.0000       0.332010         9.0345 
  92   0.0000       0.345210         9.3936 
  93   0.0000       0.363233         9.8841 
  94   0.0000       0.380833        10.3630 
  95   0.0000       0.416576        11.3356 
  96   0.0000       0.441624        12.0172 
  97   0.0000       0.460952        12.5431 
  98   0.0000       0.487981        13.2786 
  99   0.0000       0.492274        13.3955 
 100   0.0000       0.499629        13.5956 
 101   0.0000       0.508541        13.8381 
 102   0.0000       0.513082        13.9617 
 103   0.0000       0.519571        14.1382 
 104   0.0000       0.520903        14.1745 
 105   0.0000       0.535845        14.5811 
 106   0.0000       0.542171        14.7532 
 107   0.0000       0.553538        15.0625 
 108   0.0000       0.565079        15.3766 
 109   0.0000       0.570781        15.5318 
 110   0.0000       0.581216        15.8157 
 111   0.0000       0.591875        16.1057 
 112   0.0000       0.598631        16.2896 
 113   0.0000       0.601125        16.3574 
 114   0.0000       0.609546        16.5866 
 115   0.0000       0.614334        16.7169 
 116   0.0000       0.621430        16.9100 
 117   0.0000       0.624583        16.9958 
 118   0.0000       0.635092        17.2817 
 119   0.0000       0.649927        17.6854 
 120   0.0000       0.660202        17.9650 
 121   0.0000       0.670855        18.2549 
 122   0.0000       0.679117        18.4797 
 123   0.0000       0.686980        18.6937 
 124   0.0000       0.691043        18.8042 
 125   0.0000       0.717459        19.5231 
 126   0.0000       0.728381        19.8203 
 127   0.0000       0.730395        19.8751 
 128   0.0000       0.740982        20.1631 
 129   0.0000       0.788571        21.4581 
 130   0.0000       0.794390        21.6164 
 131   0.0000       0.805067        21.9070 
 132   0.0000       0.812802        22.1175 
 133   0.0000       0.826170        22.4812 
 134   0.0000       0.852422        23.1956 
 135   0.0000       0.883461        24.0402 
 136   0.0000       0.898010        24.4361 
 137   0.0000       0.909810        24.7572 
 138   0.0000       0.936626        25.4869 
 139   0.0000       0.951592        25.8941 
 140   0.0000       0.958124        26.0719 
 141   0.0000       0.967319        26.3221 
 142   0.0000       0.986694        26.8493 
 143   0.0000       0.991348        26.9759 
 144   0.0000       0.996162        27.1070 
 145   0.0000       0.999231        27.1905 
 146   0.0000       1.004722        27.3399 
 147   0.0000       1.012280        27.5456 
 148   0.0000       1.021907        27.8075 
 149   0.0000       1.024528        27.8788 
 150   0.0000       1.027138        27.9499 
 151   0.0000       1.032613        28.0988 
 152   0.0000       1.036430        28.2027 
 153   0.0000       1.039178        28.2775 
 154   0.0000       1.046486        28.4763 
 155   0.0000       1.055299        28.7161 
 156   0.0000       1.060420        28.8555 
 157   0.0000       1.073277        29.2053 
 158   0.0000       1.079271        29.3685 
 159   0.0000       1.108307        30.1586 
 160   0.0000       1.118585        30.4383 
 161   0.0000       1.151562        31.3356 
 162   0.0000       1.154586        31.4179 
 163   0.0000       1.174355        31.9558 
 164   0.0000       1.184862        32.2417 
 165   0.0000       1.213827        33.0299 
 166   0.0000       1.227553        33.4034 
 167   0.0000       1.245267        33.8854 
 168   0.0000       1.262659        34.3587 
 169   0.0000       1.271197        34.5910 
 170   0.0000       1.292813        35.1792 
 171   0.0000       1.300443        35.3868 
 172   0.0000       1.319266        35.8991 
 173   0.0000       1.348501        36.6946 
 174   0.0000       1.387270        37.7495 
 175   0.0000       1.390916        37.8488 
 176   0.0000       1.396222        37.9931 
 177   0.0000       1.407525        38.3007 
 178   0.0000       1.423171        38.7264 
 179   0.0000       1.436982        39.1023 
 180   0.0000       1.446252        39.3545 
 181   0.0000       1.451588        39.4997 
 182   0.0000       1.467229        39.9253 
 183   0.0000       1.485637        40.4262 
 184   0.0000       1.500193        40.8223 
 185   0.0000       1.527410        41.5630 
 186   0.0000       1.536349        41.8062 
 187   0.0000       1.541791        41.9543 
 188   0.0000       1.552200        42.2375 
 189   0.0000       1.569406        42.7057 
 190   0.0000       1.592918        43.3455 
 191   0.0000       1.605309        43.6827 
 192   0.0000       1.632178        44.4138 
 193   0.0000       1.696613        46.1672 
 194   0.0000       1.720817        46.8258 
 195   0.0000       1.758021        47.8382 
 196   0.0000       1.791999        48.7628 
 197   0.0000       1.823146        49.6103 
 198   0.0000       1.837766        50.0082 
 199   0.0000       1.850442        50.3531 
 200   0.0000       1.871826        50.9350 
 201   0.0000       1.886475        51.3336 
 202   0.0000       1.890352        51.4391 
 203   0.0000       1.897799        51.6417 
 204   0.0000       1.915954        52.1358 
 205   0.0000       1.928391        52.4742 
 206   0.0000       1.965382        53.4808 
 207   0.0000       1.977948        53.8227 
 208   0.0000       1.986019        54.0423 
 209   0.0000       2.010296        54.7029 
 210   0.0000       2.024048        55.0772 
 211   0.0000       2.026357        55.1400 
 212   0.0000       2.040875        55.5350 
 213   0.0000       2.063325        56.1459 
 214   0.0000       2.083712        56.7007 
 215   0.0000       2.095678        57.0263 
 216   0.0000       2.098155        57.0937 
 217   0.0000       2.107071        57.3363 
 218   0.0000       2.143246        58.3207 
 219   0.0000       2.145663        58.3865 
 220   0.0000       2.169635        59.0388 
 221   0.0000       2.171173        59.0806 
 222   0.0000       2.179856        59.3169 
 223   0.0000       2.207496        60.0690 
 224   0.0000       2.216585        60.3163 
 225   0.0000       2.242513        61.0219 
 226   0.0000       2.271673        61.8154 
 227   0.0000       2.273516        61.8655 
 228   0.0000       2.280456        62.0544 
 229   0.0000       2.293563        62.4110 
 230   0.0000       2.305685        62.7409 
 231   0.0000       2.312848        62.9358 
 232   0.0000       2.333116        63.4873 
 233   0.0000       2.360606        64.2354 
 234   0.0000       2.378150        64.7128 
 235   0.0000       2.394722        65.1637 
 236   0.0000       2.401073        65.3365 
 237   0.0000       2.411491        65.6200 
 238   0.0000       2.433909        66.2300 
 239   0.0000       2.447438        66.5982 
 240   0.0000       2.472099        67.2692 
 241   0.0000       2.487300        67.6829 
 242   0.0000       2.518353        68.5279 
 243   0.0000       2.534486        68.9669 
 244   0.0000       2.548589        69.3506 
 245   0.0000       2.587829        70.4184 
 246   0.0000       2.605608        70.9022 
 247   0.0000       2.611971        71.0753 
 248   0.0000       2.647912        72.0533 
 249   0.0000       2.673800        72.7578 
 250   0.0000       2.689019        73.1719 
 251   0.0000       2.707849        73.6843 
 252   0.0000       2.736900        74.4748 
 253   0.0000       2.741338        74.5956 
 254   0.0000       2.780674        75.6660 
 255   0.0000       2.792341        75.9835 
 256   0.0000       2.800196        76.1972 
 257   0.0000       2.829318        76.9896 
 258   0.0000       2.847394        77.4815 
 259   0.0000       2.878239        78.3209 
 260   0.0000       2.963152        80.6315 
 261   0.0000       2.980705        81.1091 
 262   0.0000       2.998224        81.5858 
 263   0.0000       3.032973        82.5314 
 264   0.0000       3.072556        83.6085 
 265   0.0000       3.192236        86.8652 
 266   0.0000       3.231916        87.9449 
 267   0.0000       3.239365        88.1476 
 268   0.0000       3.358373        91.3860 
 269   0.0000       3.529115        96.0321 
 270   0.0000      13.273289       361.1846 
 271   0.0000      13.631415       370.9297 
 272   0.0000      13.666253       371.8777 
 273   0.0000      13.761126       374.4593 
 274   0.0000      13.771626       374.7450 
 275   0.0000      13.830713       376.3528 
 276   0.0000      13.858344       377.1047 
 277   0.0000      14.038211       381.9992 
 278   0.0000      14.068817       382.8320 
 279   0.0000      14.128804       384.4643 
 280   0.0000      14.240841       387.5130 
 281   0.0000      14.341341       390.2477 
 282   0.0000      14.546953       395.8427 
 283   0.0000      19.312093       525.5088 
 284   0.0000      19.409379       528.1560 
 285   0.0000      25.756146       700.8604 
 286   0.0000      25.786757       701.6933 

                    ********************************
                    * MULLIKEN POPULATION ANALYSIS *
                    ********************************

-----------------------
MULLIKEN ATOMIC CHARGES
-----------------------
   0 N :   -0.700818
   1 C :   -0.056372
   2 C :    0.022424
   3 C :    0.086294
   4 C :   -0.490177
   5 C :    0.391830
   6 C :   -0.318351
   7 C :   -0.251974
   8 C :    0.352805
   9 H :    0.358121
  10 H :    0.246310
  11 H :    0.212233
  12 H :    0.233152
  13 H :    0.213217
  14 O :   -0.466759
  15 C :   -0.402495
  16 H :    0.203680
  17 H :    0.200029
  18 H :    0.240204
  19 C :   -0.535718
  20 C :   -0.273213
  21 N :   -0.631556
  22 C :    0.522844
  23 C :   -0.749900
  24 H :    0.210860
  25 H :    0.258697
  26 H :    0.257867
  27 H :    0.229244
  28 H :    0.348851
  29 O :   -0.433165
  30 H :    0.260385
  31 H :    0.206979
  32 H :    0.254471
Sum of atomic charges:   -0.0000000

--------------------------------
MULLIKEN REDUCED ORBITAL CHARGES
--------------------------------
  0 N s       :     3.599094  s :     3.599094
      pz      :     1.608704  p :     4.060077
      px      :     1.216359
      py      :     1.235014
      dz2     :     0.004791  d :     0.041647
      dxz     :     0.008277
      dyz     :     0.004234
      dx2y2   :     0.012569
      dxy     :     0.011776
  1 C s       :     3.159988  s :     3.159988
      pz      :     1.033779  p :     2.839788
      px      :     0.805913
      py      :     1.000095
      dz2     :     0.005833  d :     0.056596
      dxz     :     0.009093
      dyz     :     0.007923
      dx2y2   :     0.016226
      dxy     :     0.017521
  2 C s       :     3.199139  s :     3.199139
      pz      :     1.058283  p :     2.733028
      px      :     0.825165
      py      :     0.849580
      dz2     :     0.003965  d :     0.045409
      dxz     :     0.006234
      dyz     :     0.008059
      dx2y2   :     0.015395
      dxy     :     0.011755
  3 C s       :     3.220629  s :     3.220629
      pz      :     1.008789  p :     2.646104
      px      :     0.810052
      py      :     0.827263
      dz2     :     0.004387  d :     0.046973
      dxz     :     0.007285
      dyz     :     0.008333
      dx2y2   :     0.010846
      dxy     :     0.016121
  4 C s       :     3.328887  s :     3.328887
      pz      :     1.106334  p :     3.123288
      px      :     0.963086
      py      :     1.053867
      dz2     :     0.004066  d :     0.038002
      dxz     :     0.005828
      dyz     :     0.004639
      dx2y2   :     0.010948
      dxy     :     0.012521
  5 C s       :     3.052341  s :     3.052341
      pz      :     0.969546  p :     2.480828
      px      :     0.818489
      py      :     0.692792
      dz2     :     0.005729  d :     0.075001
      dxz     :     0.010348
      dyz     :     0.013860
      dx2y2   :     0.020421
      dxy     :     0.024644
  6 C s       :     3.266619  s :     3.266619
      pz      :     1.047518  p :     3.014165
      px      :     1.039563
      py      :     0.927084
      dz2     :     0.003909  d :     0.037567
      dxz     :     0.002904
      dyz     :     0.007386
      dx2y2   :     0.011775
      dxy     :     0.011594
  7 C s       :     3.254580  s :     3.254580
      pz      :     1.028146  p :     2.957112
      px      :     0.922869
      py      :     1.006097
      dz2     :     0.003942  d :     0.040282
      dxz     :     0.006097
      dyz     :     0.005617
      dx2y2   :     0.011370
      dxy     :     0.013257
  8 C s       :     3.077267  s :     3.077267
      pz      :     1.014351  p :     2.506666
      px      :     0.726582
      py      :     0.765733
      dz2     :     0.005147  d :     0.063262
      dxz     :     0.009111
      dyz     :     0.011660
      dx2y2   :     0.015611
      dxy     :     0.021733
  9 H s       :     0.641879  s :     0.641879
 10 H s       :     0.753690  s :     0.753690
 11 H s       :     0.787767  s :     0.787767
 12 H s       :     0.766848  s :     0.766848
 13 H s       :     0.786783  s :     0.786783
 14 O s       :     3.790928  s :     3.790928
      pz      :     1.806984  p :     4.642919
      px      :     1.616499
      py      :     1.219436
      dz2     :     0.004504  d :     0.032912
      dxz     :     0.003896
      dyz     :     0.005403
      dx2y2   :     0.005947
      dxy     :     0.013162
 15 C s       :     3.330269  s :     3.330269
      pz      :     1.099362  p :     3.010297
      px      :     1.029943
      py      :     0.880991
      dz2     :     0.011940  d :     0.061929
      dxz     :     0.014924
      dyz     :     0.006726
      dx2y2   :     0.009958
      dxy     :     0.018380
 16 H s       :     0.796320  s :     0.796320
 17 H s       :     0.799971  s :     0.799971
 18 H s       :     0.759796  s :     0.759796
 19 C s       :     3.394369  s :     3.394369
      pz      :     1.005072  p :     3.097563
      px      :     1.005517
      py      :     1.086974
      dz2     :     0.005761  d :     0.043786
      dxz     :     0.008736
      dyz     :     0.013202
      dx2y2   :     0.005222
      dxy     :     0.010865
 20 C s       :     3.277161  s :     3.277161
      pz      :     1.016849  p :     2.938397
      px      :     0.871806
      py      :     1.049741
      dz2     :     0.007814  d :     0.057655
      dxz     :     0.012249
      dyz     :     0.014556
      dx2y2   :     0.006487
      dxy     :     0.016550
 21 N s       :     3.536917  s :     3.536917
      pz      :     1.679320  p :     4.060240
      px      :     1.153427
      py      :     1.227493
      dz2     :     0.003883  d :     0.034399
      dxz     :     0.005306
      dyz     :     0.002829
      dx2y2   :     0.014555
      dxy     :     0.007827
 22 C s       :     2.978133  s :     2.978133
      pz      :     0.764677  p :     2.376726
      px      :     0.791925
      py      :     0.820123
      dz2     :     0.006809  d :     0.122297
      dxz     :     0.012070
      dyz     :     0.024607
      dx2y2   :     0.029913
      dxy     :     0.048899
 23 C s       :     3.408594  s :     3.408594
      pz      :     1.175181  p :     3.307334
      px      :     1.072183
      py      :     1.059970
      dz2     :     0.008177  d :     0.033972
      dxz     :     0.008481
      dyz     :     0.002377
      dx2y2   :     0.007941
      dxy     :     0.006996
 24 H s       :     0.789140  s :     0.789140
 25 H s       :     0.741303  s :     0.741303
 26 H s       :     0.742133  s :     0.742133
 27 H s       :     0.770756  s :     0.770756
 28 H s       :     0.651149  s :     0.651149
 29 O s       :     3.764783  s :     3.764783
      pz      :     1.468580  p :     4.639338
      px      :     1.794013
      py      :     1.376744
      dz2     :     0.002823  d :     0.029045
      dxz     :     0.000302
      dyz     :     0.010592
      dx2y2   :     0.008552
      dxy     :     0.006776
 30 H s       :     0.739615  s :     0.739615
 31 H s       :     0.793021  s :     0.793021
 32 H s       :     0.745529  s :     0.745529


                     *******************************
                     * LOEWDIN POPULATION ANALYSIS *
                     *******************************

----------------------
LOEWDIN ATOMIC CHARGES
----------------------
   0 N :   -0.156694
   1 C :   -0.079105
   2 C :   -0.106791
   3 C :   -0.050505
   4 C :   -0.199226
   5 C :    0.058841
   6 C :   -0.159331
   7 C :   -0.145998
   8 C :    0.003100
   9 H :    0.261449
  10 H :    0.138906
  11 H :    0.136264
  12 H :    0.145593
  13 H :    0.137202
  14 O :   -0.191656
  15 C :   -0.180135
  16 H :    0.112184
  17 H :    0.110524
  18 H :    0.129681
  19 C :   -0.234853
  20 C :   -0.143889
  21 N :   -0.244370
  22 C :    0.105371
  23 C :   -0.390713
  24 H :    0.125649
  25 H :    0.146974
  26 H :    0.144437
  27 H :    0.124911
  28 H :    0.250154
  29 O :   -0.284295
  30 H :    0.157080
  31 H :    0.124281
  32 H :    0.154959

-------------------------------
LOEWDIN REDUCED ORBITAL CHARGES
-------------------------------
  0 N s       :     3.075684  s :     3.075684
      pz      :     1.564825  p :     3.986425
      px      :     1.224527
      py      :     1.197073
      dz2     :     0.007084  d :     0.094585
      dxz     :     0.017887
      dyz     :     0.008173
      dx2y2   :     0.031799
      dxy     :     0.029643
  1 C s       :     2.884324  s :     2.884324
      pz      :     1.041161  p :     3.071834
      px      :     0.949992
      py      :     1.080681
      dz2     :     0.010918  d :     0.122947
      dxz     :     0.019171
      dyz     :     0.015568
      dx2y2   :     0.039212
      dxy     :     0.038078
  2 C s       :     2.841534  s :     2.841534
      pz      :     1.059722  p :     3.156646
      px      :     1.038233
      py      :     1.058691
      dz2     :     0.007564  d :     0.108611
      dxz     :     0.012412
      dyz     :     0.016334
      dx2y2   :     0.040818
      dxy     :     0.031484
  3 C s       :     2.830464  s :     2.830464
      pz      :     1.011016  p :     3.105927
      px      :     1.039308
      py      :     1.055602
      dz2     :     0.008243  d :     0.114115
      dxz     :     0.014912
      dyz     :     0.017284
      dx2y2   :     0.030357
      dxy     :     0.043319
  4 C s       :     2.883120  s :     2.883120
      pz      :     1.090345  p :     3.230611
      px      :     1.067914
      py      :     1.072352
      dz2     :     0.006661  d :     0.085495
      dxz     :     0.011135
      dyz     :     0.009153
      dx2y2   :     0.028188
      dxy     :     0.030358
  5 C s       :     2.824352  s :     2.824352
      pz      :     0.976982  p :     2.942720
      px      :     1.064830
      py      :     0.900908
      dz2     :     0.012528  d :     0.174088
      dxz     :     0.021321
      dyz     :     0.028610
      dx2y2   :     0.050346
      dxy     :     0.061283
  6 C s       :     2.891132  s :     2.891132
      pz      :     1.040455  p :     3.182968
      px      :     1.073046
      py      :     1.069467
      dz2     :     0.006514  d :     0.085231
      dxz     :     0.004542
      dyz     :     0.015629
      dx2y2   :     0.028843
      dxy     :     0.029703
  7 C s       :     2.885990  s :     2.885990
      pz      :     1.020801  p :     3.169218
      px      :     1.060559
      py      :     1.087858
      dz2     :     0.006573  d :     0.090790
      dxz     :     0.012406
      dyz     :     0.010741
      dx2y2   :     0.029353
      dxy     :     0.031716
  8 C s       :     2.811915  s :     2.811915
      pz      :     1.027179  p :     3.037427
      px      :     1.050883
      py      :     0.959365
      dz2     :     0.010760  d :     0.147558
      dxz     :     0.018182
      dyz     :     0.024829
      dx2y2   :     0.038314
      dxy     :     0.055473
  9 H s       :     0.738551  s :     0.738551
 10 H s       :     0.861094  s :     0.861094
 11 H s       :     0.863736  s :     0.863736
 12 H s       :     0.854407  s :     0.854407
 13 H s       :     0.862798  s :     0.862798
 14 O s       :     3.430315  s :     3.430315
      pz      :     1.792591  p :     4.688788
      px      :     1.633154
      py      :     1.263043
      dz2     :     0.008187  d :     0.072553
      dxz     :     0.005776
      dyz     :     0.013596
      dx2y2   :     0.016823
      dxy     :     0.028170
 15 C s       :     2.951762  s :     2.951762
      pz      :     1.122340  p :     3.106348
      px      :     1.053216
      py      :     0.930791
      dz2     :     0.021974  d :     0.122026
      dxz     :     0.028519
      dyz     :     0.013351
      dx2y2   :     0.020016
      dxy     :     0.038166
 16 H s       :     0.887816  s :     0.887816
 17 H s       :     0.889476  s :     0.889476
 18 H s       :     0.870319  s :     0.870319
 19 C s       :     2.902536  s :     2.902536
      pz      :     1.079774  p :     3.242457
      px      :     1.069121
      py      :     1.093562
      dz2     :     0.012511  d :     0.089860
      dxz     :     0.018679
      dyz     :     0.026082
      dx2y2   :     0.010949
      dxy     :     0.021639
 20 C s       :     2.900705  s :     2.900705
      pz      :     1.091570  p :     3.123854
      px      :     0.959465
      py      :     1.072820
      dz2     :     0.016452  d :     0.119330
      dxz     :     0.026659
      dyz     :     0.028868
      dx2y2   :     0.013404
      dxy     :     0.033947
 21 N s       :     3.111068  s :     3.111068
      pz      :     1.629263  p :     4.051706
      px      :     1.213169
      py      :     1.209275
      dz2     :     0.006525  d :     0.081595
      dxz     :     0.011792
      dyz     :     0.005615
      dx2y2   :     0.034412
      dxy     :     0.023252
 22 C s       :     2.828605  s :     2.828605
      pz      :     0.788460  p :     2.788753
      px      :     0.972913
      py      :     1.027380
      dz2     :     0.015752  d :     0.277271
      dxz     :     0.024242
      dyz     :     0.050699
      dx2y2   :     0.066920
      dxy     :     0.119657
 23 C s       :     2.963140  s :     2.963140
      pz      :     1.151576  p :     3.364241
      px      :     1.116263
      py      :     1.096402
      dz2     :     0.014355  d :     0.063332
      dxz     :     0.015181
      dyz     :     0.003842
      dx2y2   :     0.015265
      dxy     :     0.014689
 24 H s       :     0.874351  s :     0.874351
 25 H s       :     0.853026  s :     0.853026
 26 H s       :     0.855563  s :     0.855563
 27 H s       :     0.875089  s :     0.875089
 28 H s       :     0.749846  s :     0.749846
 29 O s       :     3.523958  s :     3.523958
      pz      :     1.464943  p :     4.705157
      px      :     1.774232
      py      :     1.465983
      dz2     :     0.006456  d :     0.055179
      dxz     :     0.000496
      dyz     :     0.014485
      dx2y2   :     0.020043
      dxy     :     0.013699
 30 H s       :     0.842920  s :     0.842920
 31 H s       :     0.875719  s :     0.875719
 32 H s       :     0.845041  s :     0.845041


                      *****************************
                      * MAYER POPULATION ANALYSIS *
                      *****************************

  NA   - Mulliken gross atomic population
  ZA   - Total nuclear charge
  QA   - Mulliken gross atomic charge
  VA   - Mayer's total valence
  BVA  - Mayer's bonded valence
  FA   - Mayer's free valence

  ATOM       NA         ZA         QA         VA         BVA        FA
  0 N      7.7008     7.0000    -0.7008     3.1732     3.1732     0.0000
  1 C      6.0564     6.0000    -0.0564     3.6893     3.6893     0.0000
  2 C      5.9776     6.0000     0.0224     3.7159     3.7159     0.0000
  3 C      5.9137     6.0000     0.0863     3.7700     3.7700     0.0000
  4 C      6.4902     6.0000    -0.4902     3.7190     3.7190     0.0000
  5 C      5.6082     6.0000     0.3918     3.7516     3.7516     0.0000
  6 C      6.3184     6.0000    -0.3184     3.8460     3.8460    -0.0000
  7 C      6.2520     6.0000    -0.2520     3.7766     3.7766     0.0000
  8 C      5.6472     6.0000     0.3528     3.5247     3.5247    -0.0000
  9 H      0.6419     1.0000     0.3581     0.8516     0.8516    -0.0000
 10 H      0.7537     1.0000     0.2463     0.9022     0.9022     0.0000
 11 H      0.7878     1.0000     0.2122     0.9250     0.9250     0.0000
 12 H      0.7668     1.0000     0.2332     0.9125     0.9125     0.0000
 13 H      0.7868     1.0000     0.2132     0.9134     0.9134     0.0000
 14 O      8.4668     8.0000    -0.4668     2.0998     2.0998    -0.0000
 15 C      6.4025     6.0000    -0.4025     3.7128     3.7128    -0.0000
 16 H      0.7963     1.0000     0.2037     0.9101     0.9101    -0.0000
 17 H      0.8000     1.0000     0.2000     0.9113     0.9113    -0.0000
 18 H      0.7598     1.0000     0.2402     0.9085     0.9085    -0.0000
 19 C      6.5357     6.0000    -0.5357     3.6823     3.6823    -0.0000
 20 C      6.2732     6.0000    -0.2732     3.6776     3.6776    -0.0000
 21 N      7.6316     7.0000    -0.6316     3.0025     3.0025     0.0000
 22 C      5.4772     6.0000     0.5228     4.0127     4.0127    -0.0000
 23 C      6.7499     6.0000    -0.7499     3.6893     3.6893    -0.0000
 24 H      0.7891     1.0000     0.2109     0.9115     0.9115    -0.0000
 25 H      0.7413     1.0000     0.2587     0.9024     0.9024    -0.0000
 26 H      0.7421     1.0000     0.2579     0.9063     0.9063     0.0000
 27 H      0.7708     1.0000     0.2292     0.9070     0.9070    -0.0000
 28 H      0.6511     1.0000     0.3489     0.8519     0.8519     0.0000
 29 O      8.4332     8.0000    -0.4332     2.1651     2.1651     0.0000
 30 H      0.7396     1.0000     0.2604     0.8999     0.8999    -0.0000
 31 H      0.7930     1.0000     0.2070     0.9158     0.9158     0.0000
 32 H      0.7455     1.0000     0.2545     0.8997     0.8997    -0.0000

  Mayer bond orders larger than 0.100000
B(  0-N ,  1-C ) :   1.1379 B(  0-N ,  8-C ) :   1.0074 B(  0-N ,  9-H ) :   0.8338 
B(  1-C ,  2-C ) :   1.5503 B(  1-C , 10-H ) :   0.9077 B(  2-C ,  3-C ) :   1.2499 
B(  2-C , 19-C ) :   0.9591 B(  3-C ,  4-C ) :   1.2509 B(  3-C ,  8-C ) :   1.2508 
B(  4-C ,  5-C ) :   1.4220 B(  4-C , 11-H ) :   0.9182 B(  5-C ,  6-C ) :   1.3014 
B(  5-C , 14-O ) :   1.0228 B(  6-C ,  7-C ) :   1.5268 B(  6-C , 12-H ) :   0.9089 
B(  7-C ,  8-C ) :   1.2740 B(  7-C , 13-H ) :   0.9204 B( 14-O , 15-C ) :   0.9605 
B( 15-C , 16-H ) :   0.9068 B( 15-C , 17-H ) :   0.9077 B( 15-C , 18-H ) :   0.9234 
B( 19-C , 20-C ) :   0.9493 B( 19-C , 24-H ) :   0.9224 B( 19-C , 25-H ) :   0.9129 
B( 20-C , 21-N ) :   0.9317 B( 20-C , 26-H ) :   0.9006 B( 20-C , 27-H ) :   0.9193 
B( 21-N , 22-C ) :   1.1411 B( 21-N , 28-H ) :   0.8315 B( 22-C , 23-C ) :   0.9265 
B( 22-C , 29-O ) :   1.9805 B( 23-C , 30-H ) :   0.9109 B( 23-C , 31-H ) :   0.9231 
B( 23-C , 32-H ) :   0.9106 

-------
TIMINGS
-------

Total SCF time: 0 days 0 hours 4 min 1 sec 

Total time                  ....     241.871 sec
Sum of individual times     ....     234.372 sec  ( 96.9%)

Fock matrix formation       ....     211.968 sec  ( 87.6%)
  Split-RI-J                ....      15.814 sec  (  7.5% of F)
  Chain of spheres X        ....     149.515 sec  ( 70.5% of F)
  XC integration            ....      33.780 sec  ( 15.9% of F)
    Basis function eval.    ....      10.832 sec  ( 32.1% of XC)
    Density eval.           ....       6.272 sec  ( 18.6% of XC)
    XC-Functional eval.     ....       2.900 sec  (  8.6% of XC)
    XC-Potential eval.      ....       4.032 sec  ( 11.9% of XC)
Diagonalization             ....       1.519 sec  (  0.6%)
Density matrix formation    ....       0.247 sec  (  0.1%)
Population analysis         ....       0.054 sec  (  0.0%)
Initial guess               ....       0.061 sec  (  0.0%)
Orbital Transformation      ....       0.000 sec  (  0.0%)
Orbital Orthonormalization  ....       0.000 sec  (  0.0%)
DIIS solution               ....       3.561 sec  (  1.5%)
SOSCF solution              ....       2.068 sec  (  0.9%)
Grid generation             ....      14.893 sec  (  6.2%)

Maximum memory used throughout the entire SCF-calculation: 96.3 MB


-------------------------------------------------------------------------------
                          DFT DISPERSION CORRECTION                            
                                                                               
                              DFTD3 V3.1  Rev 1                                
                          USING Becke-Johnson damping                          
-------------------------------------------------------------------------------
The PBEh-3c composite method is recognized
Using three-body term ABC
Active option DFTDOPT                   ...         4   

molecular C6(AA) [au] = 10859.650877 


            DFT-D V3
 parameters
 s6 scaling factor         :     1.0000 
 a1 scaling factor         :     0.4860 
 s8 scaling factor         :     0.0000 
 a2 scaling factor         :     4.5000 
 Damping factor alpha9(ATM):    16.0000 
 ad hoc parameters k1-k3   :    16.0000     1.3333    -4.0000 

 Edisp/kcal,au: -13.064819879477  -0.020820113522 
 E6   /kcal   : -13.081546618 
 E8   /kcal   :  -0.000000000 
 E6(ABC)      :   0.016726738 
 % E8         :   0.000000000 
 % E6(ABC)    :  -0.128028848 

-------------------------   ----------------
Dispersion correction           -0.020820114
-------------------------   ----------------

------------------   -----------------
gCP correction             0.062069582
------------------   -----------------

-------------------------   --------------------
FINAL SINGLE POINT ENERGY      -763.327848732517
-------------------------   --------------------


                            ***************************************
                            *     ORCA property calculations      *
                            ***************************************

                                    ---------------------
                                    Active property flags
                                    ---------------------
   (+) Dipole Moment


------------------------------------------------------------------------------
                       ORCA ELECTRIC PROPERTIES CALCULATION
------------------------------------------------------------------------------

Dipole Moment Calculation                       ... on
Quadrupole Moment Calculation                   ... off
Polarizability Calculation                      ... off
GBWName                                         ... pbeh-3c.gbw
Electron density                                ... pbeh-3c.scfp
The origin for moment calculation is the CENTER OF MASS  = ( 0.439660, -0.503542 -0.075625)

-------------
DIPOLE MOMENT
-------------
                                X             Y             Z
Electronic contribution:      8.61734      -8.47608      -0.99010
Nuclear contribution   :     -8.52941       9.18918       1.17154
                        -----------------------------------------
Total Dipole Moment    :      0.08793       0.71310       0.18145
                        -----------------------------------------
Magnitude (a.u.)       :      0.74105
Magnitude (Debye)      :      1.88361



--------------------
Rotational spectrum 
--------------------
 
Rotational constants in cm-1:     0.025891     0.007561     0.005983 
Rotational constants in MHz :   776.182197   226.662779   179.360226 

 Dipole components along the rotational axes: 
x,y,z [a.u.] :    -0.094039     0.711316     0.185331 
x,y,z [Debye]:    -0.239028     1.808022     0.471074 

 

Timings for individual modules:

Sum of individual times         ...      245.419 sec (=   4.090 min)
GTO integral calculation        ...        2.934 sec (=   0.049 min)   1.2 %
SCF iterations                  ...      242.485 sec (=   4.041 min)  98.8 %
                             ****ORCA TERMINATED NORMALLY****
TOTAL RUN TIME: 0 days 0 hours 4 minutes 7 seconds 269 msec
