
                                 *****************
                                 * O   R   C   A *
                                 *****************

                                            #,                                       
                                            ###                                      
                                            ####                                     
                                            #####                                    
                                            ######                                   
                                           ########,                                 
                                     ,,################,,,,,                         
                               ,,#################################,,                 
                          ,,##########################################,,             
                       ,#########################################, ''#####,          
                    ,#############################################,,   '####,        
                  ,##################################################,,,,####,       
                ,###########''''           ''''###############################       
              ,#####''   ,,,,##########,,,,          '''####'''          '####       
            ,##' ,,,,###########################,,,                        '##       
           ' ,,###''''                  '''############,,,                           
         ,,##''                                '''############,,,,        ,,,,,,###''
      ,#''                                            '''#######################'''  
     '                                                          ''''####''''         
             ,#######,   #######,   ,#######,      ##                                
            ,#'     '#,  ##    ##  ,#'     '#,    #''#        ######   ,####,        
            ##       ##  ##   ,#'  ##            #'  '#       #        #'  '#        
            ##       ##  #######   ##           ,######,      #####,   #    #        
            '#,     ,#'  ##    ##  '#,     ,#' ,#      #,         ##   #,  ,#        
             '#######'   ##     ##  '#######'  #'      '#     #####' # '####'        



                  #######################################################
                  #                        -***-                        #
                  #          Department of theory and spectroscopy      #
                  #    Directorship and core code : Frank Neese         #
                  #        Max Planck Institute fuer Kohlenforschung    #
                  #                Kaiser Wilhelm Platz 1               #
                  #                 D-45470 Muelheim/Ruhr               #
                  #                      Germany                        #
                  #                                                     #
                  #                  All rights reserved                #
                  #                        -***-                        #
                  #######################################################


                         Program Version 5.0.3 -  RELEASE  -


 With contributions from (in alphabetic order):
   Daniel Aravena         : Magnetic Suceptibility
   Michael Atanasov       : Ab Initio Ligand Field Theory (pilot matlab implementation)
   Alexander A. Auer      : GIAO ZORA, VPT2 properties, NMR spectrum
   Ute Becker             : Parallelization
   Giovanni Bistoni       : ED, misc. LED, open-shell LED, HFLD
   Martin Brehm           : Molecular dynamics
   Dmytro Bykov           : SCF Hessian
   Vijay G. Chilkuri      : MRCI spin determinant printing, contributions to CSF-ICE
   Dipayan Datta          : RHF DLPNO-CCSD density
   Achintya Kumar Dutta   : EOM-CC, STEOM-CC
   Dmitry Ganyushin       : Spin-Orbit,Spin-Spin,Magnetic field MRCI
   Miquel Garcia          : C-PCM and meta-GGA Hessian, CC/C-PCM, Gaussian charge scheme
   Yang Guo               : DLPNO-NEVPT2, F12-NEVPT2, CIM, IAO-localization
   Andreas Hansen         : Spin unrestricted coupled pair/coupled cluster methods
   Benjamin Helmich-Paris : MC-RPA, TRAH-SCF, COSX integrals
   Lee Huntington         : MR-EOM, pCC
   Robert Izsak           : Overlap fitted RIJCOSX, COSX-SCS-MP3, EOM
   Marcus Kettner         : VPT2
   Christian Kollmar      : KDIIS, OOCD, Brueckner-CCSD(T), CCSD density, CASPT2, CASPT2-K
   Simone Kossmann        : Meta GGA functionals, TD-DFT gradient, OOMP2, MP2 Hessian
   Martin Krupicka        : Initial AUTO-CI
   Lucas Lang             : DCDCAS
   Marvin Lechner         : AUTO-CI (C++ implementation), FIC-MRCC
   Dagmar Lenk            : GEPOL surface, SMD
   Dimitrios Liakos       : Extrapolation schemes; Compound Job, initial MDCI parallelization
   Dimitrios Manganas     : Further ROCIS development; embedding schemes
   Dimitrios Pantazis     : SARC Basis sets
   Anastasios Papadopoulos: AUTO-CI, single reference methods and gradients
   Taras Petrenko         : DFT Hessian,TD-DFT gradient, ASA, ECA, R-Raman, ABS, FL, XAS/XES, NRVS
   Peter Pinski           : DLPNO-MP2, DLPNO-MP2 Gradient
   Christoph Reimann      : Effective Core Potentials
   Marius Retegan         : Local ZFS, SOC
   Christoph Riplinger    : Optimizer, TS searches, QM/MM, DLPNO-CCSD(T), (RO)-DLPNO pert. Triples
   Tobias Risthaus        : Range-separated hybrids, TD-DFT gradient, RPA, STAB
   Michael Roemelt        : Original ROCIS implementation
   Masaaki Saitow         : Open-shell DLPNO-CCSD energy and density
   Barbara Sandhoefer     : DKH picture change effects
   Avijit Sen             : IP-ROCIS
   Kantharuban Sivalingam : CASSCF convergence, NEVPT2, FIC-MRCI
   Bernardo de Souza      : ESD, SOC TD-DFT
   Georgi Stoychev        : AutoAux, RI-MP2 NMR, DLPNO-MP2 response
   Willem Van den Heuvel  : Paramagnetic NMR
   Boris Wezisla          : Elementary symmetry handling
   Frank Wennmohs         : Technical directorship


 We gratefully acknowledge several colleagues who have allowed us to
 interface, adapt or use parts of their codes:
   Stefan Grimme, W. Hujo, H. Kruse, P. Pracht,  : VdW corrections, initial TS optimization,
                  C. Bannwarth, S. Ehlert          DFT functionals, gCP, sTDA/sTD-DF
   Ed Valeev, F. Pavosevic, A. Kumar             : LibInt (2-el integral package), F12 methods
   Garnet Chan, S. Sharma, J. Yang, R. Olivares  : DMRG
   Ulf Ekstrom                                   : XCFun DFT Library
   Mihaly Kallay                                 : mrcc  (arbitrary order and MRCC methods)
   Jiri Pittner, Ondrej Demel                    : Mk-CCSD
   Frank Weinhold                                : gennbo (NPA and NBO analysis)
   Christopher J. Cramer and Donald G. Truhlar   : smd solvation model
   Lars Goerigk                                  : TD-DFT with DH, B97 family of functionals
   V. Asgeirsson, H. Jonsson                     : NEB implementation
   FAccTs GmbH                                   : IRC, NEB, NEB-TS, DLPNO-Multilevel, CI-OPT
                                                   MM, QMMM, 2- and 3-layer-ONIOM, Crystal-QMMM,
                                                   LR-CPCM, SF, NACMEs, symmetry and pop. for TD-DFT,
                                                   nearIR, NL-DFT gradient (VV10), updates on ESD,
                                                   ML-optimized integration grids
   S Lehtola, MJT Oliveira, MAL Marques          : LibXC Library
   Liviu Ungur et al                             : ANISO software


 Your calculation uses the libint2 library for the computation of 2-el integrals
 For citations please refer to: http://libint.valeyev.net

 Your ORCA version has been built with support for libXC version: 5.1.0
 For citations please refer to: https://tddft.org/programs/libxc/

 This ORCA versions uses:
   CBLAS   interface :  Fast vector & matrix operations
   LAPACKE interface :  Fast linear algebra routines
   SCALAPACK package :  Parallel linear algebra routines
   Shared memory     :  Shared parallel matrices
   BLAS/LAPACK       :  OpenBLAS 0.3.15  USE64BITINT DYNAMIC_ARCH NO_AFFINITY Haswell SINGLE_THREADED
        Core in use  :  Haswell
   Copyright (c) 2011-2014, The OpenBLAS Project




***************************************
The coordinates will be read from file: 17B.xyz
***************************************


Your calculation utilizes the geometrical counterpoise correction gCP
Please cite in your paper:
H.Kruse, S. Grimme J.Chem.Phys., 136, (2012), 154101 
   

Your calculation utilizes the atom-pairwise dispersion correction
with the Becke-Johnson damping scheme (D3BJ)
Cite in your paper:
S.Grimme, S.Ehrlich, L.Goerigk, J Comput Chem, (2011), 32, 1456–1465 
S.Grimme, J.Antony, S.Ehrlich and H.Krieg, J.Chem.Phys., 132, (2010), 154104 
   

Your calculation employs the composite approach PBEh-3c.
Please cite in your paper:
S. Grimme, J. G. Brandenburg, C. Bannwarth, A. Hansen J.Chem.Phys., 143, (2015), 054107 
   

================================================================================

----- Orbital basis set information -----
Your calculation utilizes the basis: def2-mSVP

----- AuxJ basis set information -----
Your calculation utilizes the auxiliary basis: def2/J
   F. Weigend, Phys. Chem. Chem. Phys. 8, 1057 (2006).

================================================================================
                                        WARNINGS
                       Please study these warnings very carefully!
================================================================================


INFO   : the flag for use of the SHARK integral package has been found!

================================================================================
                                       INPUT FILE
================================================================================
NAME = pbeh-3c.inp
|  1> ! PBEh-3c def2/J TightSCF DefGrid3
|  2> 
|  3> %maxcore 60000
|  4> 
|  5> %pal
|  6> nprocs 4
|  7> end
|  8> 
|  9> *xyzfile 0 1 17B.xyz
| 10> 
| 11>                          ****END OF INPUT****
================================================================================

                       ****************************
                       * Single Point Calculation *
                       ****************************

---------------------------------
CARTESIAN COORDINATES (ANGSTROEM)
---------------------------------
  N      0.590921    1.160297    0.000000
  H      1.038165    2.066870    0.000000
  C      1.446969    0.045678    0.000000
  O      2.656421    0.197382    0.000000
  C      0.732750   -1.216495    0.000000
  H      1.299335   -2.131527    0.000000
  C     -0.617419   -1.220312    0.000000
  H     -1.194382   -2.133277    0.000000
  N     -1.355411   -0.069431    0.000000
  H     -2.381747   -0.090873    0.000000
  C     -0.782640    1.175234    0.000000
  O     -1.432961    2.216453    0.000000

----------------------------
CARTESIAN COORDINATES (A.U.)
----------------------------
  NO LB      ZA    FRAG     MASS         X           Y           Z
   0 N     7.0000    0    14.007    1.116678    2.192643    0.000000
   1 H     1.0000    0     1.008    1.961847    3.905818    0.000000
   2 C     6.0000    0    12.011    2.734374    0.086319    0.000000
   3 O     8.0000    0    15.999    5.019908    0.372998    0.000000
   4 C     6.0000    0    12.011    1.384697   -2.298843    0.000000
   5 H     1.0000    0     1.008    2.455387   -4.028001    0.000000
   6 C     6.0000    0    12.011   -1.166753   -2.306056    0.000000
   7 H     1.0000    0     1.008   -2.257056   -4.031309    0.000000
   8 N     7.0000    0    14.007   -2.561355   -0.131205    0.000000
   9 H     1.0000    0     1.008   -4.500850   -0.171725    0.000000
  10 C     6.0000    0    12.011   -1.478975    2.220871    0.000000
  11 O     8.0000    0    15.999   -2.707903    4.188489    0.000000

--------------------------------
INTERNAL COORDINATES (ANGSTROEM)
--------------------------------
 N      0   0   0     0.000000000000     0.00000000     0.00000000
 H      1   0   0     1.010891721722     0.00000000     0.00000000
 C      1   2   0     1.405415386153   116.21634534     0.00000000
 O      3   1   2     1.218929410963   120.37556238     0.00000000
 C      3   1   2     1.450237914911   112.97110434   180.00000000
 H      5   3   1     1.076243700216   118.73037221   180.00000000
 C      5   3   1     1.350174595703   119.66593957     0.00000000
 H      7   5   3     1.079995891563   122.45351295   180.00000000
 N      7   5   3     1.367172285738   122.50764473     0.00000000
 H      9   7   5     1.026560362665   121.47277298   180.00000085
 C      9   7   5     1.370130539482   122.61938744     0.00000000
 O     11   9   7     1.227621274056   123.30107496   180.00000085

---------------------------
INTERNAL COORDINATES (A.U.)
---------------------------
 N      0   0   0     0.000000000000     0.00000000     0.00000000
 H      1   0   0     1.910308505102     0.00000000     0.00000000
 C      1   2   0     2.655850184229   116.21634534     0.00000000
 O      3   1   2     2.303442763301   120.37556238     0.00000000
 C      3   1   2     2.740552488210   112.97110434   180.00000000
 H      5   3   1     2.033805846766   118.73037221   180.00000000
 C      5   3   1     2.551460218856   119.66593957     0.00000000
 H      7   5   3     2.040896460814   122.45351295   180.00000000
 N      7   5   3     2.583581197931   122.50764473     0.00000000
 H      9   7   5     1.939917945375   121.47277298   180.00000085
 C      9   7   5     2.589171487342   122.61938744     0.00000000
 O     11   9   7     2.319868004141   123.30107496   180.00000085

---------------------
BASIS SET INFORMATION
---------------------
There are 4 groups of distinct atoms

 Group   1 Type N   : 8s4p1d contracted to 4s2p1d pattern {5111/31/1}
 Group   2 Type H   : 4s contracted to 2s pattern {31}
 Group   3 Type C   : 8s4p1d contracted to 4s2p1d pattern {5111/31/1}
 Group   4 Type O   : 8s4p1d contracted to 4s2p1d pattern {5111/31/1}

Atom   0N    basis set group =>   1
Atom   1H    basis set group =>   2
Atom   2C    basis set group =>   3
Atom   3O    basis set group =>   4
Atom   4C    basis set group =>   3
Atom   5H    basis set group =>   2
Atom   6C    basis set group =>   3
Atom   7H    basis set group =>   2
Atom   8N    basis set group =>   1
Atom   9H    basis set group =>   2
Atom  10C    basis set group =>   3
Atom  11O    basis set group =>   4
---------------------------------
AUXILIARY/J BASIS SET INFORMATION
---------------------------------
There are 4 groups of distinct atoms

 Group   1 Type N   : 12s5p4d2f1g contracted to 6s4p3d1f1g pattern {711111/2111/211/2/1}
 Group   2 Type H   : 5s2p1d contracted to 3s1p1d pattern {311/2/1}
 Group   3 Type C   : 12s5p4d2f1g contracted to 6s4p3d1f1g pattern {711111/2111/211/2/1}
 Group   4 Type O   : 12s5p4d2f1g contracted to 6s4p3d1f1g pattern {711111/2111/211/2/1}

Atom   0N    basis set group =>   1
Atom   1H    basis set group =>   2
Atom   2C    basis set group =>   3
Atom   3O    basis set group =>   4
Atom   4C    basis set group =>   3
Atom   5H    basis set group =>   2
Atom   6C    basis set group =>   3
Atom   7H    basis set group =>   2
Atom   8N    basis set group =>   1
Atom   9H    basis set group =>   2
Atom  10C    basis set group =>   3
Atom  11O    basis set group =>   4


           ************************************************************
           *        Program running with 4 parallel MPI-processes     *
           *              working on a common directory               *
           ************************************************************
------------------------------------------------------------------------------
                           ORCA GTO INTEGRAL CALCULATION
                           -- RI-GTO INTEGRALS CHOSEN --
------------------------------------------------------------------------------
------------------------------------------------------------------------------
                   ___                                                        
                  /   \      - P O W E R E D   B Y -                         
                 /     \                                                     
                 |  |  |   _    _      __       _____    __    __             
                 |  |  |  | |  | |    /  \     |  _  \  |  |  /  |          
                  \  \/   | |  | |   /    \    | | | |  |  | /  /          
                 / \  \   | |__| |  /  /\  \   | |_| |  |  |/  /          
                |  |  |   |  __  | /  /__\  \  |    /   |      \           
                |  |  |   | |  | | |   __   |  |    \   |  |\   \          
                \     /   | |  | | |  |  |  |  | |\  \  |  | \   \       
                 \___/    |_|  |_| |__|  |__|  |_| \__\ |__|  \__/        
                                                                              
                      - O R C A' S   B I G   F R I E N D -                    
                                      &                                       
                       - I N T E G R A L  F E E D E R -                       
                                                                              
 v1 FN, 2020, v2 2021                                                         
------------------------------------------------------------------------------


Reading SHARK input file pbeh-3c.SHARKINP.tmp ... ok
----------------------
SHARK INTEGRAL PACKAGE
----------------------

Number of atoms                             ...     12
Number of basis functions                   ...    128
Number of shells                            ...     64
Maximum angular momentum                    ...      2
Integral batch strategy                     ... SHARK/LIBINT Hybrid
RI-J (if used) integral strategy            ... SPLIT-RIJ (Revised 2003 algorithm where possible)
Printlevel                                  ...      1
Contraction scheme used                     ... SEGMENTED contraction
Coulomb Range Separation                    ... NOT USED
Exchange Range Separation                   ... NOT USED
Finite Nucleus Model                        ... NOT USED
Auxiliary Coulomb fitting basis             ... AVAILABLE
   # of basis functions in Aux-J            ...    436
   # of shells in Aux-J                     ...    140
   Maximum angular momentum in Aux-J        ...      4
Auxiliary J/K fitting basis                 ... NOT available
Auxiliary Correlation fitting basis         ... NOT available
Auxiliary 'external' fitting basis          ... NOT available
Integral threshold                          ...     2.500000e-11
Primitive cut-off                           ...     2.500000e-12
Primitive pair pre-selection threshold      ...     2.500000e-12

Calculating pre-screening integrals         ... done (  0.1 sec) Dimension = 64
Organizing shell pair data                  ... done (  0.4 sec)
Shell pair information
Total number of shell pairs                 ...      2080
Shell pairs after pre-screening             ...      1892
Total number of primitive shell pairs       ...      7376
Primitive shell pairs kept                  ...      4908
          la=0 lb=0:    688 shell pairs
          la=1 lb=0:    615 shell pairs
          la=1 lb=1:    135 shell pairs
          la=2 lb=0:    292 shell pairs
          la=2 lb=1:    126 shell pairs
          la=2 lb=2:     36 shell pairs

Calculating one electron integrals          ... done (  0.0 sec)
Calculating RI/J V-Matrix + Cholesky decomp.... done (  0.9 sec)
Calculating Nuclear repulsion               ... done (  0.1 sec) ENN=    357.228267776924 Eh

SHARK setup successfully completed in   3.0 seconds

Maximum memory used throughout the entire GTOINT-calculation: 10.6 MB


           ************************************************************
           *        Program running with 4 parallel MPI-processes     *
           *              working on a common directory               *
           ************************************************************
-------------------------------------------------------------------------------
                                 ORCA SCF
-------------------------------------------------------------------------------

------------
SCF SETTINGS
------------
Hamiltonian:
 Density Functional     Method          .... DFT(GTOs)
 Exchange Functional    Exchange        .... PBE
   PBE kappa parameter   XKappa         ....  1.024500
   PBE mue parameter    XMuePBE         ....  0.123457
 Correlation Functional Correlation     .... PBE
   PBE beta parameter  CBetaPBE         ....  0.030000
 LDA part of GGA corr.  LDAOpt          .... PW91-LDA
 Gradients option       PostSCFGGA      .... off
 Hybrid DFT is turned on
   Fraction HF Exchange ScalHFX         ....  0.420000
   Scaling of DF-GGA-X  ScalDFX         ....  0.580000
   Scaling of DF-GGA-C  ScalDFC         ....  1.000000
   Scaling of DF-LDA-C  ScalLDAC        ....  1.000000
   Perturbative correction              ....  0.000000
   Density functional embedding theory  .... OFF
 RI-approximation to the Coulomb term is turned on
   Number of AuxJ basis functions       .... 436
   RIJ-ON(X) (HFX calculated with O(N)) .... on
   Number of AuxJ basis functions       .... 436
   RIJ-COSX (HFX calculated with COS-X)).... on


General Settings:
 Integral files         IntName         .... pbeh-3c
 Hartree-Fock type      HFTyp           .... RHF
 Total Charge           Charge          ....    0
 Multiplicity           Mult            ....    1
 Number of Electrons    NEL             ....   58
 Basis Dimension        Dim             ....  128
 Nuclear Repulsion      ENuc            ....    357.2282677769 Eh

Convergence Acceleration:
 DIIS                   CNVDIIS         .... on
   Start iteration      DIISMaxIt       ....    12
   Startup error        DIISStart       ....  0.200000
   # of expansion vecs  DIISMaxEq       ....     5
   Bias factor          DIISBfac        ....   1.050
   Max. coefficient     DIISMaxC        ....  10.000
 Trust-Rad. Augm. Hess. CNVTRAH         .... auto
   Auto Start mean grad. ratio tolernc. ....  1.125000
   Auto Start start iteration           ....    20
   Auto Start num. interpolation iter.  ....    10
   Max. Number of Micro iterations      ....    16
   Max. Number of Macro iterations      .... Maxiter - #DIIS iter
   Number of Davidson start vectors     ....     2
   Converg. threshold I  (grad. norm)   ....   1.000e-05
   Converg. threshold II (energy diff.) ....   1.000e-08
   Grad. Scal. Fac. for Micro threshold ....   0.100
   Minimum threshold for Micro iter.    ....   0.010
   NR start threshold (gradient norm)   ....   0.001
   Initial trust radius                 ....   0.400
   Minimum AH scaling param. (alpha)    ....   1.000
   Maximum AH scaling param. (alpha)    .... 1000.000
   Orbital update algorithm             .... Taylor
   White noise on init. David. guess    .... on
   Maximum white noise                  ....   0.010
   Quad. conv. algorithm                .... NR
   COSX micro iterations for RIJONX calc.... off
 SOSCF                  CNVSOSCF        .... on
   Start iteration      SOSCFMaxIt      ....   150
   Startup grad/error   SOSCFStart      ....  0.003300
 Level Shifting         CNVShift        .... on
   Level shift para.    LevelShift      ....    0.2500
   Turn off err/grad.   ShiftErr        ....    0.0010
 Zerner damping         CNVZerner       .... off
 Static damping         CNVDamp         .... on
   Fraction old density DampFac         ....    0.7000
   Max. Damping (<1)    DampMax         ....    0.9800
   Min. Damping (>=0)   DampMin         ....    0.0000
   Turn off err/grad.   DampErr         ....    0.1000
 Fernandez-Rico         CNVRico         .... off

SCF Procedure:
 Maximum # iterations   MaxIter         ....   125
 SCF integral mode      SCFMode         .... Direct
   Integral package                     .... SHARK and LIBINT hybrid scheme
 Reset frequency        DirectResetFreq ....    20
 Integral Threshold     Thresh          ....  2.500e-11 Eh
 Primitive CutOff       TCut            ....  2.500e-12 Eh

Convergence Tolerance:
 Convergence Check Mode ConvCheckMode   .... Total+1el-Energy
 Convergence forced     ConvForced      .... 0
 Energy Change          TolE            ....  1.000e-08 Eh
 1-El. energy change                    ....  1.000e-05 Eh
 Orbital Gradient       TolG            ....  1.000e-05
 Orbital Rotation angle TolX            ....  1.000e-05
 DIIS Error             TolErr          ....  5.000e-07


Diagonalization of the overlap matrix:
Smallest eigenvalue                        ... 2.042e-03
Time for diagonalization                   ...    0.003 sec
Threshold for overlap eigenvalues          ... 1.000e-08
Number of eigenvalues below threshold      ... 0
Time for construction of square roots      ...    0.270 sec
Total time needed                          ...    0.273 sec

--------------------------------
INITIAL GUESS: MINIMAL BASIS EHT
--------------------------------
The minimal basis has 44 functions
EHT matrix was diagonalized
Basis set overlap was calculated now projecting the orbitals
Using GuessMode=FMatrix for the initial guess
C*T matrix was formed
Effective Fockian was calculated
Effective Fockian was diagonalized
Initial density was built
                      ------------------
                      INITIAL GUESS DONE
                      ------------------
-------------------
DFT GRID GENERATION
-------------------

General Integration Accuracy     IntAcc      ... 4.959
Radial Grid Type                 RadialGrid  ... OptM3 with GC (2021)
Angular Grid (max. ang.)         AngularGrid ... 6 (Lebedev-590)
Angular grid pruning method      GridPruning ... 4 (adaptive)
Weight generation scheme         WeightScheme... Becke
Basis function cutoff            BFCut       ... 1.0000e-11
Integration weight cutoff        WCut        ... 1.0000e-14
Angular grids for H and He will be reduced by one unit
Partially contracted basis set               ... off
Rotationally invariant grid construction     ... off

Total number of grid points                  ...   149759
Total number of batches                      ...     2346
Average number of points per batch           ...       63
Average number of grid points per atom       ...    12480
Time for grid setup =    4.250 sec

--------------------
COSX GRID GENERATION
--------------------

GRIDX 1
-------
General Integration Accuracy     IntAcc      ... 4.020
Radial Grid Type                 RadialGrid  ... OptM3 with GC (2021)
Angular Grid (max. ang.)         AngularGrid ... 2 (Lebedev-110)
Angular grid pruning method      GridPruning ... 4 (adaptive)
Weight generation scheme         WeightScheme... Becke
Basis function cutoff            BFCut       ... 1.0000e-11
Integration weight cutoff        WCut        ... 1.0000e-14
Angular grids for H and He will be reduced by one unit
Partially contracted basis set               ... on
Rotationally invariant grid construction     ... off

Total number of grid points                  ...    17615
Total number of batches                      ...      281
Average number of points per batch           ...       62
Average number of grid points per atom       ...     1468
UseSFitting                                  ... on

GRIDX 2
-------
General Integration Accuracy     IntAcc      ... 4.338
Radial Grid Type                 RadialGrid  ... OptM3 with GC (2021)
Angular Grid (max. ang.)         AngularGrid ... 3 (Lebedev-194)
Angular grid pruning method      GridPruning ... 4 (adaptive)
Weight generation scheme         WeightScheme... Becke
Basis function cutoff            BFCut       ... 1.0000e-11
Integration weight cutoff        WCut        ... 1.0000e-14
Angular grids for H and He will be reduced by one unit
Partially contracted basis set               ... on
Rotationally invariant grid construction     ... off

Total number of grid points                  ...    38897
Total number of batches                      ...      615
Average number of points per batch           ...       63
Average number of grid points per atom       ...     3241
UseSFitting                                  ... on

GRIDX 3
-------
General Integration Accuracy     IntAcc      ... 4.871
Radial Grid Type                 RadialGrid  ... OptM3 with GC (2021)
Angular Grid (max. ang.)         AngularGrid ... 4 (Lebedev-302)
Angular grid pruning method      GridPruning ... 4 (adaptive)
Weight generation scheme         WeightScheme... Becke
Basis function cutoff            BFCut       ... 1.0000e-11
Integration weight cutoff        WCut        ... 1.0000e-14
Angular grids for H and He will be reduced by one unit
Partially contracted basis set               ... on
Rotationally invariant grid construction     ... off

Total number of grid points                  ...    71980
Total number of batches                      ...     1132
Average number of points per batch           ...       63
Average number of grid points per atom       ...     5998
UseSFitting                                  ... on

Time for X-Grid setup             =    4.749 sec

--------------
SCF ITERATIONS
--------------
ITER       Energy         Delta-E        Max-DP      RMS-DP      [F,P]     Damp
               ***  Starting incremental Fock matrix formation  ***
  0   -412.3218836903   0.000000000000 0.26289083  0.00972679  0.5965432 0.7000
  1   -412.9656198965  -0.643736206233 0.15742244  0.00487129  0.2943189 0.7000
  2   -413.2453555100  -0.279735613507 0.07624931  0.00272600  0.2050991 0.7000
                               ***Turning on DIIS***
  3   -413.4509404447  -0.205584934640 0.07192403  0.00200077  0.1441706 0.7000
  4   -413.6008952148  -0.149954770080 0.04999971  0.00143884  0.1014912 0.7000
  5   -413.7062725607  -0.105377345991 0.11077565  0.00343945  0.0709507 0.0000
  6   -413.9560696164  -0.249797055654 0.00809301  0.00020378  0.0058543 0.0000
                      *** Initiating the SOSCF procedure ***
                           *** Shutting down DIIS ***
                      *** Re-Reading the Fockian *** 
                      *** Removing any level shift *** 
ITER      Energy       Delta-E        Grad      Rot      Max-DP    RMS-DP
  7   -413.95625491  -0.0001852944  0.001125  0.001125  0.002376  0.000098
               *** Restarting incremental Fock matrix formation ***
  8   -413.95631670  -0.0000617877  0.000990  0.003139  0.002041  0.000084
  9   -413.95633257  -0.0000158705  0.000358  0.001360  0.002585  0.000081
 10   -413.95633202   0.0000005483  0.000425  0.000421  0.001143  0.000036
 11   -413.95633532  -0.0000032975  0.000036  0.000133  0.000165  0.000005
 12   -413.95633533  -0.0000000103  0.000034  0.000060  0.000088  0.000003
 13   -413.95633537  -0.0000000442  0.000003  0.000012  0.000014  0.000000
 14   -413.95633537   0.0000000015  0.000003  0.000005  0.000007  0.000000
                  ***Gradient check signals convergence***
              ***Rediagonalizing the Fockian in SOSCF/NRSCF***

               *****************************************************
               *                     SUCCESS                       *
               *           SCF CONVERGED AFTER  15 CYCLES          *
               *****************************************************

Old exchange energy                            =    -21.781926131 Eh
New exchange energy                            =    -21.781922184 Eh
Exchange energy change after final integration =      0.000003947 Eh
Total energy after final integration           =   -413.956331424 Eh
Final COS-X integration done in                =     4.333 sec

----------------
TOTAL SCF ENERGY
----------------

Total Energy       :         -413.95633142 Eh          -11264.32445 eV

Components:
Nuclear Repulsion  :          357.22826778 Eh            9720.67536 eV
Electronic Energy  :         -771.18459920 Eh          -20984.99980 eV
One Electron Energy:        -1271.61698565 Eh          -34602.45733 eV
Two Electron Energy:          500.43238644 Eh           13617.45753 eV
Max COSX asymmetry :            0.00000269 Eh               0.00007 eV

Virial components:
Potential Energy   :         -824.89592851 Eh          -22446.55938 eV
Kinetic Energy     :          410.93959709 Eh           11182.23493 eV
Virial Ratio       :            2.00734107


DFT components:
N(Alpha)           :       28.999999450733 electrons
N(Beta)            :       28.999999450733 electrons
N(Total)           :       57.999998901466 electrons
E(X)               :      -29.015219323685 Eh       
E(C)               :       -2.599201139558 Eh       
E(XC)              :      -31.614420463243 Eh       
DFET-embed. en.    :        0.000000000000 Eh       

---------------
SCF CONVERGENCE
---------------

  Last Energy change         ...    5.7128e-11  Tolerance :   1.0000e-08
  Last MAX-Density change    ...    9.9920e-16  Tolerance :   1.0000e-07
  Last RMS-Density change    ...    4.3184e-17  Tolerance :   5.0000e-09
  Last Orbital Gradient      ...    4.8913e-07  Tolerance :   1.0000e-05
  Last Orbital Rotation      ...    1.2572e-06  Tolerance :   1.0000e-05

             **** THE GBW FILE WAS UPDATED (pbeh-3c.gbw) ****
             **** DENSITY pbeh-3c.scfp WAS UPDATED ****
             **** ENERGY FILE WAS UPDATED (pbeh-3c.en.tmp) ****
             **** THE GBW FILE WAS UPDATED (pbeh-3c.gbw) ****
             **** DENSITY pbeh-3c.scfp WAS UPDATED ****
----------------
ORBITAL ENERGIES
----------------

  NO   OCC          E(Eh)            E(eV) 
   0   2.0000     -19.478723      -530.0430 
   1   2.0000     -19.477903      -530.0207 
   2   2.0000     -14.722621      -400.6229 
   3   2.0000     -14.697356      -399.9354 
   4   2.0000     -10.607921      -288.6562 
   5   2.0000     -10.574750      -287.7536 
   6   2.0000     -10.540357      -286.8177 
   7   2.0000     -10.469383      -284.8864 
   8   2.0000      -1.194249       -32.4972 
   9   2.0000      -1.157490       -31.4969 
  10   2.0000      -1.093105       -29.7449 
  11   2.0000      -1.035254       -28.1707 
  12   2.0000      -0.901134       -24.5211 
  13   2.0000      -0.783344       -21.3159 
  14   2.0000      -0.750074       -20.4106 
  15   2.0000      -0.678601       -18.4657 
  16   2.0000      -0.638780       -17.3821 
  17   2.0000      -0.594866       -16.1871 
  18   2.0000      -0.554121       -15.0784 
  19   2.0000      -0.545719       -14.8498 
  20   2.0000      -0.520071       -14.1518 
  21   2.0000      -0.489748       -13.3267 
  22   2.0000      -0.486702       -13.2438 
  23   2.0000      -0.469382       -12.7725 
  24   2.0000      -0.429533       -11.6882 
  25   2.0000      -0.358259        -9.7487 
  26   2.0000      -0.339687        -9.2434 
  27   2.0000      -0.328416        -8.9367 
  28   2.0000      -0.301671        -8.2089 
  29   0.0000      -0.024402        -0.6640 
  30   0.0000       0.039039         1.0623 
  31   0.0000       0.088950         2.4205 
  32   0.0000       0.153050         4.1647 
  33   0.0000       0.160404         4.3648 
  34   0.0000       0.161611         4.3977 
  35   0.0000       0.204674         5.5695 
  36   0.0000       0.227166         6.1815 
  37   0.0000       0.251420         6.8415 
  38   0.0000       0.271519         7.3884 
  39   0.0000       0.298817         8.1312 
  40   0.0000       0.357248         9.7212 
  41   0.0000       0.378169        10.2905 
  42   0.0000       0.401303        10.9200 
  43   0.0000       0.457713        12.4550 
  44   0.0000       0.458399        12.4737 
  45   0.0000       0.521584        14.1930 
  46   0.0000       0.531842        14.4722 
  47   0.0000       0.548788        14.9333 
  48   0.0000       0.557474        15.1696 
  49   0.0000       0.569682        15.5018 
  50   0.0000       0.581466        15.8225 
  51   0.0000       0.638586        17.3768 
  52   0.0000       0.652175        17.7466 
  53   0.0000       0.673212        18.3190 
  54   0.0000       0.706611        19.2279 
  55   0.0000       0.763593        20.7784 
  56   0.0000       0.820341        22.3226 
  57   0.0000       0.821903        22.3651 
  58   0.0000       0.892287        24.2804 
  59   0.0000       0.900825        24.5127 
  60   0.0000       0.923062        25.1178 
  61   0.0000       0.933308        25.3966 
  62   0.0000       0.961220        26.1561 
  63   0.0000       0.969623        26.3848 
  64   0.0000       1.014140        27.5961 
  65   0.0000       1.025982        27.9184 
  66   0.0000       1.072191        29.1758 
  67   0.0000       1.114043        30.3147 
  68   0.0000       1.121408        30.5151 
  69   0.0000       1.145225        31.1632 
  70   0.0000       1.179759        32.1029 
  71   0.0000       1.186386        32.2832 
  72   0.0000       1.227100        33.3911 
  73   0.0000       1.228766        33.4364 
  74   0.0000       1.309408        35.6308 
  75   0.0000       1.378858        37.5206 
  76   0.0000       1.384204        37.6661 
  77   0.0000       1.431396        38.9503 
  78   0.0000       1.469012        39.9738 
  79   0.0000       1.491414        40.5834 
  80   0.0000       1.499643        40.8074 
  81   0.0000       1.522911        41.4405 
  82   0.0000       1.601531        43.5799 
  83   0.0000       1.649433        44.8834 
  84   0.0000       1.700797        46.2810 
  85   0.0000       1.799142        48.9571 
  86   0.0000       1.850149        50.3451 
  87   0.0000       1.856329        50.5133 
  88   0.0000       1.861793        50.6620 
  89   0.0000       1.887066        51.3497 
  90   0.0000       1.941145        52.8212 
  91   0.0000       1.995657        54.3046 
  92   0.0000       2.006456        54.5984 
  93   0.0000       2.015873        54.8547 
  94   0.0000       2.030931        55.2644 
  95   0.0000       2.064361        56.1741 
  96   0.0000       2.098337        57.0986 
  97   0.0000       2.204635        59.9912 
  98   0.0000       2.216610        60.3170 
  99   0.0000       2.219779        60.4033 
 100   0.0000       2.250834        61.2483 
 101   0.0000       2.311738        62.9056 
 102   0.0000       2.334167        63.5159 
 103   0.0000       2.357058        64.1388 
 104   0.0000       2.370342        64.5003 
 105   0.0000       2.406451        65.4829 
 106   0.0000       2.566917        69.8493 
 107   0.0000       2.635862        71.7254 
 108   0.0000       2.660808        72.4043 
 109   0.0000       2.674096        72.7658 
 110   0.0000       2.718405        73.9716 
 111   0.0000       2.731964        74.3405 
 112   0.0000       2.786617        75.8277 
 113   0.0000       2.830220        77.0142 
 114   0.0000       2.853375        77.6443 
 115   0.0000       2.968453        80.7757 
 116   0.0000       3.016342        82.0788 
 117   0.0000       3.067937        83.4828 
 118   0.0000       3.283992        89.3620 
 119   0.0000       3.490376        94.9780 
 120   0.0000      13.427438       365.3792 
 121   0.0000      13.921749       378.8301 
 122   0.0000      13.951264       379.6332 
 123   0.0000      14.209509       386.6604 
 124   0.0000      19.242018       523.6019 
 125   0.0000      19.358290       526.7659 
 126   0.0000      25.728680       700.1130 
 127   0.0000      25.760517       700.9793 

                    ********************************
                    * MULLIKEN POPULATION ANALYSIS *
                    ********************************

-----------------------
MULLIKEN ATOMIC CHARGES
-----------------------
   0 N :   -0.720043
   1 H :    0.400860
   2 C :    0.566670
   3 O :   -0.390375
   4 C :   -0.452531
   5 H :    0.267835
   6 C :    0.083090
   7 H :    0.272327
   8 N :   -0.673476
   9 H :    0.397268
  10 C :    0.678012
  11 O :   -0.429638
Sum of atomic charges:   -0.0000000

--------------------------------
MULLIKEN REDUCED ORBITAL CHARGES
--------------------------------
  0 N s       :     3.592477  s :     3.592477
      pz      :     1.656175  p :     4.095949
      px      :     1.166825
      py      :     1.272950
      dz2     :     0.004421  d :     0.031616
      dxz     :     0.004324
      dyz     :     0.001828
      dx2y2   :     0.010682
      dxy     :     0.010361
  1 H s       :     0.599140  s :     0.599140
  2 C s       :     2.926237  s :     2.926237
      pz      :     0.784247  p :     2.385447
      px      :     0.793249
      py      :     0.807952
      dz2     :     0.006131  d :     0.121645
      dxz     :     0.025816
      dyz     :     0.008947
      dx2y2   :     0.026453
      dxy     :     0.054298
  3 O s       :     3.758592  s :     3.758592
      pz      :     1.430376  p :     4.601424
      px      :     1.377937
      py      :     1.793111
      dz2     :     0.002764  d :     0.030359
      dxz     :     0.011407
      dyz     :     0.000212
      dx2y2   :     0.008878
      dxy     :     0.007098
  4 C s       :     3.300939  s :     3.300939
      pz      :     1.121134  p :     3.117065
      px      :     0.906693
      py      :     1.089238
      dz2     :     0.004127  d :     0.034527
      dxz     :     0.005445
      dyz     :     0.001824
      dx2y2   :     0.010589
      dxy     :     0.012541
  5 H s       :     0.732165  s :     0.732165
  6 C s       :     3.131593  s :     3.131593
      pz      :     0.921777  p :     2.725644
      px      :     0.952137
      py      :     0.851730
      dz2     :     0.004745  d :     0.059673
      dxz     :     0.012241
      dyz     :     0.006982
      dx2y2   :     0.012818
      dxy     :     0.022887
  7 H s       :     0.727673  s :     0.727673
  8 N s       :     3.572157  s :     3.572157
      pz      :     1.651079  p :     4.066068
      px      :     1.273169
      py      :     1.141820
      dz2     :     0.004266  d :     0.035251
      dxz     :     0.002002
      dyz     :     0.006016
      dx2y2   :     0.014314
      dxy     :     0.008653
  9 H s       :     0.602732  s :     0.602732
 10 C s       :     2.806154  s :     2.806154
      pz      :     0.795942  p :     2.372498
      px      :     0.791945
      py      :     0.784611
      dz2     :     0.006629  d :     0.143336
      dxz     :     0.019705
      dyz     :     0.025137
      dx2y2   :     0.055486
      dxy     :     0.036380
 11 O s       :     3.762419  s :     3.762419
      pz      :     1.496120  p :     4.636921
      px      :     1.665393
      py      :     1.475409
      dz2     :     0.002919  d :     0.030298
      dxz     :     0.003124
      dyz     :     0.008141
      dx2y2   :     0.007267
      dxy     :     0.008847


                     *******************************
                     * LOEWDIN POPULATION ANALYSIS *
                     *******************************

----------------------
LOEWDIN ATOMIC CHARGES
----------------------
   0 N :   -0.202156
   1 H :    0.287821
   2 C :    0.123978
   3 O :   -0.240727
   4 C :   -0.239801
   5 H :    0.164456
   6 C :   -0.013362
   7 H :    0.149741
   8 N :   -0.182116
   9 H :    0.288114
  10 C :    0.143799
  11 O :   -0.279746

-------------------------------
LOEWDIN REDUCED ORBITAL CHARGES
-------------------------------
  0 N s       :     3.118125  s :     3.118125
      pz      :     1.593819  p :     4.008184
      px      :     1.189224
      py      :     1.225140
      dz2     :     0.007673  d :     0.075847
      dxz     :     0.009085
      dyz     :     0.003373
      dx2y2   :     0.028179
      dxy     :     0.027537
  1 H s       :     0.712179  s :     0.712179
  2 C s       :     2.816331  s :     2.816331
      pz      :     0.795819  p :     2.783261
      px      :     1.002569
      py      :     0.984873
      dz2     :     0.014832  d :     0.276430
      dxz     :     0.051073
      dyz     :     0.017937
      dx2y2   :     0.061279
      dxy     :     0.131309
  3 O s       :     3.520440  s :     3.520440
      pz      :     1.423571  p :     4.664028
      px      :     1.461872
      py      :     1.778585
      dz2     :     0.006707  d :     0.056258
      dxz     :     0.015037
      dyz     :     0.000297
      dx2y2   :     0.020365
      dxy     :     0.013852
  4 C s       :     2.908706  s :     2.908706
      pz      :     1.100004  p :     3.250092
      px      :     1.070659
      py      :     1.079429
      dz2     :     0.007425  d :     0.081002
      dxz     :     0.009764
      dyz     :     0.003334
      dx2y2   :     0.028885
      dxy     :     0.031595
  5 H s       :     0.835544  s :     0.835544
  6 C s       :     2.880983  s :     2.880983
      pz      :     0.918904  p :     3.000030
      px      :     1.089816
      py      :     0.991310
      dz2     :     0.008984  d :     0.132349
      dxz     :     0.024934
      dyz     :     0.014401
      dx2y2   :     0.032059
      dxy     :     0.051971
  7 H s       :     0.850259  s :     0.850259
  8 N s       :     3.091288  s :     3.091288
      pz      :     1.594569  p :     4.005904
      px      :     1.214151
      py      :     1.197183
      dz2     :     0.006673  d :     0.084924
      dxz     :     0.003548
      dyz     :     0.013107
      dx2y2   :     0.036276
      dxy     :     0.025320
  9 H s       :     0.711886  s :     0.711886
 10 C s       :     2.779919  s :     2.779919
      pz      :     0.813882  p :     2.755191
      px      :     0.958711
      py      :     0.982599
      dz2     :     0.016657  d :     0.321091
      dxz     :     0.039878
      dyz     :     0.050761
      dx2y2   :     0.129690
      dxy     :     0.084104
 11 O s       :     3.528377  s :     3.528377
      pz      :     1.487790  p :     4.696259
      px      :     1.678249
      py      :     1.530220
      dz2     :     0.006824  d :     0.055111
      dxz     :     0.004249
      dyz     :     0.010864
      dx2y2   :     0.013749
      dxy     :     0.019425


                      *****************************
                      * MAYER POPULATION ANALYSIS *
                      *****************************

  NA   - Mulliken gross atomic population
  ZA   - Total nuclear charge
  QA   - Mulliken gross atomic charge
  VA   - Mayer's total valence
  BVA  - Mayer's bonded valence
  FA   - Mayer's free valence

  ATOM       NA         ZA         QA         VA         BVA        FA
  0 N      7.7200     7.0000    -0.7200     2.9958     2.9958    -0.0000
  1 H      0.5991     1.0000     0.4009     0.8300     0.8300    -0.0000
  2 C      5.4333     6.0000     0.5667     4.0721     4.0721    -0.0000
  3 O      8.3904     8.0000    -0.3904     2.2331     2.2331    -0.0000
  4 C      6.4525     6.0000    -0.4525     3.7516     3.7516    -0.0000
  5 H      0.7322     1.0000     0.2678     0.9069     0.9069     0.0000
  6 C      5.9169     6.0000     0.0831     3.6380     3.6380     0.0000
  7 H      0.7277     1.0000     0.2723     0.8862     0.8862     0.0000
  8 N      7.6735     7.0000    -0.6735     3.0850     3.0850    -0.0000
  9 H      0.6027     1.0000     0.3973     0.8273     0.8273    -0.0000
 10 C      5.3220     6.0000     0.6780     4.1384     4.1384    -0.0000
 11 O      8.4296     8.0000    -0.4296     2.2063     2.2063     0.0000

  Mayer bond orders larger than 0.100000
B(  0-N ,  1-H ) :   0.7974 B(  0-N ,  2-C ) :   0.9768 B(  0-N , 10-C ) :   1.0720 
B(  2-C ,  3-O ) :   2.0421 B(  2-C ,  4-C ) :   1.0552 B(  4-C ,  5-H ) :   0.9057 
B(  4-C ,  6-C ) :   1.6452 B(  6-C ,  7-H ) :   0.8996 B(  6-C ,  8-N ) :   1.0774 
B(  8-N ,  9-H ) :   0.8043 B(  8-N , 10-C ) :   1.0357 B( 10-C , 11-O ) :   2.0281 


-------
TIMINGS
-------

Total SCF time: 0 days 0 hours 1 min 40 sec 

Total time                  ....     100.944 sec
Sum of individual times     ....      92.659 sec  ( 91.8%)

Fock matrix formation       ....      77.988 sec  ( 77.3%)
  Split-RI-J                ....       8.090 sec  ( 10.4% of F)
  Chain of spheres X        ....      29.746 sec  ( 38.1% of F)
  XC integration            ....      21.758 sec  ( 27.9% of F)
    Basis function eval.    ....       3.000 sec  ( 13.8% of XC)
    Density eval.           ....       1.847 sec  (  8.5% of XC)
    XC-Functional eval.     ....       1.373 sec  (  6.3% of XC)
    XC-Potential eval.      ....       1.206 sec  (  5.5% of XC)
Diagonalization             ....       1.172 sec  (  1.2%)
Density matrix formation    ....       0.036 sec  (  0.0%)
Population analysis         ....       0.843 sec  (  0.8%)
Initial guess               ....       0.067 sec  (  0.1%)
Orbital Transformation      ....       0.000 sec  (  0.0%)
Orbital Orthonormalization  ....       0.000 sec  (  0.0%)
DIIS solution               ....       2.218 sec  (  2.2%)
SOSCF solution              ....       1.335 sec  (  1.3%)
Grid generation             ....       9.000 sec  (  8.9%)

Maximum memory used throughout the entire SCF-calculation: 52.7 MB


-------------------------------------------------------------------------------
                          DFT DISPERSION CORRECTION                            
                                                                               
                              DFTD3 V3.1  Rev 1                                
                          USING Becke-Johnson damping                          
-------------------------------------------------------------------------------
The PBEh-3c composite method is recognized
Using three-body term ABC
Active option DFTDOPT                   ...         4   

molecular C6(AA) [au] = 1767.912859 


            DFT-D V3
 parameters
 s6 scaling factor         :     1.0000 
 a1 scaling factor         :     0.4860 
 s8 scaling factor         :     0.0000 
 a2 scaling factor         :     4.5000 
 Damping factor alpha9(ATM):    16.0000 
 ad hoc parameters k1-k3   :    16.0000     1.3333    -4.0000 

 Edisp/kcal,au: -3.914215949972  -0.006237699500 
 E6   /kcal   :  -3.922354449 
 E8   /kcal   :  -0.000000000 
 E6(ABC)      :   0.008138499 
 % E8         :   0.000000000 
 % E6(ABC)    :  -0.207921570 

-------------------------   ----------------
Dispersion correction           -0.006237699
-------------------------   ----------------

------------------   -----------------
gCP correction             0.025312783
------------------   -----------------

-------------------------   --------------------
FINAL SINGLE POINT ENERGY      -413.937256340892
-------------------------   --------------------


                            ***************************************
                            *     ORCA property calculations      *
                            ***************************************

                                    ---------------------
                                    Active property flags
                                    ---------------------
   (+) Dipole Moment


------------------------------------------------------------------------------
                       ORCA ELECTRIC PROPERTIES CALCULATION
------------------------------------------------------------------------------

Dipole Moment Calculation                       ... on
Quadrupole Moment Calculation                   ... off
Polarizability Calculation                      ... off
GBWName                                         ... pbeh-3c.gbw
Electron density                                ... pbeh-3c.scfp
The origin for moment calculation is the CENTER OF MASS  = ( 0.286303,  0.623583  0.000000)

-------------
DIPOLE MOMENT
-------------
                                X             Y             Z
Electronic contribution:      0.48473       2.02370      -0.00000
Nuclear contribution   :     -1.72287      -3.35733       0.00000
                        -----------------------------------------
Total Dipole Moment    :     -1.23814      -1.33363      -0.00000
                        -----------------------------------------
Magnitude (a.u.)       :      1.81977
Magnitude (Debye)      :      4.62549



--------------------
Rotational spectrum 
--------------------
 
Rotational constants in cm-1:     0.130388     0.067515     0.044482 
Rotational constants in MHz :  3908.938120  2024.052646  1333.542703 

 Dipole components along the rotational axes: 
x,y,z [a.u.] :     0.541628    -1.737299    -0.000000 
x,y,z [Debye]:     1.376708    -4.415863    -0.000000 

 

Timings for individual modules:

Sum of individual times         ...      105.883 sec (=   1.765 min)
GTO integral calculation        ...        4.123 sec (=   0.069 min)   3.9 %
SCF iterations                  ...      101.760 sec (=   1.696 min)  96.1 %
                             ****ORCA TERMINATED NORMALLY****
TOTAL RUN TIME: 0 days 0 hours 1 minutes 51 seconds 51 msec
