
                                 *****************
                                 * O   R   C   A *
                                 *****************

                                            #,                                       
                                            ###                                      
                                            ####                                     
                                            #####                                    
                                            ######                                   
                                           ########,                                 
                                     ,,################,,,,,                         
                               ,,#################################,,                 
                          ,,##########################################,,             
                       ,#########################################, ''#####,          
                    ,#############################################,,   '####,        
                  ,##################################################,,,,####,       
                ,###########''''           ''''###############################       
              ,#####''   ,,,,##########,,,,          '''####'''          '####       
            ,##' ,,,,###########################,,,                        '##       
           ' ,,###''''                  '''############,,,                           
         ,,##''                                '''############,,,,        ,,,,,,###''
      ,#''                                            '''#######################'''  
     '                                                          ''''####''''         
             ,#######,   #######,   ,#######,      ##                                
            ,#'     '#,  ##    ##  ,#'     '#,    #''#        ######   ,####,        
            ##       ##  ##   ,#'  ##            #'  '#       #        #'  '#        
            ##       ##  #######   ##           ,######,      #####,   #    #        
            '#,     ,#'  ##    ##  '#,     ,#' ,#      #,         ##   #,  ,#        
             '#######'   ##     ##  '#######'  #'      '#     #####' # '####'        



                  #######################################################
                  #                        -***-                        #
                  #          Department of theory and spectroscopy      #
                  #    Directorship and core code : Frank Neese         #
                  #        Max Planck Institute fuer Kohlenforschung    #
                  #                Kaiser Wilhelm Platz 1               #
                  #                 D-45470 Muelheim/Ruhr               #
                  #                      Germany                        #
                  #                                                     #
                  #                  All rights reserved                #
                  #                        -***-                        #
                  #######################################################


                         Program Version 5.0.3 -  RELEASE  -


 With contributions from (in alphabetic order):
   Daniel Aravena         : Magnetic Suceptibility
   Michael Atanasov       : Ab Initio Ligand Field Theory (pilot matlab implementation)
   Alexander A. Auer      : GIAO ZORA, VPT2 properties, NMR spectrum
   Ute Becker             : Parallelization
   Giovanni Bistoni       : ED, misc. LED, open-shell LED, HFLD
   Martin Brehm           : Molecular dynamics
   Dmytro Bykov           : SCF Hessian
   Vijay G. Chilkuri      : MRCI spin determinant printing, contributions to CSF-ICE
   Dipayan Datta          : RHF DLPNO-CCSD density
   Achintya Kumar Dutta   : EOM-CC, STEOM-CC
   Dmitry Ganyushin       : Spin-Orbit,Spin-Spin,Magnetic field MRCI
   Miquel Garcia          : C-PCM and meta-GGA Hessian, CC/C-PCM, Gaussian charge scheme
   Yang Guo               : DLPNO-NEVPT2, F12-NEVPT2, CIM, IAO-localization
   Andreas Hansen         : Spin unrestricted coupled pair/coupled cluster methods
   Benjamin Helmich-Paris : MC-RPA, TRAH-SCF, COSX integrals
   Lee Huntington         : MR-EOM, pCC
   Robert Izsak           : Overlap fitted RIJCOSX, COSX-SCS-MP3, EOM
   Marcus Kettner         : VPT2
   Christian Kollmar      : KDIIS, OOCD, Brueckner-CCSD(T), CCSD density, CASPT2, CASPT2-K
   Simone Kossmann        : Meta GGA functionals, TD-DFT gradient, OOMP2, MP2 Hessian
   Martin Krupicka        : Initial AUTO-CI
   Lucas Lang             : DCDCAS
   Marvin Lechner         : AUTO-CI (C++ implementation), FIC-MRCC
   Dagmar Lenk            : GEPOL surface, SMD
   Dimitrios Liakos       : Extrapolation schemes; Compound Job, initial MDCI parallelization
   Dimitrios Manganas     : Further ROCIS development; embedding schemes
   Dimitrios Pantazis     : SARC Basis sets
   Anastasios Papadopoulos: AUTO-CI, single reference methods and gradients
   Taras Petrenko         : DFT Hessian,TD-DFT gradient, ASA, ECA, R-Raman, ABS, FL, XAS/XES, NRVS
   Peter Pinski           : DLPNO-MP2, DLPNO-MP2 Gradient
   Christoph Reimann      : Effective Core Potentials
   Marius Retegan         : Local ZFS, SOC
   Christoph Riplinger    : Optimizer, TS searches, QM/MM, DLPNO-CCSD(T), (RO)-DLPNO pert. Triples
   Tobias Risthaus        : Range-separated hybrids, TD-DFT gradient, RPA, STAB
   Michael Roemelt        : Original ROCIS implementation
   Masaaki Saitow         : Open-shell DLPNO-CCSD energy and density
   Barbara Sandhoefer     : DKH picture change effects
   Avijit Sen             : IP-ROCIS
   Kantharuban Sivalingam : CASSCF convergence, NEVPT2, FIC-MRCI
   Bernardo de Souza      : ESD, SOC TD-DFT
   Georgi Stoychev        : AutoAux, RI-MP2 NMR, DLPNO-MP2 response
   Willem Van den Heuvel  : Paramagnetic NMR
   Boris Wezisla          : Elementary symmetry handling
   Frank Wennmohs         : Technical directorship


 We gratefully acknowledge several colleagues who have allowed us to
 interface, adapt or use parts of their codes:
   Stefan Grimme, W. Hujo, H. Kruse, P. Pracht,  : VdW corrections, initial TS optimization,
                  C. Bannwarth, S. Ehlert          DFT functionals, gCP, sTDA/sTD-DF
   Ed Valeev, F. Pavosevic, A. Kumar             : LibInt (2-el integral package), F12 methods
   Garnet Chan, S. Sharma, J. Yang, R. Olivares  : DMRG
   Ulf Ekstrom                                   : XCFun DFT Library
   Mihaly Kallay                                 : mrcc  (arbitrary order and MRCC methods)
   Jiri Pittner, Ondrej Demel                    : Mk-CCSD
   Frank Weinhold                                : gennbo (NPA and NBO analysis)
   Christopher J. Cramer and Donald G. Truhlar   : smd solvation model
   Lars Goerigk                                  : TD-DFT with DH, B97 family of functionals
   V. Asgeirsson, H. Jonsson                     : NEB implementation
   FAccTs GmbH                                   : IRC, NEB, NEB-TS, DLPNO-Multilevel, CI-OPT
                                                   MM, QMMM, 2- and 3-layer-ONIOM, Crystal-QMMM,
                                                   LR-CPCM, SF, NACMEs, symmetry and pop. for TD-DFT,
                                                   nearIR, NL-DFT gradient (VV10), updates on ESD,
                                                   ML-optimized integration grids
   S Lehtola, MJT Oliveira, MAL Marques          : LibXC Library
   Liviu Ungur et al                             : ANISO software


 Your calculation uses the libint2 library for the computation of 2-el integrals
 For citations please refer to: http://libint.valeyev.net

 Your ORCA version has been built with support for libXC version: 5.1.0
 For citations please refer to: https://tddft.org/programs/libxc/

 This ORCA versions uses:
   CBLAS   interface :  Fast vector & matrix operations
   LAPACKE interface :  Fast linear algebra routines
   SCALAPACK package :  Parallel linear algebra routines
   Shared memory     :  Shared parallel matrices
   BLAS/LAPACK       :  OpenBLAS 0.3.15  USE64BITINT DYNAMIC_ARCH NO_AFFINITY Haswell SINGLE_THREADED
        Core in use  :  Haswell
   Copyright (c) 2011-2014, The OpenBLAS Project




***************************************
The coordinates will be read from file: 4N_A.xyz
***************************************


Your calculation utilizes the geometrical counterpoise correction gCP
Please cite in your paper:
H.Kruse, S. Grimme J.Chem.Phys., 136, (2012), 154101 
   

Your calculation utilizes the atom-pairwise dispersion correction
with the Becke-Johnson damping scheme (D3BJ)
Cite in your paper:
S.Grimme, S.Ehrlich, L.Goerigk, J Comput Chem, (2011), 32, 1456–1465 
S.Grimme, J.Antony, S.Ehrlich and H.Krieg, J.Chem.Phys., 132, (2010), 154104 
   

Your calculation employs the composite approach PBEh-3c.
Please cite in your paper:
S. Grimme, J. G. Brandenburg, C. Bannwarth, A. Hansen J.Chem.Phys., 143, (2015), 054107 
   

================================================================================

----- Orbital basis set information -----
Your calculation utilizes the basis: def2-mSVP

----- AuxJ basis set information -----
Your calculation utilizes the auxiliary basis: def2/J
   F. Weigend, Phys. Chem. Chem. Phys. 8, 1057 (2006).

================================================================================
                                        WARNINGS
                       Please study these warnings very carefully!
================================================================================


INFO   : the flag for use of the SHARK integral package has been found!

================================================================================
                                       INPUT FILE
================================================================================
NAME = pbeh-3c.inp
|  1> ! PBEh-3c def2/J TightSCF DefGrid3
|  2> 
|  3> %maxcore 60000
|  4> 
|  5> %pal
|  6> nprocs 4
|  7> end
|  8> 
|  9> *xyzfile 0 1 4N_A.xyz
| 10> 
| 11>                          ****END OF INPUT****
================================================================================

                       ****************************
                       * Single Point Calculation *
                       ****************************

---------------------------------
CARTESIAN COORDINATES (ANGSTROEM)
---------------------------------
  C      0.000000    0.000000   -0.958428
  C     -0.000000    0.673646    1.211259
  C     -0.000000   -0.673646    1.211259
  N      0.000000   -1.053704   -0.113239
  N      0.000000    1.053704   -0.113239
  H     -0.000000    1.372320    2.032710
  H     -0.000000   -1.372320    2.032710
  C      0.000000   -2.421181   -0.566187
  C      0.000000    2.421181   -0.566187
  H      0.886983   -2.952127   -0.216304
  H     -0.886983   -2.952127   -0.216304
  H      0.000000   -2.413512   -1.652720
  H     -0.886983    2.952127   -0.216304
  H      0.886983    2.952127   -0.216304
  H      0.000000    2.413512   -1.652720

----------------------------
CARTESIAN COORDINATES (A.U.)
----------------------------
  NO LB      ZA    FRAG     MASS         X           Y           Z
   0 C     6.0000    0    12.011    0.000000    0.000000   -1.811167
   1 C     6.0000    0    12.011   -0.000000    1.273007    2.288948
   2 C     6.0000    0    12.011   -0.000000   -1.273007    2.288948
   3 N     7.0000    0    14.007    0.000000   -1.991212   -0.213991
   4 N     7.0000    0    14.007    0.000000    1.991212   -0.213991
   5 H     1.0000    0     1.008   -0.000000    2.593310    3.841265
   6 H     1.0000    0     1.008   -0.000000   -2.593310    3.841265
   7 C     6.0000    0    12.011    0.000000   -4.575369   -1.069939
   8 C     6.0000    0    12.011    0.000000    4.575369   -1.069939
   9 H     1.0000    0     1.008    1.676155   -5.578711   -0.408756
  10 H     1.0000    0     1.008   -1.676155   -5.578711   -0.408756
  11 H     1.0000    0     1.008    0.000000   -4.560876   -3.123189
  12 H     1.0000    0     1.008   -1.676155    5.578711   -0.408756
  13 H     1.0000    0     1.008    1.676155    5.578711   -0.408756
  14 H     1.0000    0     1.008    0.000000    4.560876   -3.123189

--------------------------------
INTERNAL COORDINATES (ANGSTROEM)
--------------------------------
 C      0   0   0     0.000000000000     0.00000000     0.00000000
 C      1   0   0     2.271858714374     0.00000000     0.00000000
 C      2   1   0     1.347292800000    72.75143026     0.00000000
 N      1   2   3     1.350790995267    68.51503058     0.00000000
 N      1   2   3     1.350790995267    34.01789111   180.00000085
 H      2   1   3     1.078391120003   156.86619397   180.00000000
 H      3   2   1     1.078391120003   130.38237577   180.00000000
 C      4   1   2     1.440540069178   122.94008810   180.00000000
 C      5   1   2     1.440540069178   122.94008810   180.00000000
 H      8   4   1     1.091357119509   111.16292368   119.36532672
 H      8   4   1     1.091357119509   111.16292368   240.63467328
 H      8   4   1     1.086560066564   107.92195685     0.00000000
 H      9   5   1     1.091357119509   111.16292368   119.36532672
 H      9   5   1     1.091357119509   111.16292368   240.63467328
 H      9   5   1     1.086560066564   107.92195685     0.00000000

---------------------------
INTERNAL COORDINATES (A.U.)
---------------------------
 C      0   0   0     0.000000000000     0.00000000     0.00000000
 C      1   0   0     4.293190785129     0.00000000     0.00000000
 C      2   1   0     2.546014414204    72.75143026     0.00000000
 N      1   2   3     2.552625045221    68.51503058     0.00000000
 N      1   2   3     2.552625045221    34.01789111   180.00000085
 H      2   1   3     2.037863882059   156.86619397   180.00000000
 H      3   2   1     2.037863882059   130.38237577   180.00000000
 C      4   1   2     2.722226215687   122.94008810   180.00000000
 C      5   1   2     2.722226215687   122.94008810   180.00000000
 H      8   4   1     2.062366070177   111.16292368   119.36532672
 H      8   4   1     2.062366070177   111.16292368   240.63467328
 H      8   4   1     2.053300953861   107.92195685     0.00000000
 H      9   5   1     2.062366070177   111.16292368   119.36532672
 H      9   5   1     2.062366070177   111.16292368   240.63467328
 H      9   5   1     2.053300953861   107.92195685     0.00000000

---------------------
BASIS SET INFORMATION
---------------------
There are 3 groups of distinct atoms

 Group   1 Type C   : 8s4p1d contracted to 4s2p1d pattern {5111/31/1}
 Group   2 Type N   : 8s4p1d contracted to 4s2p1d pattern {5111/31/1}
 Group   3 Type H   : 4s contracted to 2s pattern {31}

Atom   0C    basis set group =>   1
Atom   1C    basis set group =>   1
Atom   2C    basis set group =>   1
Atom   3N    basis set group =>   2
Atom   4N    basis set group =>   2
Atom   5H    basis set group =>   3
Atom   6H    basis set group =>   3
Atom   7C    basis set group =>   1
Atom   8C    basis set group =>   1
Atom   9H    basis set group =>   3
Atom  10H    basis set group =>   3
Atom  11H    basis set group =>   3
Atom  12H    basis set group =>   3
Atom  13H    basis set group =>   3
Atom  14H    basis set group =>   3
---------------------------------
AUXILIARY/J BASIS SET INFORMATION
---------------------------------
There are 3 groups of distinct atoms

 Group   1 Type C   : 12s5p4d2f1g contracted to 6s4p3d1f1g pattern {711111/2111/211/2/1}
 Group   2 Type N   : 12s5p4d2f1g contracted to 6s4p3d1f1g pattern {711111/2111/211/2/1}
 Group   3 Type H   : 5s2p1d contracted to 3s1p1d pattern {311/2/1}

Atom   0C    basis set group =>   1
Atom   1C    basis set group =>   1
Atom   2C    basis set group =>   1
Atom   3N    basis set group =>   2
Atom   4N    basis set group =>   2
Atom   5H    basis set group =>   3
Atom   6H    basis set group =>   3
Atom   7C    basis set group =>   1
Atom   8C    basis set group =>   1
Atom   9H    basis set group =>   3
Atom  10H    basis set group =>   3
Atom  11H    basis set group =>   3
Atom  12H    basis set group =>   3
Atom  13H    basis set group =>   3
Atom  14H    basis set group =>   3


           ************************************************************
           *        Program running with 4 parallel MPI-processes     *
           *              working on a common directory               *
           ************************************************************
------------------------------------------------------------------------------
                           ORCA GTO INTEGRAL CALCULATION
                           -- RI-GTO INTEGRALS CHOSEN --
------------------------------------------------------------------------------
------------------------------------------------------------------------------
                   ___                                                        
                  /   \      - P O W E R E D   B Y -                         
                 /     \                                                     
                 |  |  |   _    _      __       _____    __    __             
                 |  |  |  | |  | |    /  \     |  _  \  |  |  /  |          
                  \  \/   | |  | |   /    \    | | | |  |  | /  /          
                 / \  \   | |__| |  /  /\  \   | |_| |  |  |/  /          
                |  |  |   |  __  | /  /__\  \  |    /   |      \           
                |  |  |   | |  | | |   __   |  |    \   |  |\   \          
                \     /   | |  | | |  |  |  |  | |\  \  |  | \   \       
                 \___/    |_|  |_| |__|  |__|  |_| \__\ |__|  \__/        
                                                                              
                      - O R C A' S   B I G   F R I E N D -                    
                                      &                                       
                       - I N T E G R A L  F E E D E R -                       
                                                                              
 v1 FN, 2020, v2 2021                                                         
------------------------------------------------------------------------------


Reading SHARK input file pbeh-3c.SHARKINP.tmp ... ok
----------------------
SHARK INTEGRAL PACKAGE
----------------------

Number of atoms                             ...     15
Number of basis functions                   ...    121
Number of shells                            ...     65
Maximum angular momentum                    ...      2
Integral batch strategy                     ... SHARK/LIBINT Hybrid
RI-J (if used) integral strategy            ... SPLIT-RIJ (Revised 2003 algorithm where possible)
Printlevel                                  ...      1
Contraction scheme used                     ... SEGMENTED contraction
Coulomb Range Separation                    ... NOT USED
Exchange Range Separation                   ... NOT USED
Finite Nucleus Model                        ... NOT USED
Auxiliary Coulomb fitting basis             ... AVAILABLE
   # of basis functions in Aux-J            ...    431
   # of shells in Aux-J                     ...    145
   Maximum angular momentum in Aux-J        ...      4
Auxiliary J/K fitting basis                 ... NOT available
Auxiliary Correlation fitting basis         ... NOT available
Auxiliary 'external' fitting basis          ... NOT available
Integral threshold                          ...     2.500000e-11
Primitive cut-off                           ...     2.500000e-12
Primitive pair pre-selection threshold      ...     2.500000e-12

Calculating pre-screening integrals         ... done (  0.1 sec) Dimension = 65
Organizing shell pair data                  ... done (  0.1 sec)
Shell pair information
Total number of shell pairs                 ...      2145
Shell pairs after pre-screening             ...      1983
Total number of primitive shell pairs       ...      7741
Primitive shell pairs kept                  ...      5212
          la=0 lb=0:    858 shell pairs
          la=1 lb=0:    604 shell pairs
          la=1 lb=1:    105 shell pairs
          la=2 lb=0:    290 shell pairs
          la=2 lb=1:     98 shell pairs
          la=2 lb=2:     28 shell pairs

Calculating one electron integrals          ... done (  0.0 sec)
Calculating RI/J V-Matrix + Cholesky decomp.... done (  0.3 sec)
Calculating Nuclear repulsion               ... done (  0.0 sec) ENN=    297.201056699284 Eh

SHARK setup successfully completed in   1.4 seconds

Maximum memory used throughout the entire GTOINT-calculation: 10.7 MB


           ************************************************************
           *        Program running with 4 parallel MPI-processes     *
           *              working on a common directory               *
           ************************************************************
-------------------------------------------------------------------------------
                                 ORCA SCF
-------------------------------------------------------------------------------

------------
SCF SETTINGS
------------
Hamiltonian:
 Density Functional     Method          .... DFT(GTOs)
 Exchange Functional    Exchange        .... PBE
   PBE kappa parameter   XKappa         ....  1.024500
   PBE mue parameter    XMuePBE         ....  0.123457
 Correlation Functional Correlation     .... PBE
   PBE beta parameter  CBetaPBE         ....  0.030000
 LDA part of GGA corr.  LDAOpt          .... PW91-LDA
 Gradients option       PostSCFGGA      .... off
 Hybrid DFT is turned on
   Fraction HF Exchange ScalHFX         ....  0.420000
   Scaling of DF-GGA-X  ScalDFX         ....  0.580000
   Scaling of DF-GGA-C  ScalDFC         ....  1.000000
   Scaling of DF-LDA-C  ScalLDAC        ....  1.000000
   Perturbative correction              ....  0.000000
   Density functional embedding theory  .... OFF
 RI-approximation to the Coulomb term is turned on
   Number of AuxJ basis functions       .... 431
   RIJ-ON(X) (HFX calculated with O(N)) .... on
   Number of AuxJ basis functions       .... 431
   RIJ-COSX (HFX calculated with COS-X)).... on


General Settings:
 Integral files         IntName         .... pbeh-3c
 Hartree-Fock type      HFTyp           .... RHF
 Total Charge           Charge          ....    0
 Multiplicity           Mult            ....    1
 Number of Electrons    NEL             ....   52
 Basis Dimension        Dim             ....  121
 Nuclear Repulsion      ENuc            ....    297.2010566993 Eh

Convergence Acceleration:
 DIIS                   CNVDIIS         .... on
   Start iteration      DIISMaxIt       ....    12
   Startup error        DIISStart       ....  0.200000
   # of expansion vecs  DIISMaxEq       ....     5
   Bias factor          DIISBfac        ....   1.050
   Max. coefficient     DIISMaxC        ....  10.000
 Trust-Rad. Augm. Hess. CNVTRAH         .... auto
   Auto Start mean grad. ratio tolernc. ....  1.125000
   Auto Start start iteration           ....    20
   Auto Start num. interpolation iter.  ....    10
   Max. Number of Micro iterations      ....    16
   Max. Number of Macro iterations      .... Maxiter - #DIIS iter
   Number of Davidson start vectors     ....     2
   Converg. threshold I  (grad. norm)   ....   1.000e-05
   Converg. threshold II (energy diff.) ....   1.000e-08
   Grad. Scal. Fac. for Micro threshold ....   0.100
   Minimum threshold for Micro iter.    ....   0.010
   NR start threshold (gradient norm)   ....   0.001
   Initial trust radius                 ....   0.400
   Minimum AH scaling param. (alpha)    ....   1.000
   Maximum AH scaling param. (alpha)    .... 1000.000
   Orbital update algorithm             .... Taylor
   White noise on init. David. guess    .... on
   Maximum white noise                  ....   0.010
   Quad. conv. algorithm                .... NR
   COSX micro iterations for RIJONX calc.... off
 SOSCF                  CNVSOSCF        .... on
   Start iteration      SOSCFMaxIt      ....   150
   Startup grad/error   SOSCFStart      ....  0.003300
 Level Shifting         CNVShift        .... on
   Level shift para.    LevelShift      ....    0.2500
   Turn off err/grad.   ShiftErr        ....    0.0010
 Zerner damping         CNVZerner       .... off
 Static damping         CNVDamp         .... on
   Fraction old density DampFac         ....    0.7000
   Max. Damping (<1)    DampMax         ....    0.9800
   Min. Damping (>=0)   DampMin         ....    0.0000
   Turn off err/grad.   DampErr         ....    0.1000
 Fernandez-Rico         CNVRico         .... off

SCF Procedure:
 Maximum # iterations   MaxIter         ....   125
 SCF integral mode      SCFMode         .... Direct
   Integral package                     .... SHARK and LIBINT hybrid scheme
 Reset frequency        DirectResetFreq ....    20
 Integral Threshold     Thresh          ....  2.500e-11 Eh
 Primitive CutOff       TCut            ....  2.500e-12 Eh

Convergence Tolerance:
 Convergence Check Mode ConvCheckMode   .... Total+1el-Energy
 Convergence forced     ConvForced      .... 0
 Energy Change          TolE            ....  1.000e-08 Eh
 1-El. energy change                    ....  1.000e-05 Eh
 Orbital Gradient       TolG            ....  1.000e-05
 Orbital Rotation angle TolX            ....  1.000e-05
 DIIS Error             TolErr          ....  5.000e-07


Diagonalization of the overlap matrix:
Smallest eigenvalue                        ... 1.407e-03
Time for diagonalization                   ...    0.002 sec
Threshold for overlap eigenvalues          ... 1.000e-08
Number of eigenvalues below threshold      ... 0
Time for construction of square roots      ...    0.004 sec
Total time needed                          ...    0.007 sec

--------------------------------
INITIAL GUESS: MINIMAL BASIS EHT
--------------------------------
The minimal basis has 43 functions
EHT matrix was diagonalized
Basis set overlap was calculated now projecting the orbitals
Using GuessMode=FMatrix for the initial guess
C*T matrix was formed
Effective Fockian was calculated
Effective Fockian was diagonalized
Initial density was built
                      ------------------
                      INITIAL GUESS DONE
                      ------------------
-------------------
DFT GRID GENERATION
-------------------

General Integration Accuracy     IntAcc      ... 4.959
Radial Grid Type                 RadialGrid  ... OptM3 with GC (2021)
Angular Grid (max. ang.)         AngularGrid ... 6 (Lebedev-590)
Angular grid pruning method      GridPruning ... 4 (adaptive)
Weight generation scheme         WeightScheme... Becke
Basis function cutoff            BFCut       ... 1.0000e-11
Integration weight cutoff        WCut        ... 1.0000e-14
Angular grids for H and He will be reduced by one unit
Partially contracted basis set               ... off
Rotationally invariant grid construction     ... off

Total number of grid points                  ...   170156
Total number of batches                      ...     2666
Average number of points per batch           ...       63
Average number of grid points per atom       ...    11344
Time for grid setup =    3.417 sec

--------------------
COSX GRID GENERATION
--------------------

GRIDX 1
-------
General Integration Accuracy     IntAcc      ... 4.020
Radial Grid Type                 RadialGrid  ... OptM3 with GC (2021)
Angular Grid (max. ang.)         AngularGrid ... 2 (Lebedev-110)
Angular grid pruning method      GridPruning ... 4 (adaptive)
Weight generation scheme         WeightScheme... Becke
Basis function cutoff            BFCut       ... 1.0000e-11
Integration weight cutoff        WCut        ... 1.0000e-14
Angular grids for H and He will be reduced by one unit
Partially contracted basis set               ... on
Rotationally invariant grid construction     ... off

Total number of grid points                  ...    18787
Total number of batches                      ...      300
Average number of points per batch           ...       62
Average number of grid points per atom       ...     1252
UseSFitting                                  ... on

GRIDX 2
-------
General Integration Accuracy     IntAcc      ... 4.338
Radial Grid Type                 RadialGrid  ... OptM3 with GC (2021)
Angular Grid (max. ang.)         AngularGrid ... 3 (Lebedev-194)
Angular grid pruning method      GridPruning ... 4 (adaptive)
Weight generation scheme         WeightScheme... Becke
Basis function cutoff            BFCut       ... 1.0000e-11
Integration weight cutoff        WCut        ... 1.0000e-14
Angular grids for H and He will be reduced by one unit
Partially contracted basis set               ... on
Rotationally invariant grid construction     ... off

Total number of grid points                  ...    41197
Total number of batches                      ...      653
Average number of points per batch           ...       63
Average number of grid points per atom       ...     2746
UseSFitting                                  ... on

GRIDX 3
-------
General Integration Accuracy     IntAcc      ... 4.871
Radial Grid Type                 RadialGrid  ... OptM3 with GC (2021)
Angular Grid (max. ang.)         AngularGrid ... 4 (Lebedev-302)
Angular grid pruning method      GridPruning ... 4 (adaptive)
Weight generation scheme         WeightScheme... Becke
Basis function cutoff            BFCut       ... 1.0000e-11
Integration weight cutoff        WCut        ... 1.0000e-14
Angular grids for H and He will be reduced by one unit
Partially contracted basis set               ... on
Rotationally invariant grid construction     ... off

Total number of grid points                  ...    79510
Total number of batches                      ...     1251
Average number of points per batch           ...       63
Average number of grid points per atom       ...     5301
UseSFitting                                  ... on

Time for X-Grid setup             =    2.695 sec

--------------
SCF ITERATIONS
--------------
ITER       Energy         Delta-E        Max-DP      RMS-DP      [F,P]     Damp
               ***  Starting incremental Fock matrix formation  ***
  0   -303.4046416758   0.000000000000 0.13454331  0.00455172  0.4010188 0.7000
  1   -303.6304706202  -0.225828944465 0.09157109  0.00324585  0.2859413 0.7000
  2   -303.7821518843  -0.151681264040 0.05706482  0.00223708  0.2027317 0.7000
                               ***Turning on DIIS***
  3   -303.8880072607  -0.105855376390 0.03643619  0.00156825  0.1441429 0.7000
  4   -303.9631076754  -0.075100414698 0.02818537  0.00117895  0.1020661 0.7000
  5   -304.0163773177  -0.053269642306 0.06785604  0.00292829  0.0714266 0.0000
                      *** Initiating the SOSCF procedure ***
                           *** Shutting down DIIS ***
                      *** Re-Reading the Fockian *** 
                      *** Removing any level shift *** 
ITER      Energy       Delta-E        Grad      Rot      Max-DP    RMS-DP
  6   -304.14340465  -0.1270273306  0.002401  0.002401  0.008588  0.000179
               *** Restarting incremental Fock matrix formation ***
  7   -304.14348927  -0.0000846267  0.000980  0.002729  0.003555  0.000109
  8   -304.14350359  -0.0000143132  0.000780  0.000973  0.002584  0.000065
  9   -304.14351082  -0.0000072310  0.000123  0.000213  0.000627  0.000016
 10   -304.14351108  -0.0000002641  0.000044  0.000038  0.000091  0.000004
 11   -304.14351112  -0.0000000334  0.000015  0.000030  0.000072  0.000002
 12   -304.14351112  -0.0000000083  0.000003  0.000005  0.000006  0.000000
                  ***Gradient check signals convergence***
              ***Rediagonalizing the Fockian in SOSCF/NRSCF***

               *****************************************************
               *                     SUCCESS                       *
               *           SCF CONVERGED AFTER  13 CYCLES          *
               *****************************************************

Old exchange energy                            =    -17.635064045 Eh
New exchange energy                            =    -17.635071415 Eh
Exchange energy change after final integration =     -0.000007369 Eh
Total energy after final integration           =   -304.143518497 Eh
Final COS-X integration done in                =     3.454 sec

----------------
TOTAL SCF ENERGY
----------------

Total Energy       :         -304.14351850 Eh           -8276.16589 eV

Components:
Nuclear Repulsion  :          297.20105670 Eh            8087.25190 eV
Electronic Energy  :         -601.34457520 Eh          -16363.41779 eV
One Electron Energy:         -998.99153626 Eh          -27183.94171 eV
Two Electron Energy:          397.64696106 Eh           10820.52392 eV
Max COSX asymmetry :            0.00000067 Eh               0.00002 eV

Virial components:
Potential Energy   :         -606.05149289 Eh          -16491.49953 eV
Kinetic Energy     :          301.90797439 Eh            8215.33364 eV
Virial Ratio       :            2.00740472


DFT components:
N(Alpha)           :       26.000000087626 electrons
N(Beta)            :       26.000000087626 electrons
N(Total)           :       52.000000175252 electrons
E(X)               :      -23.429853504031 Eh       
E(C)               :       -2.259996526778 Eh       
E(XC)              :      -25.689850030809 Eh       
DFET-embed. en.    :        0.000000000000 Eh       

---------------
SCF CONVERGENCE
---------------

  Last Energy change         ...   -3.1206e-09  Tolerance :   1.0000e-08
  Last MAX-Density change    ...    7.7716e-16  Tolerance :   1.0000e-07
  Last RMS-Density change    ...    3.2703e-17  Tolerance :   5.0000e-09
  Last Orbital Gradient      ...    1.0074e-06  Tolerance :   1.0000e-05
  Last Orbital Rotation      ...    9.4111e-07  Tolerance :   1.0000e-05

             **** THE GBW FILE WAS UPDATED (pbeh-3c.gbw) ****
             **** DENSITY pbeh-3c.scfp WAS UPDATED ****
             **** ENERGY FILE WAS UPDATED (pbeh-3c.en.tmp) ****
             **** THE GBW FILE WAS UPDATED (pbeh-3c.gbw) ****
             **** DENSITY pbeh-3c.scfp WAS UPDATED ****
----------------
ORBITAL ENERGIES
----------------

  NO   OCC          E(Eh)            E(eV) 
   0   2.0000     -14.677057      -399.3830 
   1   2.0000     -14.676995      -399.3813 
   2   2.0000     -10.464973      -284.7664 
   3   2.0000     -10.464961      -284.7661 
   4   2.0000     -10.464511      -284.7538 
   5   2.0000     -10.463671      -284.7310 
   6   2.0000     -10.434761      -283.9443 
   7   2.0000      -1.129609       -30.7382 
   8   2.0000      -1.011246       -27.5174 
   9   2.0000      -0.861700       -23.4481 
  10   2.0000      -0.808176       -21.9916 
  11   2.0000      -0.763528       -20.7766 
  12   2.0000      -0.667036       -18.1510 
  13   2.0000      -0.636524       -17.3207 
  14   2.0000      -0.587999       -16.0003 
  15   2.0000      -0.533762       -14.5244 
  16   2.0000      -0.514371       -13.9967 
  17   2.0000      -0.500196       -13.6110 
  18   2.0000      -0.491178       -13.3656 
  19   2.0000      -0.488592       -13.2953 
  20   2.0000      -0.443322       -12.0634 
  21   2.0000      -0.432638       -11.7727 
  22   2.0000      -0.429664       -11.6917 
  23   2.0000      -0.314912        -8.5692 
  24   2.0000      -0.263559        -7.1718 
  25   2.0000      -0.248045        -6.7497 
  26   0.0000       0.067179         1.8280 
  27   0.0000       0.094664         2.5759 
  28   0.0000       0.158212         4.3052 
  29   0.0000       0.159878         4.3505 
  30   0.0000       0.176720         4.8088 
  31   0.0000       0.198554         5.4029 
  32   0.0000       0.208362         5.6698 
  33   0.0000       0.212323         5.7776 
  34   0.0000       0.215012         5.8508 
  35   0.0000       0.221472         6.0266 
  36   0.0000       0.231240         6.2924 
  37   0.0000       0.239851         6.5267 
  38   0.0000       0.263783         7.1779 
  39   0.0000       0.319569         8.6959 
  40   0.0000       0.374533        10.1916 
  41   0.0000       0.385130        10.4799 
  42   0.0000       0.462764        12.5924 
  43   0.0000       0.489084        13.3087 
  44   0.0000       0.505987        13.7686 
  45   0.0000       0.510918        13.9028 
  46   0.0000       0.526852        14.3364 
  47   0.0000       0.557753        15.1772 
  48   0.0000       0.561951        15.2915 
  49   0.0000       0.601282        16.3617 
  50   0.0000       0.623098        16.9554 
  51   0.0000       0.640166        17.4198 
  52   0.0000       0.642874        17.4935 
  53   0.0000       0.683978        18.6120 
  54   0.0000       0.693229        18.8637 
  55   0.0000       0.713779        19.4229 
  56   0.0000       0.741318        20.1723 
  57   0.0000       0.796626        21.6773 
  58   0.0000       0.816520        22.2186 
  59   0.0000       0.914031        24.8720 
  60   0.0000       0.922833        25.1116 
  61   0.0000       0.935127        25.4461 
  62   0.0000       0.978133        26.6164 
  63   0.0000       1.009664        27.4743 
  64   0.0000       1.014652        27.6101 
  65   0.0000       1.021390        27.7934 
  66   0.0000       1.022204        27.8156 
  67   0.0000       1.041622        28.3440 
  68   0.0000       1.053620        28.6705 
  69   0.0000       1.056564        28.7506 
  70   0.0000       1.109800        30.1992 
  71   0.0000       1.109900        30.2019 
  72   0.0000       1.220086        33.2002 
  73   0.0000       1.239314        33.7235 
  74   0.0000       1.277235        34.7553 
  75   0.0000       1.303090        35.4589 
  76   0.0000       1.372624        37.3510 
  77   0.0000       1.420221        38.6462 
  78   0.0000       1.427236        38.8371 
  79   0.0000       1.507781        41.0288 
  80   0.0000       1.585586        43.1460 
  81   0.0000       1.621224        44.1157 
  82   0.0000       1.639638        44.6168 
  83   0.0000       1.702954        46.3397 
  84   0.0000       1.851298        50.3764 
  85   0.0000       1.946751        52.9738 
  86   0.0000       1.988796        54.1179 
  87   0.0000       1.994488        54.2728 
  88   0.0000       2.015373        54.8411 
  89   0.0000       2.037488        55.4429 
  90   0.0000       2.094242        56.9872 
  91   0.0000       2.105899        57.3044 
  92   0.0000       2.120488        57.7014 
  93   0.0000       2.182060        59.3769 
  94   0.0000       2.216165        60.3049 
  95   0.0000       2.257978        61.4427 
  96   0.0000       2.259319        61.4792 
  97   0.0000       2.279568        62.0302 
  98   0.0000       2.321002        63.1577 
  99   0.0000       2.325765        63.2873 
 100   0.0000       2.364687        64.3464 
 101   0.0000       2.410967        65.6058 
 102   0.0000       2.437452        66.3264 
 103   0.0000       2.533577        68.9421 
 104   0.0000       2.552219        69.4494 
 105   0.0000       2.588783        70.4444 
 106   0.0000       2.648336        72.0649 
 107   0.0000       2.693128        73.2837 
 108   0.0000       2.813630        76.5628 
 109   0.0000       2.891220        78.6741 
 110   0.0000       2.902478        78.9804 
 111   0.0000       3.087461        84.0141 
 112   0.0000       3.174860        86.3923 
 113   0.0000       3.260886        88.7332 
 114   0.0000      13.486364       366.9826 
 115   0.0000      13.714540       373.1916 
 116   0.0000      13.768093       374.6488 
 117   0.0000      13.854815       377.0087 
 118   0.0000      14.126110       384.3910 
 119   0.0000      19.273722       524.4646 
 120   0.0000      19.449484       529.2474 

                    ********************************
                    * MULLIKEN POPULATION ANALYSIS *
                    ********************************

-----------------------
MULLIKEN ATOMIC CHARGES
-----------------------
   0 C :    0.072091
   1 C :   -0.086824
   2 C :   -0.086824
   3 N :   -0.399836
   4 N :   -0.399836
   5 H :    0.241062
   6 H :    0.241062
   7 C :   -0.491790
   8 C :   -0.491790
   9 H :    0.220074
  10 H :    0.220074
  11 H :    0.261195
  12 H :    0.220074
  13 H :    0.220074
  14 H :    0.261195
Sum of atomic charges:    0.0000000

--------------------------------
MULLIKEN REDUCED ORBITAL CHARGES
--------------------------------
  0 C s       :     3.435144  s :     3.435144
      pz      :     1.165239  p :     2.420014
      px      :     0.641247
      py      :     0.613528
      dz2     :     0.008689  d :     0.072751
      dxz     :     0.010066
      dyz     :     0.034143
      dx2y2   :     0.007976
      dxy     :     0.011878
  1 C s       :     3.151644  s :     3.151644
      pz      :     0.827200  p :     2.880530
      px      :     1.085427
      py      :     0.967903
      dz2     :     0.016446  d :     0.054650
      dxz     :     0.007972
      dyz     :     0.016592
      dx2y2   :     0.005735
      dxy     :     0.007904
  2 C s       :     3.151644  s :     3.151644
      pz      :     0.827200  p :     2.880530
      px      :     1.085427
      py      :     0.967903
      dz2     :     0.016446  d :     0.054650
      dxz     :     0.007972
      dyz     :     0.016592
      dx2y2   :     0.005735
      dxy     :     0.007904
  3 N s       :     3.509134  s :     3.509134
      pz      :     1.145982  p :     3.838726
      px      :     1.531552
      py      :     1.161192
      dz2     :     0.014305  d :     0.051976
      dxz     :     0.008657
      dyz     :     0.014276
      dx2y2   :     0.007994
      dxy     :     0.006744
  4 N s       :     3.509134  s :     3.509134
      pz      :     1.145982  p :     3.838726
      px      :     1.531552
      py      :     1.161192
      dz2     :     0.014305  d :     0.051976
      dxz     :     0.008657
      dyz     :     0.014276
      dx2y2   :     0.007994
      dxy     :     0.006744
  5 H s       :     0.758938  s :     0.758938
  6 H s       :     0.758938  s :     0.758938
  7 C s       :     3.339435  s :     3.339435
      pz      :     1.151526  p :     3.101543
      px      :     1.122214
      py      :     0.827804
      dz2     :     0.012558  d :     0.050812
      dxz     :     0.003735
      dyz     :     0.007574
      dx2y2   :     0.010937
      dxy     :     0.016007
  8 C s       :     3.339435  s :     3.339435
      pz      :     1.151526  p :     3.101543
      px      :     1.122214
      py      :     0.827804
      dz2     :     0.012558  d :     0.050812
      dxz     :     0.003735
      dyz     :     0.007574
      dx2y2   :     0.010937
      dxy     :     0.016007
  9 H s       :     0.779926  s :     0.779926
 10 H s       :     0.779926  s :     0.779926
 11 H s       :     0.738805  s :     0.738805
 12 H s       :     0.779926  s :     0.779926
 13 H s       :     0.779926  s :     0.779926
 14 H s       :     0.738805  s :     0.738805


                     *******************************
                     * LOEWDIN POPULATION ANALYSIS *
                     *******************************

----------------------
LOEWDIN ATOMIC CHARGES
----------------------
   0 C :   -0.221719
   1 C :   -0.132345
   2 C :   -0.132345
   3 N :   -0.049650
   4 N :   -0.049650
   5 H :    0.139496
   6 H :    0.139496
   7 C :   -0.244532
   8 C :   -0.244532
   9 H :    0.123313
  10 H :    0.123313
  11 H :    0.151266
  12 H :    0.123313
  13 H :    0.123313
  14 H :    0.151266

-------------------------------
LOEWDIN REDUCED ORBITAL CHARGES
-------------------------------
  0 C s       :     3.167827  s :     3.167827
      pz      :     1.385702  p :     2.903246
      px      :     0.703064
      py      :     0.814481
      dz2     :     0.014770  d :     0.150646
      dxz     :     0.014324
      dyz     :     0.071661
      dx2y2   :     0.023109
      dxy     :     0.026783
  1 C s       :     2.888249  s :     2.888249
      pz      :     0.965049  p :     3.121390
      px      :     1.079771
      py      :     1.076569
      dz2     :     0.039513  d :     0.122706
      dxz     :     0.016110
      dyz     :     0.037698
      dx2y2   :     0.013664
      dxy     :     0.015722
  2 C s       :     2.888249  s :     2.888249
      pz      :     0.965049  p :     3.121390
      px      :     1.079771
      py      :     1.076569
      dz2     :     0.039513  d :     0.122706
      dxz     :     0.016110
      dyz     :     0.037698
      dx2y2   :     0.013664
      dxy     :     0.015722
  3 N s       :     3.051313  s :     3.051313
      pz      :     1.207201  p :     3.870821
      px      :     1.459215
      py      :     1.204404
      dz2     :     0.038859  d :     0.127517
      dxz     :     0.018698
      dyz     :     0.039997
      dx2y2   :     0.017249
      dxy     :     0.012714
  4 N s       :     3.051313  s :     3.051313
      pz      :     1.207201  p :     3.870821
      px      :     1.459215
      py      :     1.204404
      dz2     :     0.038859  d :     0.127517
      dxz     :     0.018698
      dyz     :     0.039997
      dx2y2   :     0.017249
      dxy     :     0.012714
  5 H s       :     0.860504  s :     0.860504
  6 H s       :     0.860504  s :     0.860504
  7 C s       :     2.937632  s :     2.937632
      pz      :     1.136894  p :     3.209581
      px      :     1.134120
      py      :     0.938567
      dz2     :     0.022649  d :     0.097319
      dxz     :     0.005503
      dyz     :     0.015807
      dx2y2   :     0.021695
      dxy     :     0.031665
  8 C s       :     2.937632  s :     2.937632
      pz      :     1.136894  p :     3.209581
      px      :     1.134120
      py      :     0.938567
      dz2     :     0.022649  d :     0.097319
      dxz     :     0.005503
      dyz     :     0.015807
      dx2y2   :     0.021695
      dxy     :     0.031665
  9 H s       :     0.876687  s :     0.876687
 10 H s       :     0.876687  s :     0.876687
 11 H s       :     0.848734  s :     0.848734
 12 H s       :     0.876687  s :     0.876687
 13 H s       :     0.876687  s :     0.876687
 14 H s       :     0.848734  s :     0.848734


                      *****************************
                      * MAYER POPULATION ANALYSIS *
                      *****************************

  NA   - Mulliken gross atomic population
  ZA   - Total nuclear charge
  QA   - Mulliken gross atomic charge
  VA   - Mayer's total valence
  BVA  - Mayer's bonded valence
  FA   - Mayer's free valence

  ATOM       NA         ZA         QA         VA         BVA        FA
  0 C      5.9279     6.0000     0.0721     2.6630     2.6630     0.0000
  1 C      6.0868     6.0000    -0.0868     3.7683     3.7683    -0.0000
  2 C      6.0868     6.0000    -0.0868     3.7683     3.7683     0.0000
  3 N      7.3998     7.0000    -0.3998     3.3628     3.3628     0.0000
  4 N      7.3998     7.0000    -0.3998     3.3628     3.3628    -0.0000
  5 H      0.7589     1.0000     0.2411     0.9047     0.9047     0.0000
  6 H      0.7589     1.0000     0.2411     0.9047     0.9047     0.0000
  7 C      6.4918     6.0000    -0.4918     3.6851     3.6851    -0.0000
  8 C      6.4918     6.0000    -0.4918     3.6851     3.6851    -0.0000
  9 H      0.7799     1.0000     0.2201     0.9066     0.9066    -0.0000
 10 H      0.7799     1.0000     0.2201     0.9066     0.9066     0.0000
 11 H      0.7388     1.0000     0.2612     0.9114     0.9114    -0.0000
 12 H      0.7799     1.0000     0.2201     0.9066     0.9066     0.0000
 13 H      0.7799     1.0000     0.2201     0.9066     0.9066    -0.0000
 14 H      0.7388     1.0000     0.2612     0.9114     0.9114     0.0000

  Mayer bond orders larger than 0.100000
B(  0-C ,  3-N ) :   1.2585 B(  0-C ,  4-N ) :   1.2585 B(  1-C ,  2-C ) :   1.6942 
B(  1-C ,  4-N ) :   1.0898 B(  1-C ,  5-H ) :   0.9047 B(  2-C ,  3-N ) :   1.0898 
B(  2-C ,  6-H ) :   0.9047 B(  3-N ,  7-C ) :   0.9481 B(  4-N ,  8-C ) :   0.9481 
B(  7-C ,  9-H ) :   0.9170 B(  7-C , 10-H ) :   0.9170 B(  7-C , 11-H ) :   0.9117 
B(  8-C , 12-H ) :   0.9170 B(  8-C , 13-H ) :   0.9170 B(  8-C , 14-H ) :   0.9117 


-------
TIMINGS
-------

Total SCF time: 0 days 0 hours 0 min 56 sec 

Total time                  ....      56.288 sec
Sum of individual times     ....      53.973 sec  ( 95.9%)

Fock matrix formation       ....      44.658 sec  ( 79.3%)
  Split-RI-J                ....       4.003 sec  (  9.0% of F)
  Chain of spheres X        ....      21.493 sec  ( 48.1% of F)
  XC integration            ....      11.858 sec  ( 26.6% of F)
    Basis function eval.    ....       2.771 sec  ( 23.4% of XC)
    Density eval.           ....       1.671 sec  ( 14.1% of XC)
    XC-Functional eval.     ....       1.173 sec  (  9.9% of XC)
    XC-Potential eval.      ....       1.056 sec  (  8.9% of XC)
Diagonalization             ....       0.823 sec  (  1.5%)
Density matrix formation    ....       0.102 sec  (  0.2%)
Population analysis         ....       0.479 sec  (  0.9%)
Initial guess               ....       0.010 sec  (  0.0%)
Orbital Transformation      ....       0.000 sec  (  0.0%)
Orbital Orthonormalization  ....       0.000 sec  (  0.0%)
DIIS solution               ....       1.130 sec  (  2.0%)
SOSCF solution              ....       0.660 sec  (  1.2%)
Grid generation             ....       6.111 sec  ( 10.9%)

Maximum memory used throughout the entire SCF-calculation: 53.4 MB


-------------------------------------------------------------------------------
                          DFT DISPERSION CORRECTION                            
                                                                               
                              DFTD3 V3.1  Rev 1                                
                          USING Becke-Johnson damping                          
-------------------------------------------------------------------------------
The PBEh-3c composite method is recognized
Using three-body term ABC
Active option DFTDOPT                   ...         4   

molecular C6(AA) [au] = 2075.383787 


            DFT-D V3
 parameters
 s6 scaling factor         :     1.0000 
 a1 scaling factor         :     0.4860 
 s8 scaling factor         :     0.0000 
 a2 scaling factor         :     4.5000 
 Damping factor alpha9(ATM):    16.0000 
 ad hoc parameters k1-k3   :    16.0000     1.3333    -4.0000 

 Edisp/kcal,au: -4.415143989360  -0.007035979058 
 E6   /kcal   :  -4.417317437 
 E8   /kcal   :  -0.000000000 
 E6(ABC)      :   0.002173448 
 % E8         :   0.000000000 
 % E6(ABC)    :  -0.049227109 

-------------------------   ----------------
Dispersion correction           -0.007035979
-------------------------   ----------------

------------------   -----------------
gCP correction             0.024818532
------------------   -----------------

-------------------------   --------------------
FINAL SINGLE POINT ENERGY      -304.125735944857
-------------------------   --------------------


                            ***************************************
                            *     ORCA property calculations      *
                            ***************************************

                                    ---------------------
                                    Active property flags
                                    ---------------------
   (+) Dipole Moment


------------------------------------------------------------------------------
                       ORCA ELECTRIC PROPERTIES CALCULATION
------------------------------------------------------------------------------

Dipole Moment Calculation                       ... on
Quadrupole Moment Calculation                   ... off
Polarizability Calculation                      ... off
GBWName                                         ... pbeh-3c.gbw
Electron density                                ... pbeh-3c.scfp
The origin for moment calculation is the CENTER OF MASS  = ( 0.000000,  0.000000  0.013876)

-------------
DIPOLE MOMENT
-------------
                                X             Y             Z
Electronic contribution:     -0.00000       0.00000       1.07913
Nuclear contribution   :      0.00000      -0.00000      -0.15517
                        -----------------------------------------
Total Dipole Moment    :     -0.00000       0.00000       0.92397
                        -----------------------------------------
Magnitude (a.u.)       :      0.92397
Magnitude (Debye)      :      2.34853



--------------------
Rotational spectrum 
--------------------
 
Rotational constants in cm-1:     0.235675     0.071227     0.055846 
Rotational constants in MHz :  7065.371983  2135.323749  1674.214687 

 Dipole components along the rotational axes: 
x,y,z [a.u.] :     0.000000     0.923966    -0.000000 
x,y,z [Debye]:     0.000000     2.348534    -0.000000 

 

Timings for individual modules:

Sum of individual times         ...       58.747 sec (=   0.979 min)
GTO integral calculation        ...        1.950 sec (=   0.032 min)   3.3 %
SCF iterations                  ...       56.798 sec (=   0.947 min)  96.7 %
                             ****ORCA TERMINATED NORMALLY****
TOTAL RUN TIME: 0 days 0 hours 0 minutes 59 seconds 890 msec
