
                                 *****************
                                 * O   R   C   A *
                                 *****************

                                            #,                                       
                                            ###                                      
                                            ####                                     
                                            #####                                    
                                            ######                                   
                                           ########,                                 
                                     ,,################,,,,,                         
                               ,,#################################,,                 
                          ,,##########################################,,             
                       ,#########################################, ''#####,          
                    ,#############################################,,   '####,        
                  ,##################################################,,,,####,       
                ,###########''''           ''''###############################       
              ,#####''   ,,,,##########,,,,          '''####'''          '####       
            ,##' ,,,,###########################,,,                        '##       
           ' ,,###''''                  '''############,,,                           
         ,,##''                                '''############,,,,        ,,,,,,###''
      ,#''                                            '''#######################'''  
     '                                                          ''''####''''         
             ,#######,   #######,   ,#######,      ##                                
            ,#'     '#,  ##    ##  ,#'     '#,    #''#        ######   ,####,        
            ##       ##  ##   ,#'  ##            #'  '#       #        #'  '#        
            ##       ##  #######   ##           ,######,      #####,   #    #        
            '#,     ,#'  ##    ##  '#,     ,#' ,#      #,         ##   #,  ,#        
             '#######'   ##     ##  '#######'  #'      '#     #####' # '####'        



                  #######################################################
                  #                        -***-                        #
                  #          Department of theory and spectroscopy      #
                  #    Directorship and core code : Frank Neese         #
                  #        Max Planck Institute fuer Kohlenforschung    #
                  #                Kaiser Wilhelm Platz 1               #
                  #                 D-45470 Muelheim/Ruhr               #
                  #                      Germany                        #
                  #                                                     #
                  #                  All rights reserved                #
                  #                        -***-                        #
                  #######################################################


                         Program Version 5.0.3 -  RELEASE  -


 With contributions from (in alphabetic order):
   Daniel Aravena         : Magnetic Suceptibility
   Michael Atanasov       : Ab Initio Ligand Field Theory (pilot matlab implementation)
   Alexander A. Auer      : GIAO ZORA, VPT2 properties, NMR spectrum
   Ute Becker             : Parallelization
   Giovanni Bistoni       : ED, misc. LED, open-shell LED, HFLD
   Martin Brehm           : Molecular dynamics
   Dmytro Bykov           : SCF Hessian
   Vijay G. Chilkuri      : MRCI spin determinant printing, contributions to CSF-ICE
   Dipayan Datta          : RHF DLPNO-CCSD density
   Achintya Kumar Dutta   : EOM-CC, STEOM-CC
   Dmitry Ganyushin       : Spin-Orbit,Spin-Spin,Magnetic field MRCI
   Miquel Garcia          : C-PCM and meta-GGA Hessian, CC/C-PCM, Gaussian charge scheme
   Yang Guo               : DLPNO-NEVPT2, F12-NEVPT2, CIM, IAO-localization
   Andreas Hansen         : Spin unrestricted coupled pair/coupled cluster methods
   Benjamin Helmich-Paris : MC-RPA, TRAH-SCF, COSX integrals
   Lee Huntington         : MR-EOM, pCC
   Robert Izsak           : Overlap fitted RIJCOSX, COSX-SCS-MP3, EOM
   Marcus Kettner         : VPT2
   Christian Kollmar      : KDIIS, OOCD, Brueckner-CCSD(T), CCSD density, CASPT2, CASPT2-K
   Simone Kossmann        : Meta GGA functionals, TD-DFT gradient, OOMP2, MP2 Hessian
   Martin Krupicka        : Initial AUTO-CI
   Lucas Lang             : DCDCAS
   Marvin Lechner         : AUTO-CI (C++ implementation), FIC-MRCC
   Dagmar Lenk            : GEPOL surface, SMD
   Dimitrios Liakos       : Extrapolation schemes; Compound Job, initial MDCI parallelization
   Dimitrios Manganas     : Further ROCIS development; embedding schemes
   Dimitrios Pantazis     : SARC Basis sets
   Anastasios Papadopoulos: AUTO-CI, single reference methods and gradients
   Taras Petrenko         : DFT Hessian,TD-DFT gradient, ASA, ECA, R-Raman, ABS, FL, XAS/XES, NRVS
   Peter Pinski           : DLPNO-MP2, DLPNO-MP2 Gradient
   Christoph Reimann      : Effective Core Potentials
   Marius Retegan         : Local ZFS, SOC
   Christoph Riplinger    : Optimizer, TS searches, QM/MM, DLPNO-CCSD(T), (RO)-DLPNO pert. Triples
   Tobias Risthaus        : Range-separated hybrids, TD-DFT gradient, RPA, STAB
   Michael Roemelt        : Original ROCIS implementation
   Masaaki Saitow         : Open-shell DLPNO-CCSD energy and density
   Barbara Sandhoefer     : DKH picture change effects
   Avijit Sen             : IP-ROCIS
   Kantharuban Sivalingam : CASSCF convergence, NEVPT2, FIC-MRCI
   Bernardo de Souza      : ESD, SOC TD-DFT
   Georgi Stoychev        : AutoAux, RI-MP2 NMR, DLPNO-MP2 response
   Willem Van den Heuvel  : Paramagnetic NMR
   Boris Wezisla          : Elementary symmetry handling
   Frank Wennmohs         : Technical directorship


 We gratefully acknowledge several colleagues who have allowed us to
 interface, adapt or use parts of their codes:
   Stefan Grimme, W. Hujo, H. Kruse, P. Pracht,  : VdW corrections, initial TS optimization,
                  C. Bannwarth, S. Ehlert          DFT functionals, gCP, sTDA/sTD-DF
   Ed Valeev, F. Pavosevic, A. Kumar             : LibInt (2-el integral package), F12 methods
   Garnet Chan, S. Sharma, J. Yang, R. Olivares  : DMRG
   Ulf Ekstrom                                   : XCFun DFT Library
   Mihaly Kallay                                 : mrcc  (arbitrary order and MRCC methods)
   Jiri Pittner, Ondrej Demel                    : Mk-CCSD
   Frank Weinhold                                : gennbo (NPA and NBO analysis)
   Christopher J. Cramer and Donald G. Truhlar   : smd solvation model
   Lars Goerigk                                  : TD-DFT with DH, B97 family of functionals
   V. Asgeirsson, H. Jonsson                     : NEB implementation
   FAccTs GmbH                                   : IRC, NEB, NEB-TS, DLPNO-Multilevel, CI-OPT
                                                   MM, QMMM, 2- and 3-layer-ONIOM, Crystal-QMMM,
                                                   LR-CPCM, SF, NACMEs, symmetry and pop. for TD-DFT,
                                                   nearIR, NL-DFT gradient (VV10), updates on ESD,
                                                   ML-optimized integration grids
   S Lehtola, MJT Oliveira, MAL Marques          : LibXC Library
   Liviu Ungur et al                             : ANISO software


 Your calculation uses the libint2 library for the computation of 2-el integrals
 For citations please refer to: http://libint.valeyev.net

 Your ORCA version has been built with support for libXC version: 5.1.0
 For citations please refer to: https://tddft.org/programs/libxc/

 This ORCA versions uses:
   CBLAS   interface :  Fast vector & matrix operations
   LAPACKE interface :  Fast linear algebra routines
   SCALAPACK package :  Parallel linear algebra routines
   Shared memory     :  Shared parallel matrices
   BLAS/LAPACK       :  OpenBLAS 0.3.15  USE64BITINT DYNAMIC_ARCH NO_AFFINITY Haswell SINGLE_THREADED
        Core in use  :  Haswell
   Copyright (c) 2011-2014, The OpenBLAS Project




***************************************
The coordinates will be read from file: SI6H12_1.xyz
***************************************


Your calculation utilizes the geometrical counterpoise correction gCP
Please cite in your paper:
H.Kruse, S. Grimme J.Chem.Phys., 136, (2012), 154101 
   

Your calculation utilizes the atom-pairwise dispersion correction
with the Becke-Johnson damping scheme (D3BJ)
Cite in your paper:
S.Grimme, S.Ehrlich, L.Goerigk, J Comput Chem, (2011), 32, 1456–1465 
S.Grimme, J.Antony, S.Ehrlich and H.Krieg, J.Chem.Phys., 132, (2010), 154104 
   

Your calculation employs the composite approach PBEh-3c.
Please cite in your paper:
S. Grimme, J. G. Brandenburg, C. Bannwarth, A. Hansen J.Chem.Phys., 143, (2015), 054107 
   

================================================================================

----- Orbital basis set information -----
Your calculation utilizes the basis: def2-mSVP

----- AuxJ basis set information -----
Your calculation utilizes the auxiliary basis: def2/J
   F. Weigend, Phys. Chem. Chem. Phys. 8, 1057 (2006).

================================================================================
                                        WARNINGS
                       Please study these warnings very carefully!
================================================================================


INFO   : the flag for use of the SHARK integral package has been found!

================================================================================
                                       INPUT FILE
================================================================================
NAME = pbeh-3c.inp
|  1> ! PBEh-3c def2/J TightSCF DefGrid3
|  2> 
|  3> %maxcore 60000
|  4> 
|  5> %pal
|  6> nprocs 4
|  7> end
|  8> 
|  9> *xyzfile 0 1 SI6H12_1.xyz
| 10> 
| 11>                          ****END OF INPUT****
================================================================================

                       ****************************
                       * Single Point Calculation *
                       ****************************

---------------------------------
CARTESIAN COORDINATES (ANGSTROEM)
---------------------------------
  Si     1.918739   -1.107784    0.387796
  Si     1.918739    1.107784   -0.387796
  Si    -0.000000    2.215569    0.387796
  Si    -1.918739    1.107784   -0.387796
  Si    -1.918739   -1.107784    0.387796
  Si    -0.000000   -2.215569   -0.387796
  H      1.898268   -1.095965    1.875961
  H      3.151459   -1.819496   -0.047843
  H      3.151459    1.819496    0.047843
  H      1.898268    1.095965   -1.875961
  H     -0.000000    3.638991   -0.047843
  H     -0.000000    2.191931    1.875961
  H     -3.151459    1.819496    0.047843
  H     -1.898268    1.095965   -1.875961
  H     -3.151459   -1.819496   -0.047843
  H     -1.898268   -1.095965    1.875961
  H     -0.000000   -2.191931   -1.875961
  H     -0.000000   -3.638991    0.047843

----------------------------
CARTESIAN COORDINATES (A.U.)
----------------------------
  NO LB      ZA    FRAG     MASS         X           Y           Z
   0 Si   14.0000    0    28.086    3.625891   -2.093409    0.732828
   1 Si   14.0000    0    28.086    3.625891    2.093409   -0.732828
   2 Si   14.0000    0    28.086   -0.000000    4.186818    0.732828
   3 Si   14.0000    0    28.086   -3.625891    2.093409   -0.732828
   4 Si   14.0000    0    28.086   -3.625891   -2.093409    0.732828
   5 Si   14.0000    0    28.086   -0.000000   -4.186818   -0.732828
   6 H     1.0000    0     1.008    3.587206   -2.071074    3.545052
   7 H     1.0000    0     1.008    5.955394   -3.438348   -0.090411
   8 H     1.0000    0     1.008    5.955394    3.438348    0.090411
   9 H     1.0000    0     1.008    3.587206    2.071074   -3.545052
  10 H     1.0000    0     1.008   -0.000000    6.876697   -0.090411
  11 H     1.0000    0     1.008   -0.000000    4.142149    3.545052
  12 H     1.0000    0     1.008   -5.955394    3.438348    0.090411
  13 H     1.0000    0     1.008   -3.587206    2.071074   -3.545052
  14 H     1.0000    0     1.008   -5.955394   -3.438348   -0.090411
  15 H     1.0000    0     1.008   -3.587206   -2.071074    3.545052
  16 H     1.0000    0     1.008   -0.000000   -4.142149   -3.545052
  17 H     1.0000    0     1.008   -0.000000   -6.876697    0.090411

--------------------------------
INTERNAL COORDINATES (ANGSTROEM)
--------------------------------
 Si     0   0   0     0.000000000000     0.00000000     0.00000000
 Si     1   0   0     2.347400276476     0.00000000     0.00000000
 Si     2   1   0     2.347400223646   109.64851568     0.00000000
 Si     3   2   1     2.347400223646   109.64851340   300.43691548
 Si     4   3   2     2.347400276476   109.64851568    59.56308452
 Si     1   2   3     2.347400223646   109.64851568    59.56308591
 H      1   2   3     1.488352621744   108.83645256   300.61422332
 H      1   2   3     1.488594313542   110.76680108   182.11311464
 H      2   1   3     1.488594313542   110.76680108   122.55002874
 H      2   1   3     1.488352621744   108.83645256   241.05113741
 H      3   2   1     1.488594183732   110.76680152   177.88688804
 H      3   2   1     1.488352622655   108.83645491    59.38577309
 H      4   3   2     1.488594313542   110.76680156   182.11311297
 H      4   3   2     1.488352621744   108.83645906   300.61422594
 H      5   4   3     1.488594313542   110.76680108   177.88688536
 H      5   4   3     1.488352621744   108.83645256    59.38577668
 H      6   1   2     1.488352622655   108.83645491    59.38577309
 H      6   1   2     1.488594183732   110.76680152   177.88688804

---------------------------
INTERNAL COORDINATES (A.U.)
---------------------------
 Si     0   0   0     0.000000000000     0.00000000     0.00000000
 Si     1   0   0     4.435943649230     0.00000000     0.00000000
 Si     2   1   0     4.435943549396   109.64851568     0.00000000
 Si     3   2   1     4.435943549396   109.64851340   300.43691548
 Si     4   3   2     4.435943649230   109.64851568    59.56308452
 Si     1   2   3     4.435943549396   109.64851568    59.56308591
 H      1   2   3     2.812578845800   108.83645256   300.61422332
 H      1   2   3     2.813035577107   110.76680108   182.11311464
 H      2   1   3     2.813035577107   110.76680108   122.55002874
 H      2   1   3     2.812578845800   108.83645256   241.05113741
 H      3   2   1     2.813035331802   110.76680152   177.88688804
 H      3   2   1     2.812578847521   108.83645491    59.38577309
 H      4   3   2     2.813035577107   110.76680156   182.11311297
 H      4   3   2     2.812578845800   108.83645906   300.61422594
 H      5   4   3     2.813035577107   110.76680108   177.88688536
 H      5   4   3     2.812578845800   108.83645256    59.38577668
 H      6   1   2     2.812578847521   108.83645491    59.38577309
 H      6   1   2     2.813035331802   110.76680152   177.88688804

---------------------
BASIS SET INFORMATION
---------------------
There are 2 groups of distinct atoms

 Group   1 Type Si  : 10s7p1d contracted to 4s3p1d pattern {5311/511/1}
 Group   2 Type H   : 4s contracted to 2s pattern {31}

Atom   0Si   basis set group =>   1
Atom   1Si   basis set group =>   1
Atom   2Si   basis set group =>   1
Atom   3Si   basis set group =>   1
Atom   4Si   basis set group =>   1
Atom   5Si   basis set group =>   1
Atom   6H    basis set group =>   2
Atom   7H    basis set group =>   2
Atom   8H    basis set group =>   2
Atom   9H    basis set group =>   2
Atom  10H    basis set group =>   2
Atom  11H    basis set group =>   2
Atom  12H    basis set group =>   2
Atom  13H    basis set group =>   2
Atom  14H    basis set group =>   2
Atom  15H    basis set group =>   2
Atom  16H    basis set group =>   2
Atom  17H    basis set group =>   2
---------------------------------
AUXILIARY/J BASIS SET INFORMATION
---------------------------------
There are 2 groups of distinct atoms

 Group   1 Type Si  : 14s5p5d2f1g contracted to 8s4p3d1f1g pattern {71111111/2111/311/2/1}
 Group   2 Type H   : 5s2p1d contracted to 3s1p1d pattern {311/2/1}

Atom   0Si   basis set group =>   1
Atom   1Si   basis set group =>   1
Atom   2Si   basis set group =>   1
Atom   3Si   basis set group =>   1
Atom   4Si   basis set group =>   1
Atom   5Si   basis set group =>   1
Atom   6H    basis set group =>   2
Atom   7H    basis set group =>   2
Atom   8H    basis set group =>   2
Atom   9H    basis set group =>   2
Atom  10H    basis set group =>   2
Atom  11H    basis set group =>   2
Atom  12H    basis set group =>   2
Atom  13H    basis set group =>   2
Atom  14H    basis set group =>   2
Atom  15H    basis set group =>   2
Atom  16H    basis set group =>   2
Atom  17H    basis set group =>   2


           ************************************************************
           *        Program running with 4 parallel MPI-processes     *
           *              working on a common directory               *
           ************************************************************
------------------------------------------------------------------------------
                           ORCA GTO INTEGRAL CALCULATION
                           -- RI-GTO INTEGRALS CHOSEN --
------------------------------------------------------------------------------
------------------------------------------------------------------------------
                   ___                                                        
                  /   \      - P O W E R E D   B Y -                         
                 /     \                                                     
                 |  |  |   _    _      __       _____    __    __             
                 |  |  |  | |  | |    /  \     |  _  \  |  |  /  |          
                  \  \/   | |  | |   /    \    | | | |  |  | /  /          
                 / \  \   | |__| |  /  /\  \   | |_| |  |  |/  /          
                |  |  |   |  __  | /  /__\  \  |    /   |      \           
                |  |  |   | |  | | |   __   |  |    \   |  |\   \          
                \     /   | |  | | |  |  |  |  | |\  \  |  | \   \       
                 \___/    |_|  |_| |__|  |__|  |_| \__\ |__|  \__/        
                                                                              
                      - O R C A' S   B I G   F R I E N D -                    
                                      &                                       
                       - I N T E G R A L  F E E D E R -                       
                                                                              
 v1 FN, 2020, v2 2021                                                         
------------------------------------------------------------------------------


Reading SHARK input file pbeh-3c.SHARKINP.tmp ... ok
----------------------
SHARK INTEGRAL PACKAGE
----------------------

Number of atoms                             ...     18
Number of basis functions                   ...    132
Number of shells                            ...     72
Maximum angular momentum                    ...      2
Integral batch strategy                     ... SHARK/LIBINT Hybrid
RI-J (if used) integral strategy            ... SPLIT-RIJ (Revised 2003 algorithm where possible)
Printlevel                                  ...      1
Contraction scheme used                     ... SEGMENTED contraction
Coulomb Range Separation                    ... NOT USED
Exchange Range Separation                   ... NOT USED
Finite Nucleus Model                        ... NOT USED
Auxiliary Coulomb fitting basis             ... AVAILABLE
   # of basis functions in Aux-J            ...    438
   # of shells in Aux-J                     ...    162
   Maximum angular momentum in Aux-J        ...      4
Auxiliary J/K fitting basis                 ... NOT available
Auxiliary Correlation fitting basis         ... NOT available
Auxiliary 'external' fitting basis          ... NOT available
Integral threshold                          ...     2.500000e-11
Primitive cut-off                           ...     2.500000e-12
Primitive pair pre-selection threshold      ...     2.500000e-12

Calculating pre-screening integrals         ... done (  0.1 sec) Dimension = 72
Organizing shell pair data                  ... done (  0.3 sec)
Shell pair information
Total number of shell pairs                 ...      2628
Shell pairs after pre-screening             ...      2377
Total number of primitive shell pairs       ...     12420
Primitive shell pairs kept                  ...      7303
          la=0 lb=0:   1014 shell pairs
          la=1 lb=0:    784 shell pairs
          la=1 lb=1:    162 shell pairs
          la=2 lb=0:    288 shell pairs
          la=2 lb=1:    108 shell pairs
          la=2 lb=2:     21 shell pairs

Calculating one electron integrals          ... done (  0.0 sec)
Calculating RI/J V-Matrix + Cholesky decomp.... done (  0.6 sec)
Calculating Nuclear repulsion               ... done (  0.2 sec) ENN=    675.865222874042 Eh

SHARK setup successfully completed in   2.1 seconds

Maximum memory used throughout the entire GTOINT-calculation: 11.2 MB


           ************************************************************
           *        Program running with 4 parallel MPI-processes     *
           *              working on a common directory               *
           ************************************************************
-------------------------------------------------------------------------------
                                 ORCA SCF
-------------------------------------------------------------------------------

------------
SCF SETTINGS
------------
Hamiltonian:
 Density Functional     Method          .... DFT(GTOs)
 Exchange Functional    Exchange        .... PBE
   PBE kappa parameter   XKappa         ....  1.024500
   PBE mue parameter    XMuePBE         ....  0.123457
 Correlation Functional Correlation     .... PBE
   PBE beta parameter  CBetaPBE         ....  0.030000
 LDA part of GGA corr.  LDAOpt          .... PW91-LDA
 Gradients option       PostSCFGGA      .... off
 Hybrid DFT is turned on
   Fraction HF Exchange ScalHFX         ....  0.420000
   Scaling of DF-GGA-X  ScalDFX         ....  0.580000
   Scaling of DF-GGA-C  ScalDFC         ....  1.000000
   Scaling of DF-LDA-C  ScalLDAC        ....  1.000000
   Perturbative correction              ....  0.000000
   Density functional embedding theory  .... OFF
 RI-approximation to the Coulomb term is turned on
   Number of AuxJ basis functions       .... 438
   RIJ-ON(X) (HFX calculated with O(N)) .... on
   Number of AuxJ basis functions       .... 438
   RIJ-COSX (HFX calculated with COS-X)).... on


General Settings:
 Integral files         IntName         .... pbeh-3c
 Hartree-Fock type      HFTyp           .... RHF
 Total Charge           Charge          ....    0
 Multiplicity           Mult            ....    1
 Number of Electrons    NEL             ....   96
 Basis Dimension        Dim             ....  132
 Nuclear Repulsion      ENuc            ....    675.8652228740 Eh

Convergence Acceleration:
 DIIS                   CNVDIIS         .... on
   Start iteration      DIISMaxIt       ....    12
   Startup error        DIISStart       ....  0.200000
   # of expansion vecs  DIISMaxEq       ....     5
   Bias factor          DIISBfac        ....   1.050
   Max. coefficient     DIISMaxC        ....  10.000
 Trust-Rad. Augm. Hess. CNVTRAH         .... auto
   Auto Start mean grad. ratio tolernc. ....  1.125000
   Auto Start start iteration           ....    20
   Auto Start num. interpolation iter.  ....    10
   Max. Number of Micro iterations      ....    16
   Max. Number of Macro iterations      .... Maxiter - #DIIS iter
   Number of Davidson start vectors     ....     2
   Converg. threshold I  (grad. norm)   ....   1.000e-05
   Converg. threshold II (energy diff.) ....   1.000e-08
   Grad. Scal. Fac. for Micro threshold ....   0.100
   Minimum threshold for Micro iter.    ....   0.010
   NR start threshold (gradient norm)   ....   0.001
   Initial trust radius                 ....   0.400
   Minimum AH scaling param. (alpha)    ....   1.000
   Maximum AH scaling param. (alpha)    .... 1000.000
   Orbital update algorithm             .... Taylor
   White noise on init. David. guess    .... on
   Maximum white noise                  ....   0.010
   Quad. conv. algorithm                .... NR
   COSX micro iterations for RIJONX calc.... off
 SOSCF                  CNVSOSCF        .... on
   Start iteration      SOSCFMaxIt      ....   150
   Startup grad/error   SOSCFStart      ....  0.003300
 Level Shifting         CNVShift        .... on
   Level shift para.    LevelShift      ....    0.2500
   Turn off err/grad.   ShiftErr        ....    0.0010
 Zerner damping         CNVZerner       .... off
 Static damping         CNVDamp         .... on
   Fraction old density DampFac         ....    0.7000
   Max. Damping (<1)    DampMax         ....    0.9800
   Min. Damping (>=0)   DampMin         ....    0.0000
   Turn off err/grad.   DampErr         ....    0.1000
 Fernandez-Rico         CNVRico         .... off

SCF Procedure:
 Maximum # iterations   MaxIter         ....   125
 SCF integral mode      SCFMode         .... Direct
   Integral package                     .... SHARK and LIBINT hybrid scheme
 Reset frequency        DirectResetFreq ....    20
 Integral Threshold     Thresh          ....  2.500e-11 Eh
 Primitive CutOff       TCut            ....  2.500e-12 Eh

Convergence Tolerance:
 Convergence Check Mode ConvCheckMode   .... Total+1el-Energy
 Convergence forced     ConvForced      .... 0
 Energy Change          TolE            ....  1.000e-08 Eh
 1-El. energy change                    ....  1.000e-05 Eh
 Orbital Gradient       TolG            ....  1.000e-05
 Orbital Rotation angle TolX            ....  1.000e-05
 DIIS Error             TolErr          ....  5.000e-07


Diagonalization of the overlap matrix:
Smallest eigenvalue                        ... 3.584e-03
Time for diagonalization                   ...    0.003 sec
Threshold for overlap eigenvalues          ... 1.000e-08
Number of eigenvalues below threshold      ... 0
Time for construction of square roots      ...    0.123 sec
Total time needed                          ...    0.126 sec

--------------------------------
INITIAL GUESS: MINIMAL BASIS EHT
--------------------------------
The minimal basis has 66 functions
EHT matrix was diagonalized
Basis set overlap was calculated now projecting the orbitals
Using GuessMode=FMatrix for the initial guess
C*T matrix was formed
Effective Fockian was calculated
Effective Fockian was diagonalized
Initial density was built
                      ------------------
                      INITIAL GUESS DONE
                      ------------------
-------------------
DFT GRID GENERATION
-------------------

General Integration Accuracy     IntAcc      ... 4.959
Radial Grid Type                 RadialGrid  ... OptM3 with GC (2021)
Angular Grid (max. ang.)         AngularGrid ... 6 (Lebedev-590)
Angular grid pruning method      GridPruning ... 4 (adaptive)
Weight generation scheme         WeightScheme... Becke
Basis function cutoff            BFCut       ... 1.0000e-11
Integration weight cutoff        WCut        ... 1.0000e-14
Angular grids for H and He will be reduced by one unit
Partially contracted basis set               ... off
Rotationally invariant grid construction     ... off

Total number of grid points                  ...   201502
Total number of batches                      ...     3154
Average number of points per batch           ...       63
Average number of grid points per atom       ...    11195
Time for grid setup =    4.558 sec

--------------------
COSX GRID GENERATION
--------------------

GRIDX 1
-------
General Integration Accuracy     IntAcc      ... 4.020
Radial Grid Type                 RadialGrid  ... OptM3 with GC (2021)
Angular Grid (max. ang.)         AngularGrid ... 2 (Lebedev-110)
Angular grid pruning method      GridPruning ... 4 (adaptive)
Weight generation scheme         WeightScheme... Becke
Basis function cutoff            BFCut       ... 1.0000e-11
Integration weight cutoff        WCut        ... 1.0000e-14
Angular grids for H and He will be reduced by one unit
Partially contracted basis set               ... on
Rotationally invariant grid construction     ... off

Total number of grid points                  ...    20852
Total number of batches                      ...      338
Average number of points per batch           ...       61
Average number of grid points per atom       ...     1158
UseSFitting                                  ... on

GRIDX 2
-------
General Integration Accuracy     IntAcc      ... 4.338
Radial Grid Type                 RadialGrid  ... OptM3 with GC (2021)
Angular Grid (max. ang.)         AngularGrid ... 3 (Lebedev-194)
Angular grid pruning method      GridPruning ... 4 (adaptive)
Weight generation scheme         WeightScheme... Becke
Basis function cutoff            BFCut       ... 1.0000e-11
Integration weight cutoff        WCut        ... 1.0000e-14
Angular grids for H and He will be reduced by one unit
Partially contracted basis set               ... on
Rotationally invariant grid construction     ... off

Total number of grid points                  ...    48704
Total number of batches                      ...      772
Average number of points per batch           ...       63
Average number of grid points per atom       ...     2706
UseSFitting                                  ... on

GRIDX 3
-------
General Integration Accuracy     IntAcc      ... 4.871
Radial Grid Type                 RadialGrid  ... OptM3 with GC (2021)
Angular Grid (max. ang.)         AngularGrid ... 4 (Lebedev-302)
Angular grid pruning method      GridPruning ... 4 (adaptive)
Weight generation scheme         WeightScheme... Becke
Basis function cutoff            BFCut       ... 1.0000e-11
Integration weight cutoff        WCut        ... 1.0000e-14
Angular grids for H and He will be reduced by one unit
Partially contracted basis set               ... on
Rotationally invariant grid construction     ... off

Total number of grid points                  ...    94666
Total number of batches                      ...     1490
Average number of points per batch           ...       63
Average number of grid points per atom       ...     5259
UseSFitting                                  ... on

Time for X-Grid setup             =    5.776 sec

--------------
SCF ITERATIONS
--------------
ITER       Energy         Delta-E        Max-DP      RMS-DP      [F,P]     Damp
               ***  Starting incremental Fock matrix formation  ***
  0  -1740.5315326404   0.000000000000 0.08339928  0.00528056  0.3376918 0.7000
  1  -1740.9874308814  -0.455898241016 0.05591414  0.00373481  0.2360536 0.7000
                               ***Turning on DIIS***
  2  -1741.3038480372  -0.316417155768 0.04022905  0.00259793  0.1615296 0.7000
  3  -1741.5229934005  -0.219145363300 0.03144465  0.00178704  0.1101730 0.7000
  4  -1741.6759598365  -0.152966436026 0.07759200  0.00419985  0.0763394 0.0000
                      *** Initiating the SOSCF procedure ***
                           *** Shutting down DIIS ***
                      *** Re-Reading the Fockian *** 
                      *** Removing any level shift *** 
ITER      Energy       Delta-E        Grad      Rot      Max-DP    RMS-DP
  5  -1742.03309623  -0.3571363960  0.001788  0.001788  0.006428  0.000221
               *** Restarting incremental Fock matrix formation ***
  6  -1742.03326554  -0.0001693082  0.000777  0.001556  0.001343  0.000117
  7  -1742.03328806  -0.0000225231  0.000448  0.000795  0.001197  0.000051
  8  -1742.03329354  -0.0000054797  0.000088  0.000201  0.000240  0.000013
  9  -1742.03329391  -0.0000003678  0.000007  0.000015  0.000028  0.000001
                  ***Gradient check signals convergence***
              ***Rediagonalizing the Fockian in SOSCF/NRSCF***

               *****************************************************
               *                     SUCCESS                       *
               *           SCF CONVERGED AFTER  10 CYCLES          *
               *****************************************************

Old exchange energy                            =    -53.059484431 Eh
New exchange energy                            =    -53.059469015 Eh
Exchange energy change after final integration =      0.000015416 Eh
Total energy after final integration           =  -1742.033278502 Eh
Final COS-X integration done in                =     4.258 sec

----------------
TOTAL SCF ENERGY
----------------

Total Energy       :        -1742.03327850 Eh          -47403.13544 eV

Components:
Nuclear Repulsion  :          675.86522287 Eh           18391.22771 eV
Electronic Energy  :        -2417.89850138 Eh          -65794.36314 eV
One Electron Energy:        -3762.73531260 Eh         -102389.23322 eV
Two Electron Energy:         1344.83681122 Eh           36594.87008 eV
Max COSX asymmetry :            0.00000080 Eh               0.00002 eV

Virial components:
Potential Energy   :        -3481.06516304 Eh          -94724.59879 eV
Kinetic Energy     :         1739.03188454 Eh           47321.46335 eV
Virial Ratio       :            2.00172590


DFT components:
N(Alpha)           :       48.000000395480 electrons
N(Beta)            :       48.000000395480 electrons
N(Total)           :       96.000000790961 electrons
E(X)               :      -70.665772648315 Eh       
E(C)               :       -4.646599301808 Eh       
E(XC)              :      -75.312371950123 Eh       
DFET-embed. en.    :        0.000000000000 Eh       

---------------
SCF CONVERGENCE
---------------

  Last Energy change         ...   -6.3603e-09  Tolerance :   1.0000e-08
  Last MAX-Density change    ...    4.6629e-15  Tolerance :   1.0000e-07
  Last RMS-Density change    ...    1.1803e-16  Tolerance :   5.0000e-09
  Last Orbital Gradient      ...    2.0994e-06  Tolerance :   1.0000e-05
  Last Orbital Rotation      ...    3.1084e-06  Tolerance :   1.0000e-05

             **** THE GBW FILE WAS UPDATED (pbeh-3c.gbw) ****
             **** DENSITY pbeh-3c.scfp WAS UPDATED ****
             **** ENERGY FILE WAS UPDATED (pbeh-3c.en.tmp) ****
             **** THE GBW FILE WAS UPDATED (pbeh-3c.gbw) ****
             **** DENSITY pbeh-3c.scfp WAS UPDATED ****
----------------
ORBITAL ENERGIES
----------------

  NO   OCC          E(Eh)            E(eV) 
   0   2.0000     -66.736845     -1816.0019 
   1   2.0000     -66.736837     -1816.0017 
   2   2.0000     -66.736817     -1816.0011 
   3   2.0000     -66.736753     -1815.9994 
   4   2.0000     -66.736744     -1815.9991 
   5   2.0000     -66.736670     -1815.9971 
   6   2.0000      -5.518578      -150.1681 
   7   2.0000      -5.518572      -150.1680 
   8   2.0000      -5.518568      -150.1679 
   9   2.0000      -5.518526      -150.1667 
  10   2.0000      -5.518522      -150.1666 
  11   2.0000      -5.518477      -150.1654 
  12   2.0000      -3.809428      -103.6598 
  13   2.0000      -3.809384      -103.6586 
  14   2.0000      -3.809383      -103.6586 
  15   2.0000      -3.809314      -103.6567 
  16   2.0000      -3.809313      -103.6567 
  17   2.0000      -3.809288      -103.6560 
  18   2.0000      -3.809198      -103.6535 
  19   2.0000      -3.809141      -103.6520 
  20   2.0000      -3.809138      -103.6519 
  21   2.0000      -3.809059      -103.6498 
  22   2.0000      -3.809053      -103.6496 
  23   2.0000      -3.809012      -103.6485 
  24   2.0000      -3.808785      -103.6423 
  25   2.0000      -3.808781      -103.6422 
  26   2.0000      -3.808758      -103.6416 
  27   2.0000      -3.808757      -103.6416 
  28   2.0000      -3.808756      -103.6415 
  29   2.0000      -3.808697      -103.6399 
  30   2.0000      -0.670348       -18.2411 
  31   2.0000      -0.627709       -17.0808 
  32   2.0000      -0.627706       -17.0807 
  33   2.0000      -0.556316       -15.1381 
  34   2.0000      -0.556316       -15.1381 
  35   2.0000      -0.524531       -14.2732 
  36   2.0000      -0.426238       -11.5985 
  37   2.0000      -0.425318       -11.5735 
  38   2.0000      -0.414677       -11.2839 
  39   2.0000      -0.414677       -11.2839 
  40   2.0000      -0.398352       -10.8397 
  41   2.0000      -0.398352       -10.8397 
  42   2.0000      -0.369107       -10.0439 
  43   2.0000      -0.359041        -9.7700 
  44   2.0000      -0.359039        -9.7700 
  45   2.0000      -0.322819        -8.7844 
  46   2.0000      -0.322819        -8.7844 
  47   2.0000      -0.319794        -8.7020 
  48   0.0000      -0.001658        -0.0451 
  49   0.0000      -0.001267        -0.0345 
  50   0.0000       0.022179         0.6035 
  51   0.0000       0.022182         0.6036 
  52   0.0000       0.025830         0.7029 
  53   0.0000       0.025831         0.7029 
  54   0.0000       0.050075         1.3626 
  55   0.0000       0.064637         1.7589 
  56   0.0000       0.064641         1.7590 
  57   0.0000       0.079780         2.1709 
  58   0.0000       0.095656         2.6029 
  59   0.0000       0.095659         2.6030 
  60   0.0000       0.129746         3.5306 
  61   0.0000       0.169274         4.6062 
  62   0.0000       0.169276         4.6062 
  63   0.0000       0.175808         4.7840 
  64   0.0000       0.199243         5.4217 
  65   0.0000       0.199250         5.4219 
  66   0.0000       0.218413         5.9433 
  67   0.0000       0.232391         6.3237 
  68   0.0000       0.261895         7.1265 
  69   0.0000       0.261924         7.1273 
  70   0.0000       0.294537         8.0148 
  71   0.0000       0.294538         8.0148 
  72   0.0000       0.305068         8.3013 
  73   0.0000       0.359050         9.7703 
  74   0.0000       0.359051         9.7703 
  75   0.0000       0.372072        10.1246 
  76   0.0000       0.372080        10.1248 
  77   0.0000       0.388016        10.5584 
  78   0.0000       0.408528        11.1166 
  79   0.0000       0.408532        11.1167 
  80   0.0000       0.411108        11.1868 
  81   0.0000       0.421260        11.4631 
  82   0.0000       0.425336        11.5740 
  83   0.0000       0.425342        11.5741 
  84   0.0000       0.443094        12.0572 
  85   0.0000       0.498422        13.5628 
  86   0.0000       0.501402        13.6439 
  87   0.0000       0.501406        13.6439 
  88   0.0000       0.522850        14.2275 
  89   0.0000       0.522864        14.2279 
  90   0.0000       0.555808        15.1243 
  91   0.0000       0.557636        15.1740 
  92   0.0000       0.590545        16.0695 
  93   0.0000       0.591339        16.0912 
  94   0.0000       0.591354        16.0916 
  95   0.0000       0.597951        16.2711 
  96   0.0000       0.597952        16.2711 
  97   0.0000       0.650575        17.7030 
  98   0.0000       0.664634        18.0856 
  99   0.0000       0.664635        18.0856 
 100   0.0000       0.674818        18.3627 
 101   0.0000       0.674833        18.3631 
 102   0.0000       0.677174        18.4268 
 103   0.0000       0.697305        18.9746 
 104   0.0000       0.708509        19.2795 
 105   0.0000       0.708515        19.2797 
 106   0.0000       0.720086        19.5945 
 107   0.0000       0.727153        19.7868 
 108   0.0000       0.727157        19.7870 
 109   0.0000       0.743364        20.2280 
 110   0.0000       0.743369        20.2281 
 111   0.0000       0.750118        20.4117 
 112   0.0000       0.757942        20.6246 
 113   0.0000       0.808709        22.0061 
 114   0.0000       0.808719        22.0063 
 115   0.0000       0.866224        23.5711 
 116   0.0000       0.866229        23.5713 
 117   0.0000       0.948339        25.8056 
 118   0.0000       0.948345        25.8058 
 119   0.0000       1.038388        28.2560 
 120   0.0000       1.150349        31.3026 
 121   0.0000       1.230826        33.4925 
 122   0.0000       1.230827        33.4925 
 123   0.0000       1.231429        33.5089 
 124   0.0000       1.240067        33.7440 
 125   0.0000       1.240068        33.7440 
 126   0.0000       1.256656        34.1953 
 127   0.0000       1.256666        34.1956 
 128   0.0000       1.262472        34.3536 
 129   0.0000       1.332796        36.2672 
 130   0.0000       1.344274        36.5796 
 131   0.0000       1.344277        36.5796 

                    ********************************
                    * MULLIKEN POPULATION ANALYSIS *
                    ********************************

-----------------------
MULLIKEN ATOMIC CHARGES
-----------------------
   0 Si:   -0.040582
   1 Si:   -0.040583
   2 Si:   -0.040228
   3 Si:   -0.040582
   4 Si:   -0.040582
   5 Si:   -0.040228
   6 H :    0.016488
   7 H :    0.023986
   8 H :    0.023986
   9 H :    0.016488
  10 H :    0.023950
  11 H :    0.016494
  12 H :    0.023986
  13 H :    0.016488
  14 H :    0.023986
  15 H :    0.016488
  16 H :    0.016494
  17 H :    0.023951
Sum of atomic charges:    0.0000000

--------------------------------
MULLIKEN REDUCED ORBITAL CHARGES
--------------------------------
  0 Sis       :     5.286594  s :     5.286594
      pz      :     2.866224  p :     8.601797
      px      :     2.876328
      py      :     2.859245
      dz2     :     0.059609  d :     0.152191
      dxz     :     0.015795
      dyz     :     0.013846
      dx2y2   :     0.027847
      dxy     :     0.035095
  1 Sis       :     5.286595  s :     5.286595
      pz      :     2.866224  p :     8.601797
      px      :     2.876328
      py      :     2.859245
      dz2     :     0.059609  d :     0.152191
      dxz     :     0.015795
      dyz     :     0.013846
      dx2y2   :     0.027847
      dxy     :     0.035095
  2 Sis       :     5.286315  s :     5.286315
      pz      :     2.866255  p :     8.601722
      px      :     2.850628
      py      :     2.884839
      dz2     :     0.059610  d :     0.152190
      dxz     :     0.012871
      dyz     :     0.016768
      dx2y2   :     0.038719
      dxy     :     0.024222
  3 Sis       :     5.286594  s :     5.286594
      pz      :     2.866224  p :     8.601798
      px      :     2.876328
      py      :     2.859245
      dz2     :     0.059609  d :     0.152191
      dxz     :     0.015795
      dyz     :     0.013846
      dx2y2   :     0.027847
      dxy     :     0.035095
  4 Sis       :     5.286594  s :     5.286594
      pz      :     2.866224  p :     8.601798
      px      :     2.876328
      py      :     2.859245
      dz2     :     0.059609  d :     0.152191
      dxz     :     0.015795
      dyz     :     0.013846
      dx2y2   :     0.027847
      dxy     :     0.035095
  5 Sis       :     5.286315  s :     5.286315
      pz      :     2.866255  p :     8.601722
      px      :     2.850629
      py      :     2.884838
      dz2     :     0.059610  d :     0.152190
      dxz     :     0.012871
      dyz     :     0.016768
      dx2y2   :     0.038719
      dxy     :     0.024222
  6 H s       :     0.983512  s :     0.983512
  7 H s       :     0.976014  s :     0.976014
  8 H s       :     0.976014  s :     0.976014
  9 H s       :     0.983512  s :     0.983512
 10 H s       :     0.976050  s :     0.976050
 11 H s       :     0.983506  s :     0.983506
 12 H s       :     0.976014  s :     0.976014
 13 H s       :     0.983512  s :     0.983512
 14 H s       :     0.976014  s :     0.976014
 15 H s       :     0.983512  s :     0.983512
 16 H s       :     0.983506  s :     0.983506
 17 H s       :     0.976049  s :     0.976049


                     *******************************
                     * LOEWDIN POPULATION ANALYSIS *
                     *******************************

----------------------
LOEWDIN ATOMIC CHARGES
----------------------
   0 Si:    0.006623
   1 Si:    0.006623
   2 Si:    0.006658
   3 Si:    0.006623
   4 Si:    0.006623
   5 Si:    0.006658
   6 H :   -0.004366
   7 H :   -0.002267
   8 H :   -0.002267
   9 H :   -0.004366
  10 H :   -0.002275
  11 H :   -0.004362
  12 H :   -0.002267
  13 H :   -0.004366
  14 H :   -0.002267
  15 H :   -0.004366
  16 H :   -0.004362
  17 H :   -0.002275

-------------------------------
LOEWDIN REDUCED ORBITAL CHARGES
-------------------------------
  0 Sis       :     5.080874  s :     5.080874
      pz      :     2.890247  p :     8.715348
      px      :     2.906463
      py      :     2.918638
      dz2     :     0.073773  d :     0.197155
      dxz     :     0.019446
      dyz     :     0.018819
      dx2y2   :     0.039012
      dxy     :     0.046105
  1 Sis       :     5.080874  s :     5.080874
      pz      :     2.890247  p :     8.715348
      px      :     2.906463
      py      :     2.918638
      dz2     :     0.073773  d :     0.197155
      dxz     :     0.019446
      dyz     :     0.018819
      dx2y2   :     0.039012
      dxy     :     0.046105
  2 Sis       :     5.080854  s :     5.080854
      pz      :     2.890250  p :     8.715330
      px      :     2.924703
      py      :     2.900377
      dz2     :     0.073773  d :     0.197158
      dxz     :     0.018507
      dyz     :     0.019759
      dx2y2   :     0.049653
      dxy     :     0.035466
  3 Sis       :     5.080874  s :     5.080874
      pz      :     2.890247  p :     8.715348
      px      :     2.906463
      py      :     2.918638
      dz2     :     0.073773  d :     0.197155
      dxz     :     0.019446
      dyz     :     0.018819
      dx2y2   :     0.039012
      dxy     :     0.046105
  4 Sis       :     5.080874  s :     5.080874
      pz      :     2.890247  p :     8.715348
      px      :     2.906463
      py      :     2.918638
      dz2     :     0.073773  d :     0.197155
      dxz     :     0.019446
      dyz     :     0.018819
      dx2y2   :     0.039012
      dxy     :     0.046105
  5 Sis       :     5.080854  s :     5.080854
      pz      :     2.890250  p :     8.715330
      px      :     2.924703
      py      :     2.900377
      dz2     :     0.073773  d :     0.197158
      dxz     :     0.018507
      dyz     :     0.019759
      dx2y2   :     0.049653
      dxy     :     0.035466
  6 H s       :     1.004366  s :     1.004366
  7 H s       :     1.002267  s :     1.002267
  8 H s       :     1.002267  s :     1.002267
  9 H s       :     1.004366  s :     1.004366
 10 H s       :     1.002275  s :     1.002275
 11 H s       :     1.004362  s :     1.004362
 12 H s       :     1.002267  s :     1.002267
 13 H s       :     1.004366  s :     1.004366
 14 H s       :     1.002267  s :     1.002267
 15 H s       :     1.004366  s :     1.004366
 16 H s       :     1.004362  s :     1.004362
 17 H s       :     1.002275  s :     1.002275


                      *****************************
                      * MAYER POPULATION ANALYSIS *
                      *****************************

  NA   - Mulliken gross atomic population
  ZA   - Total nuclear charge
  QA   - Mulliken gross atomic charge
  VA   - Mayer's total valence
  BVA  - Mayer's bonded valence
  FA   - Mayer's free valence

  ATOM       NA         ZA         QA         VA         BVA        FA
  0 Si    14.0406    14.0000    -0.0406     3.8989     3.8989     0.0000
  1 Si    14.0406    14.0000    -0.0406     3.8989     3.8989     0.0000
  2 Si    14.0402    14.0000    -0.0402     3.8989     3.8989     0.0000
  3 Si    14.0406    14.0000    -0.0406     3.8989     3.8989     0.0000
  4 Si    14.0406    14.0000    -0.0406     3.8989     3.8989     0.0000
  5 Si    14.0402    14.0000    -0.0402     3.8989     3.8989     0.0000
  6 H      0.9835     1.0000     0.0165     0.9844     0.9844     0.0000
  7 H      0.9760     1.0000     0.0240     0.9872     0.9872     0.0000
  8 H      0.9760     1.0000     0.0240     0.9872     0.9872     0.0000
  9 H      0.9835     1.0000     0.0165     0.9844     0.9844     0.0000
 10 H      0.9760     1.0000     0.0240     0.9872     0.9872     0.0000
 11 H      0.9835     1.0000     0.0165     0.9844     0.9844     0.0000
 12 H      0.9760     1.0000     0.0240     0.9872     0.9872     0.0000
 13 H      0.9835     1.0000     0.0165     0.9844     0.9844     0.0000
 14 H      0.9760     1.0000     0.0240     0.9872     0.9872     0.0000
 15 H      0.9835     1.0000     0.0165     0.9844     0.9844     0.0000
 16 H      0.9835     1.0000     0.0165     0.9844     0.9844     0.0000
 17 H      0.9760     1.0000     0.0240     0.9872     0.9872     0.0000

  Mayer bond orders larger than 0.100000
B(  0-Si,  1-Si) :   0.9645 B(  0-Si,  5-Si) :   0.9644 B(  0-Si,  6-H ) :   0.9588 
B(  0-Si,  7-H ) :   0.9622 B(  1-Si,  2-Si) :   0.9644 B(  1-Si,  8-H ) :   0.9622 
B(  1-Si,  9-H ) :   0.9588 B(  2-Si,  3-Si) :   0.9644 B(  2-Si, 10-H ) :   0.9622 
B(  2-Si, 11-H ) :   0.9589 B(  3-Si,  4-Si) :   0.9645 B(  3-Si, 12-H ) :   0.9622 
B(  3-Si, 13-H ) :   0.9588 B(  4-Si,  5-Si) :   0.9644 B(  4-Si, 14-H ) :   0.9622 
B(  4-Si, 15-H ) :   0.9588 B(  5-Si, 16-H ) :   0.9589 B(  5-Si, 17-H ) :   0.9622 


-------
TIMINGS
-------

Total SCF time: 0 days 0 hours 1 min 32 sec 

Total time                  ....      92.348 sec
Sum of individual times     ....      84.586 sec  ( 91.6%)

Fock matrix formation       ....      67.417 sec  ( 73.0%)
  Split-RI-J                ....       7.885 sec  ( 11.7% of F)
  Chain of spheres X        ....      30.106 sec  ( 44.7% of F)
  XC integration            ....      16.015 sec  ( 23.8% of F)
    Basis function eval.    ....       3.374 sec  ( 21.1% of XC)
    Density eval.           ....       2.037 sec  ( 12.7% of XC)
    XC-Functional eval.     ....       1.489 sec  (  9.3% of XC)
    XC-Potential eval.      ....       1.238 sec  (  7.7% of XC)
Diagonalization             ....       0.263 sec  (  0.3%)
Density matrix formation    ....       0.069 sec  (  0.1%)
Population analysis         ....       0.846 sec  (  0.9%)
Initial guess               ....       0.023 sec  (  0.0%)
Orbital Transformation      ....       0.000 sec  (  0.0%)
Orbital Orthonormalization  ....       0.000 sec  (  0.0%)
DIIS solution               ....       4.356 sec  (  4.7%)
SOSCF solution              ....       1.277 sec  (  1.4%)
Grid generation             ....      10.334 sec  ( 11.2%)

Maximum memory used throughout the entire SCF-calculation: 56.0 MB


-------------------------------------------------------------------------------
                          DFT DISPERSION CORRECTION                            
                                                                               
                              DFTD3 V3.1  Rev 1                                
                          USING Becke-Johnson damping                          
-------------------------------------------------------------------------------
The PBEh-3c composite method is recognized
Using three-body term ABC
Active option DFTDOPT                   ...         4   

molecular C6(AA) [au] = 8993.985049 


            DFT-D V3
 parameters
 s6 scaling factor         :     1.0000 
 a1 scaling factor         :     0.4860 
 s8 scaling factor         :     0.0000 
 a2 scaling factor         :     4.5000 
 Damping factor alpha9(ATM):    16.0000 
 ad hoc parameters k1-k3   :    16.0000     1.3333    -4.0000 

 Edisp/kcal,au: -7.043303925542  -0.011224218064 
 E6   /kcal   :  -7.083417564 
 E8   /kcal   :  -0.000000000 
 E6(ABC)      :   0.040113639 
 % E8         :   0.000000000 
 % E6(ABC)    :  -0.569528720 

-------------------------   ----------------
Dispersion correction           -0.011224218
-------------------------   ----------------

------------------   -----------------
gCP correction             0.015019398
------------------   -----------------

-------------------------   --------------------
FINAL SINGLE POINT ENERGY     -1742.029483321276
-------------------------   --------------------


                            ***************************************
                            *     ORCA property calculations      *
                            ***************************************

                                    ---------------------
                                    Active property flags
                                    ---------------------
   (+) Dipole Moment


------------------------------------------------------------------------------
                       ORCA ELECTRIC PROPERTIES CALCULATION
------------------------------------------------------------------------------

Dipole Moment Calculation                       ... on
Quadrupole Moment Calculation                   ... off
Polarizability Calculation                      ... off
GBWName                                         ... pbeh-3c.gbw
Electron density                                ... pbeh-3c.scfp
The origin for moment calculation is the CENTER OF MASS  = ( 0.000000, -0.000000  0.000000)

-------------
DIPOLE MOMENT
-------------
                                X             Y             Z
Electronic contribution:      0.00000       0.00000      -0.00000
Nuclear contribution   :      0.00000      -0.00000      -0.00000
                        -----------------------------------------
Total Dipole Moment    :      0.00000       0.00000      -0.00000
                        -----------------------------------------
Magnitude (a.u.)       :      0.00000
Magnitude (Debye)      :      0.00000



--------------------
Rotational spectrum 
--------------------
 
Rotational constants in cm-1:     0.032745     0.032745     0.018004 
Rotational constants in MHz :   981.671755   981.671705   539.733973 

 Dipole components along the rotational axes: 
x,y,z [a.u.] :     0.000000     0.000000    -0.000000 
x,y,z [Debye]:     0.000000     0.000000    -0.000000 

 

Timings for individual modules:

Sum of individual times         ...       96.180 sec (=   1.603 min)
GTO integral calculation        ...        3.171 sec (=   0.053 min)   3.3 %
SCF iterations                  ...       93.010 sec (=   1.550 min)  96.7 %
                             ****ORCA TERMINATED NORMALLY****
TOTAL RUN TIME: 0 days 0 hours 1 minutes 39 seconds 502 msec
