
                                 *****************
                                 * O   R   C   A *
                                 *****************

                                            #,                                       
                                            ###                                      
                                            ####                                     
                                            #####                                    
                                            ######                                   
                                           ########,                                 
                                     ,,################,,,,,                         
                               ,,#################################,,                 
                          ,,##########################################,,             
                       ,#########################################, ''#####,          
                    ,#############################################,,   '####,        
                  ,##################################################,,,,####,       
                ,###########''''           ''''###############################       
              ,#####''   ,,,,##########,,,,          '''####'''          '####       
            ,##' ,,,,###########################,,,                        '##       
           ' ,,###''''                  '''############,,,                           
         ,,##''                                '''############,,,,        ,,,,,,###''
      ,#''                                            '''#######################'''  
     '                                                          ''''####''''         
             ,#######,   #######,   ,#######,      ##                                
            ,#'     '#,  ##    ##  ,#'     '#,    #''#        ######   ,####,        
            ##       ##  ##   ,#'  ##            #'  '#       #        #'  '#        
            ##       ##  #######   ##           ,######,      #####,   #    #        
            '#,     ,#'  ##    ##  '#,     ,#' ,#      #,         ##   #,  ,#        
             '#######'   ##     ##  '#######'  #'      '#     #####' # '####'        



                  #######################################################
                  #                        -***-                        #
                  #          Department of theory and spectroscopy      #
                  #    Directorship and core code : Frank Neese         #
                  #        Max Planck Institute fuer Kohlenforschung    #
                  #                Kaiser Wilhelm Platz 1               #
                  #                 D-45470 Muelheim/Ruhr               #
                  #                      Germany                        #
                  #                                                     #
                  #                  All rights reserved                #
                  #                        -***-                        #
                  #######################################################


                         Program Version 5.0.3 -  RELEASE  -


 With contributions from (in alphabetic order):
   Daniel Aravena         : Magnetic Suceptibility
   Michael Atanasov       : Ab Initio Ligand Field Theory (pilot matlab implementation)
   Alexander A. Auer      : GIAO ZORA, VPT2 properties, NMR spectrum
   Ute Becker             : Parallelization
   Giovanni Bistoni       : ED, misc. LED, open-shell LED, HFLD
   Martin Brehm           : Molecular dynamics
   Dmytro Bykov           : SCF Hessian
   Vijay G. Chilkuri      : MRCI spin determinant printing, contributions to CSF-ICE
   Dipayan Datta          : RHF DLPNO-CCSD density
   Achintya Kumar Dutta   : EOM-CC, STEOM-CC
   Dmitry Ganyushin       : Spin-Orbit,Spin-Spin,Magnetic field MRCI
   Miquel Garcia          : C-PCM and meta-GGA Hessian, CC/C-PCM, Gaussian charge scheme
   Yang Guo               : DLPNO-NEVPT2, F12-NEVPT2, CIM, IAO-localization
   Andreas Hansen         : Spin unrestricted coupled pair/coupled cluster methods
   Benjamin Helmich-Paris : MC-RPA, TRAH-SCF, COSX integrals
   Lee Huntington         : MR-EOM, pCC
   Robert Izsak           : Overlap fitted RIJCOSX, COSX-SCS-MP3, EOM
   Marcus Kettner         : VPT2
   Christian Kollmar      : KDIIS, OOCD, Brueckner-CCSD(T), CCSD density, CASPT2, CASPT2-K
   Simone Kossmann        : Meta GGA functionals, TD-DFT gradient, OOMP2, MP2 Hessian
   Martin Krupicka        : Initial AUTO-CI
   Lucas Lang             : DCDCAS
   Marvin Lechner         : AUTO-CI (C++ implementation), FIC-MRCC
   Dagmar Lenk            : GEPOL surface, SMD
   Dimitrios Liakos       : Extrapolation schemes; Compound Job, initial MDCI parallelization
   Dimitrios Manganas     : Further ROCIS development; embedding schemes
   Dimitrios Pantazis     : SARC Basis sets
   Anastasios Papadopoulos: AUTO-CI, single reference methods and gradients
   Taras Petrenko         : DFT Hessian,TD-DFT gradient, ASA, ECA, R-Raman, ABS, FL, XAS/XES, NRVS
   Peter Pinski           : DLPNO-MP2, DLPNO-MP2 Gradient
   Christoph Reimann      : Effective Core Potentials
   Marius Retegan         : Local ZFS, SOC
   Christoph Riplinger    : Optimizer, TS searches, QM/MM, DLPNO-CCSD(T), (RO)-DLPNO pert. Triples
   Tobias Risthaus        : Range-separated hybrids, TD-DFT gradient, RPA, STAB
   Michael Roemelt        : Original ROCIS implementation
   Masaaki Saitow         : Open-shell DLPNO-CCSD energy and density
   Barbara Sandhoefer     : DKH picture change effects
   Avijit Sen             : IP-ROCIS
   Kantharuban Sivalingam : CASSCF convergence, NEVPT2, FIC-MRCI
   Bernardo de Souza      : ESD, SOC TD-DFT
   Georgi Stoychev        : AutoAux, RI-MP2 NMR, DLPNO-MP2 response
   Willem Van den Heuvel  : Paramagnetic NMR
   Boris Wezisla          : Elementary symmetry handling
   Frank Wennmohs         : Technical directorship


 We gratefully acknowledge several colleagues who have allowed us to
 interface, adapt or use parts of their codes:
   Stefan Grimme, W. Hujo, H. Kruse, P. Pracht,  : VdW corrections, initial TS optimization,
                  C. Bannwarth, S. Ehlert          DFT functionals, gCP, sTDA/sTD-DF
   Ed Valeev, F. Pavosevic, A. Kumar             : LibInt (2-el integral package), F12 methods
   Garnet Chan, S. Sharma, J. Yang, R. Olivares  : DMRG
   Ulf Ekstrom                                   : XCFun DFT Library
   Mihaly Kallay                                 : mrcc  (arbitrary order and MRCC methods)
   Jiri Pittner, Ondrej Demel                    : Mk-CCSD
   Frank Weinhold                                : gennbo (NPA and NBO analysis)
   Christopher J. Cramer and Donald G. Truhlar   : smd solvation model
   Lars Goerigk                                  : TD-DFT with DH, B97 family of functionals
   V. Asgeirsson, H. Jonsson                     : NEB implementation
   FAccTs GmbH                                   : IRC, NEB, NEB-TS, DLPNO-Multilevel, CI-OPT
                                                   MM, QMMM, 2- and 3-layer-ONIOM, Crystal-QMMM,
                                                   LR-CPCM, SF, NACMEs, symmetry and pop. for TD-DFT,
                                                   nearIR, NL-DFT gradient (VV10), updates on ESD,
                                                   ML-optimized integration grids
   S Lehtola, MJT Oliveira, MAL Marques          : LibXC Library
   Liviu Ungur et al                             : ANISO software


 Your calculation uses the libint2 library for the computation of 2-el integrals
 For citations please refer to: http://libint.valeyev.net

 Your ORCA version has been built with support for libXC version: 5.1.0
 For citations please refer to: https://tddft.org/programs/libxc/

 This ORCA versions uses:
   CBLAS   interface :  Fast vector & matrix operations
   LAPACKE interface :  Fast linear algebra routines
   SCALAPACK package :  Parallel linear algebra routines
   Shared memory     :  Shared parallel matrices
   BLAS/LAPACK       :  OpenBLAS 0.3.15  USE64BITINT DYNAMIC_ARCH NO_AFFINITY Haswell SINGLE_THREADED
        Core in use  :  Haswell
   Copyright (c) 2011-2014, The OpenBLAS Project




***************************************
The coordinates will be read from file: C2H5O_2.xyz
***************************************


Your calculation utilizes the geometrical counterpoise correction gCP
Please cite in your paper:
H.Kruse, S. Grimme J.Chem.Phys., 136, (2012), 154101 
   

Your calculation utilizes the atom-pairwise dispersion correction
with the Becke-Johnson damping scheme (D3BJ)
Cite in your paper:
S.Grimme, S.Ehrlich, L.Goerigk, J Comput Chem, (2011), 32, 1456–1465 
S.Grimme, J.Antony, S.Ehrlich and H.Krieg, J.Chem.Phys., 132, (2010), 154104 
   

Your calculation employs the composite approach PBEh-3c.
Please cite in your paper:
S. Grimme, J. G. Brandenburg, C. Bannwarth, A. Hansen J.Chem.Phys., 143, (2015), 054107 
   

================================================================================

----- Orbital basis set information -----
Your calculation utilizes the basis: def2-mSVP

----- AuxJ basis set information -----
Your calculation utilizes the auxiliary basis: def2/J
   F. Weigend, Phys. Chem. Chem. Phys. 8, 1057 (2006).

================================================================================
                                        WARNINGS
                       Please study these warnings very carefully!
================================================================================


INFO   : the flag for use of the SHARK integral package has been found!

================================================================================
                                       INPUT FILE
================================================================================
NAME = pbeh-3c.inp
|  1> ! PBEh-3c def2/J TightSCF DefGrid3
|  2> 
|  3> %maxcore 60000
|  4> 
|  5> %pal
|  6> nprocs 4
|  7> end
|  8> 
|  9> *xyzfile 0 1 C2H5O_2.xyz
| 10> 
| 11>                          ****END OF INPUT****
================================================================================

                       ****************************
                       * Single Point Calculation *
                       ****************************

---------------------------------
CARTESIAN COORDINATES (ANGSTROEM)
---------------------------------
  C     -2.152809    2.069920   -0.002270
  H     -1.806367    2.610066    0.889104
  H     -1.805911    2.608013   -0.894706
  H     -3.251619    2.072249   -0.002544
  C     -1.651760    0.633654   -0.000499
  H     -1.997742    0.087746   -0.896234
  H     -1.998368    0.089740    0.896210
  O     -0.229880    0.708149   -0.000101
  O      0.229893   -0.708014    0.001234
  C      1.651838   -0.633643    0.000630
  H      1.998435   -0.087726    0.896116
  H      1.997768   -0.089768   -0.896353
  C      2.152781   -2.069942    0.002083
  H      1.805787   -2.610049   -0.889119
  H      3.251592   -2.072344    0.001731
  H      1.806361   -2.608051    0.894716

----------------------------
CARTESIAN COORDINATES (A.U.)
----------------------------
  NO LB      ZA    FRAG     MASS         X           Y           Z
   0 C     6.0000    0    12.011   -4.068219    3.911582   -0.004289
   1 H     1.0000    0     1.008   -3.413539    4.932310    1.680163
   2 H     1.0000    0     1.008   -3.412676    4.928430   -1.690748
   3 H     1.0000    0     1.008   -6.144669    3.915984   -0.004807
   4 C     6.0000    0    12.011   -3.121373    1.197433   -0.000943
   5 H     1.0000    0     1.008   -3.775185    0.165815   -1.693637
   6 H     1.0000    0     1.008   -3.776368    0.169584    1.693591
   7 O     8.0000    0    15.999   -0.434410    1.338208   -0.000190
   8 O     8.0000    0    15.999    0.434435   -1.337952    0.002331
   9 C     6.0000    0    12.011    3.121521   -1.197412    0.001191
  10 H     1.0000    0     1.008    3.776494   -0.165778    1.693414
  11 H     1.0000    0     1.008    3.775234   -0.169636   -1.693861
  12 C     6.0000    0    12.011    4.068167   -3.911624    0.003937
  13 H     1.0000    0     1.008    3.412444   -4.932278   -1.680192
  14 H     1.0000    0     1.008    6.144618   -3.916162    0.003272
  15 H     1.0000    0     1.008    3.413527   -4.928503    1.690768

--------------------------------
INTERNAL COORDINATES (ANGSTROEM)
--------------------------------
 C      0   0   0     0.000000000000     0.00000000     0.00000000
 H      1   0   0     1.098329307958     0.00000000     0.00000000
 H      1   2   0     1.098327764471   108.59480780     0.00000000
 H      1   2   3     1.098812302955   108.33576218   242.53669879
 C      1   2   3     1.521155148239   111.06961662   122.41723754
 H      5   1   2     1.104563684947   111.25573117   180.04887619
 H      5   1   2     1.104566287412   111.25552734    58.99062074
 O      5   1   2     1.423829896700   106.23251529   299.51918581
 O      8   5   1     1.488929391804   104.98749404   180.01593913
 C      9   8   5     1.423888361306   104.99260362   179.95825865
 H     10   9   8     1.104558941391   109.80561986    59.58371098
 H     10   9   8     1.104557095252   109.80493938   300.40742062
 C     10   9   8     1.521151597322   106.23344399   179.99556678
 H     13  10   9     1.098345176942   111.06952266    60.48901441
 H     13  10   9     1.098813480516   109.35261931   180.00254362
 H     13  10   9     1.098344417115   111.06992429   299.51651827

---------------------------
INTERNAL COORDINATES (A.U.)
---------------------------
 C      0   0   0     0.000000000000     0.00000000     0.00000000
 H      1   0   0     2.075541596900     0.00000000     0.00000000
 H      1   2   0     2.075538680132   108.59480780     0.00000000
 H      1   2   3     2.076454325169   108.33576218   242.53669879
 C      1   2   3     2.874566637375   111.06961662   122.41723754
 H      5   1   2     2.087322862024   111.25573117   180.04887619
 H      5   1   2     2.087327779970   111.25552734    58.99062074
 O      5   1   2     2.690648566053   106.23251529   299.51918581
 O      8   5   1     2.813668783256   104.98749404   180.01593913
 C      9   8   5     2.690759048145   104.99260362   179.95825865
 H     10   9   8     2.087313898004   109.80561986    59.58371098
 H     10   9   8     2.087310409306   109.80493938   300.40742062
 C     10   9   8     2.874559927115   106.23344399   179.99556678
 H     13  10   9     2.075571584934   111.06952266    60.48901441
 H     13  10   9     2.076456550436   109.35261931   180.00254362
 H     13  10   9     2.075570149070   111.06992429   299.51651827

---------------------
BASIS SET INFORMATION
---------------------
There are 3 groups of distinct atoms

 Group   1 Type C   : 8s4p1d contracted to 4s2p1d pattern {5111/31/1}
 Group   2 Type H   : 4s contracted to 2s pattern {31}
 Group   3 Type O   : 8s4p1d contracted to 4s2p1d pattern {5111/31/1}

Atom   0C    basis set group =>   1
Atom   1H    basis set group =>   2
Atom   2H    basis set group =>   2
Atom   3H    basis set group =>   2
Atom   4C    basis set group =>   1
Atom   5H    basis set group =>   2
Atom   6H    basis set group =>   2
Atom   7O    basis set group =>   3
Atom   8O    basis set group =>   3
Atom   9C    basis set group =>   1
Atom  10H    basis set group =>   2
Atom  11H    basis set group =>   2
Atom  12C    basis set group =>   1
Atom  13H    basis set group =>   2
Atom  14H    basis set group =>   2
Atom  15H    basis set group =>   2
---------------------------------
AUXILIARY/J BASIS SET INFORMATION
---------------------------------
There are 3 groups of distinct atoms

 Group   1 Type C   : 12s5p4d2f1g contracted to 6s4p3d1f1g pattern {711111/2111/211/2/1}
 Group   2 Type H   : 5s2p1d contracted to 3s1p1d pattern {311/2/1}
 Group   3 Type O   : 12s5p4d2f1g contracted to 6s4p3d1f1g pattern {711111/2111/211/2/1}

Atom   0C    basis set group =>   1
Atom   1H    basis set group =>   2
Atom   2H    basis set group =>   2
Atom   3H    basis set group =>   2
Atom   4C    basis set group =>   1
Atom   5H    basis set group =>   2
Atom   6H    basis set group =>   2
Atom   7O    basis set group =>   3
Atom   8O    basis set group =>   3
Atom   9C    basis set group =>   1
Atom  10H    basis set group =>   2
Atom  11H    basis set group =>   2
Atom  12C    basis set group =>   1
Atom  13H    basis set group =>   2
Atom  14H    basis set group =>   2
Atom  15H    basis set group =>   2


           ************************************************************
           *        Program running with 4 parallel MPI-processes     *
           *              working on a common directory               *
           ************************************************************
------------------------------------------------------------------------------
                           ORCA GTO INTEGRAL CALCULATION
                           -- RI-GTO INTEGRALS CHOSEN --
------------------------------------------------------------------------------
------------------------------------------------------------------------------
                   ___                                                        
                  /   \      - P O W E R E D   B Y -                         
                 /     \                                                     
                 |  |  |   _    _      __       _____    __    __             
                 |  |  |  | |  | |    /  \     |  _  \  |  |  /  |          
                  \  \/   | |  | |   /    \    | | | |  |  | /  /          
                 / \  \   | |__| |  /  /\  \   | |_| |  |  |/  /          
                |  |  |   |  __  | /  /__\  \  |    /   |      \           
                |  |  |   | |  | | |   __   |  |    \   |  |\   \          
                \     /   | |  | | |  |  |  |  | |\  \  |  | \   \       
                 \___/    |_|  |_| |__|  |__|  |_| \__\ |__|  \__/        
                                                                              
                      - O R C A' S   B I G   F R I E N D -                    
                                      &                                       
                       - I N T E G R A L  F E E D E R -                       
                                                                              
 v1 FN, 2020, v2 2021                                                         
------------------------------------------------------------------------------


Reading SHARK input file pbeh-3c.SHARKINP.tmp ... ok
----------------------
SHARK INTEGRAL PACKAGE
----------------------

Number of atoms                             ...     16
Number of basis functions                   ...    110
Number of shells                            ...     62
Maximum angular momentum                    ...      2
Integral batch strategy                     ... SHARK/LIBINT Hybrid
RI-J (if used) integral strategy            ... SPLIT-RIJ (Revised 2003 algorithm where possible)
Printlevel                                  ...      1
Contraction scheme used                     ... SEGMENTED contraction
Coulomb Range Separation                    ... NOT USED
Exchange Range Separation                   ... NOT USED
Finite Nucleus Model                        ... NOT USED
Auxiliary Coulomb fitting basis             ... AVAILABLE
   # of basis functions in Aux-J            ...    404
   # of shells in Aux-J                     ...    140
   Maximum angular momentum in Aux-J        ...      4
Auxiliary J/K fitting basis                 ... NOT available
Auxiliary Correlation fitting basis         ... NOT available
Auxiliary 'external' fitting basis          ... NOT available
Integral threshold                          ...     2.500000e-11
Primitive cut-off                           ...     2.500000e-12
Primitive pair pre-selection threshold      ...     2.500000e-12

Calculating pre-screening integrals         ... done (  0.1 sec) Dimension = 62
Organizing shell pair data                  ... done (  0.3 sec)
Shell pair information
Total number of shell pairs                 ...      1953
Shell pairs after pre-screening             ...      1736
Total number of primitive shell pairs       ...      7129
Primitive shell pairs kept                  ...      4499
          la=0 lb=0:    837 shell pairs
          la=1 lb=0:    500 shell pairs
          la=1 lb=1:     77 shell pairs
          la=2 lb=0:    232 shell pairs
          la=2 lb=1:     70 shell pairs
          la=2 lb=2:     20 shell pairs

Calculating one electron integrals          ... done (  0.0 sec)
Calculating RI/J V-Matrix + Cholesky decomp.... done (  0.4 sec)
Calculating Nuclear repulsion               ... done (  0.0 sec) ENN=    251.006057000480 Eh

SHARK setup successfully completed in   1.9 seconds

Maximum memory used throughout the entire GTOINT-calculation: 10.4 MB


           ************************************************************
           *        Program running with 4 parallel MPI-processes     *
           *              working on a common directory               *
           ************************************************************
-------------------------------------------------------------------------------
                                 ORCA SCF
-------------------------------------------------------------------------------

------------
SCF SETTINGS
------------
Hamiltonian:
 Density Functional     Method          .... DFT(GTOs)
 Exchange Functional    Exchange        .... PBE
   PBE kappa parameter   XKappa         ....  1.024500
   PBE mue parameter    XMuePBE         ....  0.123457
 Correlation Functional Correlation     .... PBE
   PBE beta parameter  CBetaPBE         ....  0.030000
 LDA part of GGA corr.  LDAOpt          .... PW91-LDA
 Gradients option       PostSCFGGA      .... off
 Hybrid DFT is turned on
   Fraction HF Exchange ScalHFX         ....  0.420000
   Scaling of DF-GGA-X  ScalDFX         ....  0.580000
   Scaling of DF-GGA-C  ScalDFC         ....  1.000000
   Scaling of DF-LDA-C  ScalLDAC        ....  1.000000
   Perturbative correction              ....  0.000000
   Density functional embedding theory  .... OFF
 RI-approximation to the Coulomb term is turned on
   Number of AuxJ basis functions       .... 404
   RIJ-ON(X) (HFX calculated with O(N)) .... on
   Number of AuxJ basis functions       .... 404
   RIJ-COSX (HFX calculated with COS-X)).... on


General Settings:
 Integral files         IntName         .... pbeh-3c
 Hartree-Fock type      HFTyp           .... RHF
 Total Charge           Charge          ....    0
 Multiplicity           Mult            ....    1
 Number of Electrons    NEL             ....   50
 Basis Dimension        Dim             ....  110
 Nuclear Repulsion      ENuc            ....    251.0060570005 Eh

Convergence Acceleration:
 DIIS                   CNVDIIS         .... on
   Start iteration      DIISMaxIt       ....    12
   Startup error        DIISStart       ....  0.200000
   # of expansion vecs  DIISMaxEq       ....     5
   Bias factor          DIISBfac        ....   1.050
   Max. coefficient     DIISMaxC        ....  10.000
 Trust-Rad. Augm. Hess. CNVTRAH         .... auto
   Auto Start mean grad. ratio tolernc. ....  1.125000
   Auto Start start iteration           ....    20
   Auto Start num. interpolation iter.  ....    10
   Max. Number of Micro iterations      ....    16
   Max. Number of Macro iterations      .... Maxiter - #DIIS iter
   Number of Davidson start vectors     ....     2
   Converg. threshold I  (grad. norm)   ....   1.000e-05
   Converg. threshold II (energy diff.) ....   1.000e-08
   Grad. Scal. Fac. for Micro threshold ....   0.100
   Minimum threshold for Micro iter.    ....   0.010
   NR start threshold (gradient norm)   ....   0.001
   Initial trust radius                 ....   0.400
   Minimum AH scaling param. (alpha)    ....   1.000
   Maximum AH scaling param. (alpha)    .... 1000.000
   Orbital update algorithm             .... Taylor
   White noise on init. David. guess    .... on
   Maximum white noise                  ....   0.010
   Quad. conv. algorithm                .... NR
   COSX micro iterations for RIJONX calc.... off
 SOSCF                  CNVSOSCF        .... on
   Start iteration      SOSCFMaxIt      ....   150
   Startup grad/error   SOSCFStart      ....  0.003300
 Level Shifting         CNVShift        .... on
   Level shift para.    LevelShift      ....    0.2500
   Turn off err/grad.   ShiftErr        ....    0.0010
 Zerner damping         CNVZerner       .... off
 Static damping         CNVDamp         .... on
   Fraction old density DampFac         ....    0.7000
   Max. Damping (<1)    DampMax         ....    0.9800
   Min. Damping (>=0)   DampMin         ....    0.0000
   Turn off err/grad.   DampErr         ....    0.1000
 Fernandez-Rico         CNVRico         .... off

SCF Procedure:
 Maximum # iterations   MaxIter         ....   125
 SCF integral mode      SCFMode         .... Direct
   Integral package                     .... SHARK and LIBINT hybrid scheme
 Reset frequency        DirectResetFreq ....    20
 Integral Threshold     Thresh          ....  2.500e-11 Eh
 Primitive CutOff       TCut            ....  2.500e-12 Eh

Convergence Tolerance:
 Convergence Check Mode ConvCheckMode   .... Total+1el-Energy
 Convergence forced     ConvForced      .... 0
 Energy Change          TolE            ....  1.000e-08 Eh
 1-El. energy change                    ....  1.000e-05 Eh
 Orbital Gradient       TolG            ....  1.000e-05
 Orbital Rotation angle TolX            ....  1.000e-05
 DIIS Error             TolErr          ....  5.000e-07


Diagonalization of the overlap matrix:
Smallest eigenvalue                        ... 8.343e-03
Time for diagonalization                   ...    0.004 sec
Threshold for overlap eigenvalues          ... 1.000e-08
Number of eigenvalues below threshold      ... 0
Time for construction of square roots      ...    0.320 sec
Total time needed                          ...    0.324 sec

--------------------------------
INITIAL GUESS: MINIMAL BASIS EHT
--------------------------------
The minimal basis has 40 functions
EHT matrix was diagonalized
Basis set overlap was calculated now projecting the orbitals
Using GuessMode=FMatrix for the initial guess
C*T matrix was formed
Effective Fockian was calculated
Effective Fockian was diagonalized
Initial density was built
                      ------------------
                      INITIAL GUESS DONE
                      ------------------
-------------------
DFT GRID GENERATION
-------------------

General Integration Accuracy     IntAcc      ... 4.959
Radial Grid Type                 RadialGrid  ... OptM3 with GC (2021)
Angular Grid (max. ang.)         AngularGrid ... 6 (Lebedev-590)
Angular grid pruning method      GridPruning ... 4 (adaptive)
Weight generation scheme         WeightScheme... Becke
Basis function cutoff            BFCut       ... 1.0000e-11
Integration weight cutoff        WCut        ... 1.0000e-14
Angular grids for H and He will be reduced by one unit
Partially contracted basis set               ... off
Rotationally invariant grid construction     ... off

Total number of grid points                  ...   174112
Total number of batches                      ...     2729
Average number of points per batch           ...       63
Average number of grid points per atom       ...    10882
Time for grid setup =    3.587 sec

--------------------
COSX GRID GENERATION
--------------------

GRIDX 1
-------
General Integration Accuracy     IntAcc      ... 4.020
Radial Grid Type                 RadialGrid  ... OptM3 with GC (2021)
Angular Grid (max. ang.)         AngularGrid ... 2 (Lebedev-110)
Angular grid pruning method      GridPruning ... 4 (adaptive)
Weight generation scheme         WeightScheme... Becke
Basis function cutoff            BFCut       ... 1.0000e-11
Integration weight cutoff        WCut        ... 1.0000e-14
Angular grids for H and He will be reduced by one unit
Partially contracted basis set               ... on
Rotationally invariant grid construction     ... off

Total number of grid points                  ...    18664
Total number of batches                      ...      298
Average number of points per batch           ...       62
Average number of grid points per atom       ...     1166
UseSFitting                                  ... on

GRIDX 2
-------
General Integration Accuracy     IntAcc      ... 4.338
Radial Grid Type                 RadialGrid  ... OptM3 with GC (2021)
Angular Grid (max. ang.)         AngularGrid ... 3 (Lebedev-194)
Angular grid pruning method      GridPruning ... 4 (adaptive)
Weight generation scheme         WeightScheme... Becke
Basis function cutoff            BFCut       ... 1.0000e-11
Integration weight cutoff        WCut        ... 1.0000e-14
Angular grids for H and He will be reduced by one unit
Partially contracted basis set               ... on
Rotationally invariant grid construction     ... off

Total number of grid points                  ...    40858
Total number of batches                      ...      648
Average number of points per batch           ...       63
Average number of grid points per atom       ...     2554
UseSFitting                                  ... on

GRIDX 3
-------
General Integration Accuracy     IntAcc      ... 4.871
Radial Grid Type                 RadialGrid  ... OptM3 with GC (2021)
Angular Grid (max. ang.)         AngularGrid ... 4 (Lebedev-302)
Angular grid pruning method      GridPruning ... 4 (adaptive)
Weight generation scheme         WeightScheme... Becke
Basis function cutoff            BFCut       ... 1.0000e-11
Integration weight cutoff        WCut        ... 1.0000e-14
Angular grids for H and He will be reduced by one unit
Partially contracted basis set               ... on
Rotationally invariant grid construction     ... off

Total number of grid points                  ...    80664
Total number of batches                      ...     1268
Average number of points per batch           ...       63
Average number of grid points per atom       ...     5042
UseSFitting                                  ... on

Time for X-Grid setup             =    3.939 sec

--------------
SCF ITERATIONS
--------------
ITER       Energy         Delta-E        Max-DP      RMS-DP      [F,P]     Damp
               ***  Starting incremental Fock matrix formation  ***
  0   -307.4659579525   0.000000000000 0.13972513  0.00497281  0.3955153 0.7000
  1   -307.6990346968  -0.233076744239 0.07686578  0.00312483  0.2794883 0.7000
                               ***Turning on DIIS***
  2   -307.8361675827  -0.137132885928 0.04205190  0.00185236  0.1972968 0.7000
  3   -307.9296628538  -0.093495271072 0.02412018  0.00117856  0.1390412 0.7000
  4   -307.9957175051  -0.066054651347 0.05831750  0.00291330  0.0974073 0.0000
  5   -308.1536671201  -0.157949614982 0.00676767  0.00028211  0.0079970 0.0000
  6   -308.1538616971  -0.000194577011 0.00217037  0.00008389  0.0043871 0.0000
                      *** Initiating the SOSCF procedure ***
                           *** Shutting down DIIS ***
                      *** Re-Reading the Fockian *** 
                      *** Removing any level shift *** 
ITER      Energy       Delta-E        Grad      Rot      Max-DP    RMS-DP
  7   -308.15392450  -0.0000627980  0.000822  0.000822  0.001287  0.000058
               *** Restarting incremental Fock matrix formation ***
  8   -308.15392390   0.0000005977  0.000128  0.000222  0.000262  0.000011
  9   -308.15392410  -0.0000001994  0.000058  0.000055  0.000129  0.000004
 10   -308.15392421  -0.0000001168  0.000009  0.000015  0.000019  0.000001
 11   -308.15392422  -0.0000000021  0.000010  0.000005  0.000011  0.000000
                 **** Energy Check signals convergence ****
              ***Rediagonalizing the Fockian in SOSCF/NRSCF***

               *****************************************************
               *                     SUCCESS                       *
               *           SCF CONVERGED AFTER  12 CYCLES          *
               *****************************************************

Old exchange energy                            =    -17.047097763 Eh
New exchange energy                            =    -17.047114043 Eh
Exchange energy change after final integration =     -0.000016280 Eh
Total energy after final integration           =   -308.153940497 Eh
Final COS-X integration done in                =     3.683 sec

----------------
TOTAL SCF ENERGY
----------------

Total Energy       :         -308.15394050 Eh           -8385.29502 eV

Components:
Nuclear Repulsion  :          251.00605700 Eh            6830.22205 eV
Electronic Energy  :         -559.15999750 Eh          -15215.51707 eV
One Electron Energy:         -916.87302496 Eh          -24949.38341 eV
Two Electron Energy:          357.71302746 Eh            9733.86634 eV
Max COSX asymmetry :            0.00000071 Eh               0.00002 eV

Virial components:
Potential Energy   :         -613.85435840 Eh          -16703.82630 eV
Kinetic Energy     :          305.70041790 Eh            8318.53128 eV
Virial Ratio       :            2.00802591


DFT components:
N(Alpha)           :       24.999998882099 electrons
N(Beta)            :       24.999998882099 electrons
N(Total)           :       49.999997764198 electrons
E(X)               :      -22.669250966603 Eh       
E(C)               :       -2.160403199227 Eh       
E(XC)              :      -24.829654165830 Eh       
DFET-embed. en.    :        0.000000000000 Eh       

---------------
SCF CONVERGENCE
---------------

  Last Energy change         ...   -7.6494e-10  Tolerance :   1.0000e-08
  Last MAX-Density change    ...    1.3349e-15  Tolerance :   1.0000e-07
  Last RMS-Density change    ...    5.2088e-17  Tolerance :   5.0000e-09
  Last Orbital Gradient      ...    7.4184e-07  Tolerance :   1.0000e-05
  Last Orbital Rotation      ...    1.0898e-06  Tolerance :   1.0000e-05

             **** THE GBW FILE WAS UPDATED (pbeh-3c.gbw) ****
             **** DENSITY pbeh-3c.scfp WAS UPDATED ****
             **** ENERGY FILE WAS UPDATED (pbeh-3c.en.tmp) ****
             **** THE GBW FILE WAS UPDATED (pbeh-3c.gbw) ****
             **** DENSITY pbeh-3c.scfp WAS UPDATED ****
----------------
ORBITAL ENERGIES
----------------

  NO   OCC          E(Eh)            E(eV) 
   0   2.0000     -19.540393      -531.7211 
   1   2.0000     -19.540339      -531.7197 
   2   2.0000     -10.485016      -285.3118 
   3   2.0000     -10.485009      -285.3116 
   4   2.0000     -10.434550      -283.9385 
   5   2.0000     -10.434540      -283.9383 
   6   2.0000      -1.205364       -32.7996 
   7   2.0000      -1.025727       -27.9114 
   8   2.0000      -0.841004       -22.8849 
   9   2.0000      -0.810189       -22.0464 
  10   2.0000      -0.687873       -18.7180 
  11   2.0000      -0.675673       -18.3860 
  12   2.0000      -0.572221       -15.5709 
  13   2.0000      -0.548522       -14.9260 
  14   2.0000      -0.520020       -14.1505 
  15   2.0000      -0.515459       -14.0264 
  16   2.0000      -0.461466       -12.5571 
  17   2.0000      -0.445507       -12.1229 
  18   2.0000      -0.445376       -12.1193 
  19   2.0000      -0.419847       -11.4246 
  20   2.0000      -0.415056       -11.2942 
  21   2.0000      -0.414189       -11.2707 
  22   2.0000      -0.381403       -10.3785 
  23   2.0000      -0.362545        -9.8653 
  24   2.0000      -0.289998        -7.8913 
  25   0.0000       0.062332         1.6961 
  26   0.0000       0.156810         4.2670 
  27   0.0000       0.166033         4.5180 
  28   0.0000       0.168993         4.5985 
  29   0.0000       0.203082         5.5261 
  30   0.0000       0.204998         5.5783 
  31   0.0000       0.209256         5.6941 
  32   0.0000       0.211709         5.7609 
  33   0.0000       0.222706         6.0601 
  34   0.0000       0.231762         6.3066 
  35   0.0000       0.234755         6.3880 
  36   0.0000       0.240588         6.5467 
  37   0.0000       0.248692         6.7672 
  38   0.0000       0.268229         7.2989 
  39   0.0000       0.270200         7.3525 
  40   0.0000       0.505377        13.7520 
  41   0.0000       0.505934        13.7672 
  42   0.0000       0.530823        14.4444 
  43   0.0000       0.532727        14.4962 
  44   0.0000       0.555874        15.1261 
  45   0.0000       0.561794        15.2872 
  46   0.0000       0.583594        15.8804 
  47   0.0000       0.598232        16.2787 
  48   0.0000       0.613531        16.6950 
  49   0.0000       0.637911        17.3584 
  50   0.0000       0.669927        18.2296 
  51   0.0000       0.688111        18.7244 
  52   0.0000       0.913116        24.8471 
  53   0.0000       0.927393        25.2356 
  54   0.0000       0.971990        26.4492 
  55   0.0000       0.977702        26.6046 
  56   0.0000       0.999726        27.2039 
  57   0.0000       1.009626        27.4733 
  58   0.0000       1.024973        27.8909 
  59   0.0000       1.029315        28.0091 
  60   0.0000       1.031805        28.0768 
  61   0.0000       1.032296        28.0902 
  62   0.0000       1.063452        28.9380 
  63   0.0000       1.064277        28.9605 
  64   0.0000       1.123862        30.5818 
  65   0.0000       1.146907        31.2089 
  66   0.0000       1.193876        32.4870 
  67   0.0000       1.196787        32.5662 
  68   0.0000       1.281767        34.8786 
  69   0.0000       1.328662        36.1547 
  70   0.0000       1.456451        39.6320 
  71   0.0000       1.470053        40.0022 
  72   0.0000       1.471080        40.0301 
  73   0.0000       1.490841        40.5678 
  74   0.0000       1.513925        41.1960 
  75   0.0000       1.627183        44.2779 
  76   0.0000       1.743791        47.4510 
  77   0.0000       1.803886        49.0862 
  78   0.0000       1.834520        49.9198 
  79   0.0000       1.925240        52.3884 
  80   0.0000       1.925392        52.3926 
  81   0.0000       1.930338        52.5272 
  82   0.0000       1.964353        53.4528 
  83   0.0000       1.992459        54.2176 
  84   0.0000       2.005404        54.5698 
  85   0.0000       2.094317        56.9893 
  86   0.0000       2.146618        58.4124 
  87   0.0000       2.186182        59.4890 
  88   0.0000       2.193904        59.6992 
  89   0.0000       2.226017        60.5730 
  90   0.0000       2.279328        62.0237 
  91   0.0000       2.311388        62.8961 
  92   0.0000       2.324460        63.2518 
  93   0.0000       2.404640        65.4336 
  94   0.0000       2.422158        65.9103 
  95   0.0000       2.425955        66.0136 
  96   0.0000       2.509255        68.2803 
  97   0.0000       2.513738        68.4023 
  98   0.0000       2.548284        69.3423 
  99   0.0000       2.654302        72.2272 
 100   0.0000       2.771208        75.4084 
 101   0.0000       2.909694        79.1768 
 102   0.0000       2.932276        79.7913 
 103   0.0000       3.303889        89.9034 
 104   0.0000      13.650503       371.4491 
 105   0.0000      13.673288       372.0691 
 106   0.0000      13.941720       379.3735 
 107   0.0000      13.945680       379.4812 
 108   0.0000      25.490691       693.6370 
 109   0.0000      25.692034       699.1158 

                    ********************************
                    * MULLIKEN POPULATION ANALYSIS *
                    ********************************

-----------------------
MULLIKEN ATOMIC CHARGES
-----------------------
   0 C :   -0.681663
   1 H :    0.230180
   2 H :    0.230176
   3 H :    0.218735
   4 C :   -0.104717
   5 H :    0.196348
   6 H :    0.196341
   7 O :   -0.285405
   8 O :   -0.285429
   9 C :   -0.104720
  10 H :    0.196360
  11 H :    0.196352
  12 C :   -0.681656
  13 H :    0.230175
  14 H :    0.218740
  15 H :    0.230182
Sum of atomic charges:    0.0000000

--------------------------------
MULLIKEN REDUCED ORBITAL CHARGES
--------------------------------
  0 C s       :     3.394113  s :     3.394113
      pz      :     1.157291  p :     3.251850
      px      :     1.115028
      py      :     0.979532
      dz2     :     0.007566  d :     0.035699
      dxz     :     0.003084
      dyz     :     0.010893
      dx2y2   :     0.010150
      dxy     :     0.004006
  1 H s       :     0.769820  s :     0.769820
  2 H s       :     0.769824  s :     0.769824
  3 H s       :     0.781265  s :     0.781265
  4 C s       :     3.260269  s :     3.260269
      pz      :     1.114475  p :     2.778057
      px      :     0.672180
      py      :     0.991402
      dz2     :     0.010248  d :     0.066391
      dxz     :     0.015851
      dyz     :     0.012146
      dx2y2   :     0.018649
      dxy     :     0.009497
  5 H s       :     0.803652  s :     0.803652
  6 H s       :     0.803659  s :     0.803659
  7 O s       :     3.857801  s :     3.857801
      pz      :     1.920886  p :     4.389998
      px      :     1.344118
      py      :     1.124994
      dz2     :     0.005574  d :     0.037606
      dxz     :     0.004116
      dyz     :     0.004452
      dx2y2   :     0.015763
      dxy     :     0.007702
  8 O s       :     3.857813  s :     3.857813
      pz      :     1.920900  p :     4.390013
      px      :     1.344142
      py      :     1.124971
      dz2     :     0.005574  d :     0.037604
      dxz     :     0.004115
      dyz     :     0.004452
      dx2y2   :     0.015763
      dxy     :     0.007700
  9 C s       :     3.260285  s :     3.260285
      pz      :     1.114487  p :     2.778051
      px      :     0.672163
      py      :     0.991401
      dz2     :     0.010248  d :     0.066384
      dxz     :     0.015848
      dyz     :     0.012145
      dx2y2   :     0.018647
      dxy     :     0.009495
 10 H s       :     0.803640  s :     0.803640
 11 H s       :     0.803648  s :     0.803648
 12 C s       :     3.394117  s :     3.394117
      pz      :     1.157290  p :     3.251839
      px      :     1.115032
      py      :     0.979518
      dz2     :     0.007566  d :     0.035699
      dxz     :     0.003084
      dyz     :     0.010892
      dx2y2   :     0.010151
      dxy     :     0.004005
 13 H s       :     0.769825  s :     0.769825
 14 H s       :     0.781260  s :     0.781260
 15 H s       :     0.769818  s :     0.769818


                     *******************************
                     * LOEWDIN POPULATION ANALYSIS *
                     *******************************

----------------------
LOEWDIN ATOMIC CHARGES
----------------------
   0 C :   -0.374484
   1 H :    0.134957
   2 H :    0.134954
   3 H :    0.134745
   4 C :   -0.098868
   5 H :    0.108063
   6 H :    0.108057
   7 O :   -0.147435
   8 O :   -0.147458
   9 C :   -0.098850
  10 H :    0.108071
  11 H :    0.108066
  12 C :   -0.374482
  13 H :    0.134956
  14 H :    0.134748
  15 H :    0.134960

-------------------------------
LOEWDIN REDUCED ORBITAL CHARGES
-------------------------------
  0 C s       :     2.962231  s :     2.962231
      pz      :     1.143947  p :     3.346104
      px      :     1.121504
      py      :     1.080654
      dz2     :     0.013167  d :     0.066149
      dxz     :     0.004735
      dyz     :     0.019980
      dx2y2   :     0.019781
      dxy     :     0.008485
  1 H s       :     0.865043  s :     0.865043
  2 H s       :     0.865046  s :     0.865046
  3 H s       :     0.865255  s :     0.865255
  4 C s       :     2.924083  s :     2.924083
      pz      :     1.116474  p :     3.035014
      px      :     0.826088
      py      :     1.092452
      dz2     :     0.020320  d :     0.139771
      dxz     :     0.032367
      dyz     :     0.022255
      dx2y2   :     0.043138
      dxy     :     0.021692
  5 H s       :     0.891937  s :     0.891937
  6 H s       :     0.891943  s :     0.891943
  7 O s       :     3.567140  s :     3.567140
      pz      :     1.919186  p :     4.497450
      px      :     1.386451
      py      :     1.191812
      dz2     :     0.010580  d :     0.082845
      dxz     :     0.009017
      dyz     :     0.010436
      dx2y2   :     0.033799
      dxy     :     0.019014
  8 O s       :     3.567162  s :     3.567162
      pz      :     1.919201  p :     4.497458
      px      :     1.386465
      py      :     1.191791
      dz2     :     0.010579  d :     0.082839
      dxz     :     0.009015
      dyz     :     0.010436
      dx2y2   :     0.033798
      dxy     :     0.019010
  9 C s       :     2.924098  s :     2.924098
      pz      :     1.116481  p :     3.034998
      px      :     0.826061
      py      :     1.092456
      dz2     :     0.020320  d :     0.139755
      dxz     :     0.032360
      dyz     :     0.022254
      dx2y2   :     0.043135
      dxy     :     0.021686
 10 H s       :     0.891929  s :     0.891929
 11 H s       :     0.891934  s :     0.891934
 12 C s       :     2.962235  s :     2.962235
      pz      :     1.143945  p :     3.346098
      px      :     1.121506
      py      :     1.080647
      dz2     :     0.013167  d :     0.066148
      dxz     :     0.004736
      dyz     :     0.019979
      dx2y2   :     0.019782
      dxy     :     0.008485
 13 H s       :     0.865044  s :     0.865044
 14 H s       :     0.865252  s :     0.865252
 15 H s       :     0.865040  s :     0.865040


                      *****************************
                      * MAYER POPULATION ANALYSIS *
                      *****************************

  NA   - Mulliken gross atomic population
  ZA   - Total nuclear charge
  QA   - Mulliken gross atomic charge
  VA   - Mayer's total valence
  BVA  - Mayer's bonded valence
  FA   - Mayer's free valence

  ATOM       NA         ZA         QA         VA         BVA        FA
  0 C      6.6817     6.0000    -0.6817     3.7406     3.7406     0.0000
  1 H      0.7698     1.0000     0.2302     0.9095     0.9095     0.0000
  2 H      0.7698     1.0000     0.2302     0.9095     0.9095     0.0000
  3 H      0.7813     1.0000     0.2187     0.9131     0.9131     0.0000
  4 C      6.1047     6.0000    -0.1047     3.7226     3.7226     0.0000
  5 H      0.8037     1.0000     0.1963     0.9079     0.9079     0.0000
  6 H      0.8037     1.0000     0.1963     0.9079     0.9079     0.0000
  7 O      8.2854     8.0000    -0.2854     1.9468     1.9468     0.0000
  8 O      8.2854     8.0000    -0.2854     1.9468     1.9468     0.0000
  9 C      6.1047     6.0000    -0.1047     3.7225     3.7225     0.0000
 10 H      0.8036     1.0000     0.1964     0.9079     0.9079     0.0000
 11 H      0.8036     1.0000     0.1964     0.9079     0.9079     0.0000
 12 C      6.6817     6.0000    -0.6817     3.7406     3.7406     0.0000
 13 H      0.7698     1.0000     0.2302     0.9095     0.9095     0.0000
 14 H      0.7813     1.0000     0.2187     0.9131     0.9131     0.0000
 15 H      0.7698     1.0000     0.2302     0.9095     0.9095     0.0000

  Mayer bond orders larger than 0.100000
B(  0-C ,  1-H ) :   0.9196 B(  0-C ,  2-H ) :   0.9196 B(  0-C ,  3-H ) :   0.9231 
B(  0-C ,  4-C ) :   0.9820 B(  4-C ,  5-H ) :   0.9020 B(  4-C ,  6-H ) :   0.9020 
B(  4-C ,  7-O ) :   0.9320 B(  7-O ,  8-O ) :   0.9344 B(  8-O ,  9-C ) :   0.9320 
B(  9-C , 10-H ) :   0.9020 B(  9-C , 11-H ) :   0.9021 B(  9-C , 12-C ) :   0.9820 
B( 12-C , 13-H ) :   0.9196 B( 12-C , 14-H ) :   0.9231 B( 12-C , 15-H ) :   0.9196 


-------
TIMINGS
-------

Total SCF time: 0 days 0 hours 1 min 17 sec 

Total time                  ....      77.491 sec
Sum of individual times     ....      68.623 sec  ( 88.6%)

Fock matrix formation       ....      54.840 sec  ( 70.8%)
  Split-RI-J                ....       6.615 sec  ( 12.1% of F)
  Chain of spheres X        ....      18.673 sec  ( 34.1% of F)
  XC integration            ....      15.957 sec  ( 29.1% of F)
    Basis function eval.    ....       2.812 sec  ( 17.6% of XC)
    Density eval.           ....       1.653 sec  ( 10.4% of XC)
    XC-Functional eval.     ....       1.246 sec  (  7.8% of XC)
    XC-Potential eval.      ....       0.774 sec  (  4.9% of XC)
Diagonalization             ....       1.002 sec  (  1.3%)
Density matrix formation    ....       0.089 sec  (  0.1%)
Population analysis         ....       1.255 sec  (  1.6%)
Initial guess               ....       0.151 sec  (  0.2%)
Orbital Transformation      ....       0.000 sec  (  0.0%)
Orbital Orthonormalization  ....       0.000 sec  (  0.0%)
DIIS solution               ....       3.115 sec  (  4.0%)
SOSCF solution              ....       0.644 sec  (  0.8%)
Grid generation             ....       7.526 sec  (  9.7%)

Maximum memory used throughout the entire SCF-calculation: 52.7 MB


-------------------------------------------------------------------------------
                          DFT DISPERSION CORRECTION                            
                                                                               
                              DFTD3 V3.1  Rev 1                                
                          USING Becke-Johnson damping                          
-------------------------------------------------------------------------------
The PBEh-3c composite method is recognized
Using three-body term ABC
Active option DFTDOPT                   ...         4   

molecular C6(AA) [au] = 1676.915552 


            DFT-D V3
 parameters
 s6 scaling factor         :     1.0000 
 a1 scaling factor         :     0.4860 
 s8 scaling factor         :     0.0000 
 a2 scaling factor         :     4.5000 
 Damping factor alpha9(ATM):    16.0000 
 ad hoc parameters k1-k3   :    16.0000     1.3333    -4.0000 

 Edisp/kcal,au: -3.414423313928  -0.005441229321 
 E6   /kcal   :  -3.413912990 
 E8   /kcal   :  -0.000000000 
 E6(ABC)      :  -0.000510324 
 % E8         :   0.000000000 
 % E6(ABC)    :   0.014946121 

-------------------------   ----------------
Dispersion correction           -0.005441229
-------------------------   ----------------

------------------   -----------------
gCP correction             0.038147648
------------------   -----------------

-------------------------   --------------------
FINAL SINGLE POINT ENERGY      -308.121234078242
-------------------------   --------------------


                            ***************************************
                            *     ORCA property calculations      *
                            ***************************************

                                    ---------------------
                                    Active property flags
                                    ---------------------
   (+) Dipole Moment


------------------------------------------------------------------------------
                       ORCA ELECTRIC PROPERTIES CALCULATION
------------------------------------------------------------------------------

Dipole Moment Calculation                       ... on
Quadrupole Moment Calculation                   ... off
Polarizability Calculation                      ... off
GBWName                                         ... pbeh-3c.gbw
Electron density                                ... pbeh-3c.scfp
The origin for moment calculation is the CENTER OF MASS  = ( 0.000016,  0.000040  0.000343)

-------------
DIPOLE MOMENT
-------------
                                X             Y             Z
Electronic contribution:      0.00025       0.00023       0.00221
Nuclear contribution   :     -0.00014      -0.00031      -0.00270
                        -----------------------------------------
Total Dipole Moment    :      0.00011      -0.00008      -0.00049
                        -----------------------------------------
Magnitude (a.u.)       :      0.00051
Magnitude (Debye)      :      0.00130



--------------------
Rotational spectrum 
--------------------
 
Rotational constants in cm-1:     0.567972     0.044705     0.042799 
Rotational constants in MHz : 17027.367091  1340.211028  1283.087287 

 Dipole components along the rotational axes: 
x,y,z [a.u.] :    -0.000136     0.000008    -0.000491 
x,y,z [Debye]:    -0.000347     0.000020    -0.001248 

 

Timings for individual modules:

Sum of individual times         ...       81.096 sec (=   1.352 min)
GTO integral calculation        ...        2.424 sec (=   0.040 min)   3.0 %
SCF iterations                  ...       78.673 sec (=   1.311 min)  97.0 %
                             ****ORCA TERMINATED NORMALLY****
TOTAL RUN TIME: 0 days 0 hours 1 minutes 27 seconds 507 msec
