
                                 *****************
                                 * O   R   C   A *
                                 *****************

                                            #,                                       
                                            ###                                      
                                            ####                                     
                                            #####                                    
                                            ######                                   
                                           ########,                                 
                                     ,,################,,,,,                         
                               ,,#################################,,                 
                          ,,##########################################,,             
                       ,#########################################, ''#####,          
                    ,#############################################,,   '####,        
                  ,##################################################,,,,####,       
                ,###########''''           ''''###############################       
              ,#####''   ,,,,##########,,,,          '''####'''          '####       
            ,##' ,,,,###########################,,,                        '##       
           ' ,,###''''                  '''############,,,                           
         ,,##''                                '''############,,,,        ,,,,,,###''
      ,#''                                            '''#######################'''  
     '                                                          ''''####''''         
             ,#######,   #######,   ,#######,      ##                                
            ,#'     '#,  ##    ##  ,#'     '#,    #''#        ######   ,####,        
            ##       ##  ##   ,#'  ##            #'  '#       #        #'  '#        
            ##       ##  #######   ##           ,######,      #####,   #    #        
            '#,     ,#'  ##    ##  '#,     ,#' ,#      #,         ##   #,  ,#        
             '#######'   ##     ##  '#######'  #'      '#     #####' # '####'        



                  #######################################################
                  #                        -***-                        #
                  #          Department of theory and spectroscopy      #
                  #    Directorship and core code : Frank Neese         #
                  #        Max Planck Institute fuer Kohlenforschung    #
                  #                Kaiser Wilhelm Platz 1               #
                  #                 D-45470 Muelheim/Ruhr               #
                  #                      Germany                        #
                  #                                                     #
                  #                  All rights reserved                #
                  #                        -***-                        #
                  #######################################################


                         Program Version 5.0.3 -  RELEASE  -


 With contributions from (in alphabetic order):
   Daniel Aravena         : Magnetic Suceptibility
   Michael Atanasov       : Ab Initio Ligand Field Theory (pilot matlab implementation)
   Alexander A. Auer      : GIAO ZORA, VPT2 properties, NMR spectrum
   Ute Becker             : Parallelization
   Giovanni Bistoni       : ED, misc. LED, open-shell LED, HFLD
   Martin Brehm           : Molecular dynamics
   Dmytro Bykov           : SCF Hessian
   Vijay G. Chilkuri      : MRCI spin determinant printing, contributions to CSF-ICE
   Dipayan Datta          : RHF DLPNO-CCSD density
   Achintya Kumar Dutta   : EOM-CC, STEOM-CC
   Dmitry Ganyushin       : Spin-Orbit,Spin-Spin,Magnetic field MRCI
   Miquel Garcia          : C-PCM and meta-GGA Hessian, CC/C-PCM, Gaussian charge scheme
   Yang Guo               : DLPNO-NEVPT2, F12-NEVPT2, CIM, IAO-localization
   Andreas Hansen         : Spin unrestricted coupled pair/coupled cluster methods
   Benjamin Helmich-Paris : MC-RPA, TRAH-SCF, COSX integrals
   Lee Huntington         : MR-EOM, pCC
   Robert Izsak           : Overlap fitted RIJCOSX, COSX-SCS-MP3, EOM
   Marcus Kettner         : VPT2
   Christian Kollmar      : KDIIS, OOCD, Brueckner-CCSD(T), CCSD density, CASPT2, CASPT2-K
   Simone Kossmann        : Meta GGA functionals, TD-DFT gradient, OOMP2, MP2 Hessian
   Martin Krupicka        : Initial AUTO-CI
   Lucas Lang             : DCDCAS
   Marvin Lechner         : AUTO-CI (C++ implementation), FIC-MRCC
   Dagmar Lenk            : GEPOL surface, SMD
   Dimitrios Liakos       : Extrapolation schemes; Compound Job, initial MDCI parallelization
   Dimitrios Manganas     : Further ROCIS development; embedding schemes
   Dimitrios Pantazis     : SARC Basis sets
   Anastasios Papadopoulos: AUTO-CI, single reference methods and gradients
   Taras Petrenko         : DFT Hessian,TD-DFT gradient, ASA, ECA, R-Raman, ABS, FL, XAS/XES, NRVS
   Peter Pinski           : DLPNO-MP2, DLPNO-MP2 Gradient
   Christoph Reimann      : Effective Core Potentials
   Marius Retegan         : Local ZFS, SOC
   Christoph Riplinger    : Optimizer, TS searches, QM/MM, DLPNO-CCSD(T), (RO)-DLPNO pert. Triples
   Tobias Risthaus        : Range-separated hybrids, TD-DFT gradient, RPA, STAB
   Michael Roemelt        : Original ROCIS implementation
   Masaaki Saitow         : Open-shell DLPNO-CCSD energy and density
   Barbara Sandhoefer     : DKH picture change effects
   Avijit Sen             : IP-ROCIS
   Kantharuban Sivalingam : CASSCF convergence, NEVPT2, FIC-MRCI
   Bernardo de Souza      : ESD, SOC TD-DFT
   Georgi Stoychev        : AutoAux, RI-MP2 NMR, DLPNO-MP2 response
   Willem Van den Heuvel  : Paramagnetic NMR
   Boris Wezisla          : Elementary symmetry handling
   Frank Wennmohs         : Technical directorship


 We gratefully acknowledge several colleagues who have allowed us to
 interface, adapt or use parts of their codes:
   Stefan Grimme, W. Hujo, H. Kruse, P. Pracht,  : VdW corrections, initial TS optimization,
                  C. Bannwarth, S. Ehlert          DFT functionals, gCP, sTDA/sTD-DF
   Ed Valeev, F. Pavosevic, A. Kumar             : LibInt (2-el integral package), F12 methods
   Garnet Chan, S. Sharma, J. Yang, R. Olivares  : DMRG
   Ulf Ekstrom                                   : XCFun DFT Library
   Mihaly Kallay                                 : mrcc  (arbitrary order and MRCC methods)
   Jiri Pittner, Ondrej Demel                    : Mk-CCSD
   Frank Weinhold                                : gennbo (NPA and NBO analysis)
   Christopher J. Cramer and Donald G. Truhlar   : smd solvation model
   Lars Goerigk                                  : TD-DFT with DH, B97 family of functionals
   V. Asgeirsson, H. Jonsson                     : NEB implementation
   FAccTs GmbH                                   : IRC, NEB, NEB-TS, DLPNO-Multilevel, CI-OPT
                                                   MM, QMMM, 2- and 3-layer-ONIOM, Crystal-QMMM,
                                                   LR-CPCM, SF, NACMEs, symmetry and pop. for TD-DFT,
                                                   nearIR, NL-DFT gradient (VV10), updates on ESD,
                                                   ML-optimized integration grids
   S Lehtola, MJT Oliveira, MAL Marques          : LibXC Library
   Liviu Ungur et al                             : ANISO software


 Your calculation uses the libint2 library for the computation of 2-el integrals
 For citations please refer to: http://libint.valeyev.net

 Your ORCA version has been built with support for libXC version: 5.1.0
 For citations please refer to: https://tddft.org/programs/libxc/

 This ORCA versions uses:
   CBLAS   interface :  Fast vector & matrix operations
   LAPACKE interface :  Fast linear algebra routines
   SCALAPACK package :  Parallel linear algebra routines
   Shared memory     :  Shared parallel matrices
   BLAS/LAPACK       :  OpenBLAS 0.3.15  USE64BITINT DYNAMIC_ARCH NO_AFFINITY Haswell SINGLE_THREADED
        Core in use  :  Haswell
   Copyright (c) 2011-2014, The OpenBLAS Project




***************************************
The coordinates will be read from file: P28.xyz
***************************************


Your calculation utilizes the geometrical counterpoise correction gCP
Please cite in your paper:
H.Kruse, S. Grimme J.Chem.Phys., 136, (2012), 154101 
   

Your calculation utilizes the atom-pairwise dispersion correction
with the Becke-Johnson damping scheme (D3BJ)
Cite in your paper:
S.Grimme, S.Ehrlich, L.Goerigk, J Comput Chem, (2011), 32, 1456–1465 
S.Grimme, J.Antony, S.Ehrlich and H.Krieg, J.Chem.Phys., 132, (2010), 154104 
   

Your calculation employs the composite approach PBEh-3c.
Please cite in your paper:
S. Grimme, J. G. Brandenburg, C. Bannwarth, A. Hansen J.Chem.Phys., 143, (2015), 054107 
   

================================================================================

----- Orbital basis set information -----
Your calculation utilizes the basis: def2-mSVP

----- AuxJ basis set information -----
Your calculation utilizes the auxiliary basis: def2/J
   F. Weigend, Phys. Chem. Chem. Phys. 8, 1057 (2006).

================================================================================
                                        WARNINGS
                       Please study these warnings very carefully!
================================================================================


WARNING: your system is open-shell and RHF/RKS was chosen
  ===> : WILL SWITCH to UHF/UKS


INFO   : the flag for use of the SHARK integral package has been found!

================================================================================
                                       INPUT FILE
================================================================================
NAME = pbeh-3c.inp
|  1> ! PBEh-3c def2/J TightSCF DefGrid3
|  2> 
|  3> %maxcore 60000
|  4> 
|  5> %pal
|  6> nprocs 4
|  7> end
|  8> 
|  9> *xyzfile 0 2 P28.xyz
| 10> 
| 11>                          ****END OF INPUT****
================================================================================

                       ****************************
                       * Single Point Calculation *
                       ****************************

---------------------------------
CARTESIAN COORDINATES (ANGSTROEM)
---------------------------------
  C     -1.367790    0.053465    0.000000
  O     -0.184349    0.760930    0.000000
  C      0.976495    0.061895    0.000000
  H     -2.240732    0.679411    0.000000
  H     -1.350128   -1.023347    0.000000
  F      1.980434    0.932319    0.000000
  F      1.093034   -0.732337    1.082899
  F      1.093034   -0.732337   -1.082899

----------------------------
CARTESIAN COORDINATES (A.U.)
----------------------------
  NO LB      ZA    FRAG     MASS         X           Y           Z
   0 C     6.0000    0    12.011   -2.584748    0.101034    0.000000
   1 O     8.0000    0    15.999   -0.348369    1.437949    0.000000
   2 C     6.0000    0    12.011    1.845309    0.116965    0.000000
   3 H     1.0000    0     1.008   -4.234370    1.283901    0.000000
   4 H     1.0000    0     1.008   -2.551372   -1.933845    0.000000
   5 F     9.0000    0    18.998    3.742478    1.761829    0.000000
   6 F     9.0000    0    18.998    2.065536   -1.383917    2.046383
   7 F     9.0000    0    18.998    2.065536   -1.383917   -2.046383

--------------------------------
INTERNAL COORDINATES (ANGSTROEM)
--------------------------------
 C      0   0   0     0.000000000000     0.00000000     0.00000000
 O      1   0   0     1.378781689944     0.00000000     0.00000000
 C      2   1   0     1.355067809550   118.07345675     0.00000000
 H      1   2   3     1.074168249479   113.48634495   180.00000000
 H      1   2   3     1.076956429238   119.93146063     0.00000000
 F      3   2   1     1.328732996274   108.01898338   180.00000000
 F      3   2   1     1.347982391979   112.21059519   299.80371475
 F      3   2   1     1.347982391979   112.21059519    60.19628525

---------------------------
INTERNAL COORDINATES (A.U.)
---------------------------
 C      0   0   0     0.000000000000     0.00000000     0.00000000
 O      1   0   0     2.605519792459     0.00000000     0.00000000
 C      2   1   0     2.560707052941   118.07345675     0.00000000
 H      1   2   3     2.029883813269   113.48634495   180.00000000
 H      1   2   3     2.035152709425   119.93146063     0.00000000
 F      3   2   1     2.510941468063   108.01898338   180.00000000
 F      3   2   1     2.547317554188   112.21059519   299.80371475
 F      3   2   1     2.547317554188   112.21059519    60.19628525

---------------------
BASIS SET INFORMATION
---------------------
There are 4 groups of distinct atoms

 Group   1 Type C   : 8s4p1d contracted to 4s2p1d pattern {5111/31/1}
 Group   2 Type O   : 8s4p1d contracted to 4s2p1d pattern {5111/31/1}
 Group   3 Type H   : 4s contracted to 2s pattern {31}
 Group   4 Type F   : 8s4p1d contracted to 4s2p1d pattern {5111/31/1}

Atom   0C    basis set group =>   1
Atom   1O    basis set group =>   2
Atom   2C    basis set group =>   1
Atom   3H    basis set group =>   3
Atom   4H    basis set group =>   3
Atom   5F    basis set group =>   4
Atom   6F    basis set group =>   4
Atom   7F    basis set group =>   4
---------------------------------
AUXILIARY/J BASIS SET INFORMATION
---------------------------------
There are 4 groups of distinct atoms

 Group   1 Type C   : 12s5p4d2f1g contracted to 6s4p3d1f1g pattern {711111/2111/211/2/1}
 Group   2 Type O   : 12s5p4d2f1g contracted to 6s4p3d1f1g pattern {711111/2111/211/2/1}
 Group   3 Type H   : 5s2p1d contracted to 3s1p1d pattern {311/2/1}
 Group   4 Type F   : 12s5p4d2f1g contracted to 6s4p3d1f1g pattern {711111/2111/211/2/1}

Atom   0C    basis set group =>   1
Atom   1O    basis set group =>   2
Atom   2C    basis set group =>   1
Atom   3H    basis set group =>   3
Atom   4H    basis set group =>   3
Atom   5F    basis set group =>   4
Atom   6F    basis set group =>   4
Atom   7F    basis set group =>   4


           ************************************************************
           *        Program running with 4 parallel MPI-processes     *
           *              working on a common directory               *
           ************************************************************
------------------------------------------------------------------------------
                           ORCA GTO INTEGRAL CALCULATION
                           -- RI-GTO INTEGRALS CHOSEN --
------------------------------------------------------------------------------
------------------------------------------------------------------------------
                   ___                                                        
                  /   \      - P O W E R E D   B Y -                         
                 /     \                                                     
                 |  |  |   _    _      __       _____    __    __             
                 |  |  |  | |  | |    /  \     |  _  \  |  |  /  |          
                  \  \/   | |  | |   /    \    | | | |  |  | /  /          
                 / \  \   | |__| |  /  /\  \   | |_| |  |  |/  /          
                |  |  |   |  __  | /  /__\  \  |    /   |      \           
                |  |  |   | |  | | |   __   |  |    \   |  |\   \          
                \     /   | |  | | |  |  |  |  | |\  \  |  | \   \       
                 \___/    |_|  |_| |__|  |__|  |_| \__\ |__|  \__/        
                                                                              
                      - O R C A' S   B I G   F R I E N D -                    
                                      &                                       
                       - I N T E G R A L  F E E D E R -                       
                                                                              
 v1 FN, 2020, v2 2021                                                         
------------------------------------------------------------------------------


Reading SHARK input file pbeh-3c.SHARKINP.tmp ... ok
----------------------
SHARK INTEGRAL PACKAGE
----------------------

Number of atoms                             ...      8
Number of basis functions                   ...     94
Number of shells                            ...     46
Maximum angular momentum                    ...      2
Integral batch strategy                     ... SHARK/LIBINT Hybrid
RI-J (if used) integral strategy            ... SPLIT-RIJ (Revised 2003 algorithm where possible)
Printlevel                                  ...      1
Contraction scheme used                     ... SEGMENTED contraction
Coulomb Range Separation                    ... NOT USED
Exchange Range Separation                   ... NOT USED
Finite Nucleus Model                        ... NOT USED
Auxiliary Coulomb fitting basis             ... AVAILABLE
   # of basis functions in Aux-J            ...    316
   # of shells in Aux-J                     ...    100
   Maximum angular momentum in Aux-J        ...      4
Auxiliary J/K fitting basis                 ... NOT available
Auxiliary Correlation fitting basis         ... NOT available
Auxiliary 'external' fitting basis          ... NOT available
Integral threshold                          ...     2.500000e-11
Primitive cut-off                           ...     2.500000e-12
Primitive pair pre-selection threshold      ...     2.500000e-12

Calculating pre-screening integrals         ... done (  0.1 sec) Dimension = 46
Organizing shell pair data                  ... done (  0.4 sec)
Shell pair information
Total number of shell pairs                 ...      1081
Shell pairs after pre-screening             ...      1010
Total number of primitive shell pairs       ...      3825
Primitive shell pairs kept                  ...      2706
          la=0 lb=0:    341 shell pairs
          la=1 lb=0:    332 shell pairs
          la=1 lb=1:     78 shell pairs
          la=2 lb=0:    166 shell pairs
          la=2 lb=1:     72 shell pairs
          la=2 lb=2:     21 shell pairs

Calculating one electron integrals          ... done (  0.0 sec)
Calculating RI/J V-Matrix + Cholesky decomp.... done (  0.6 sec)
Calculating Nuclear repulsion               ... done (  0.1 sec) ENN=    269.418155065134 Eh

SHARK setup successfully completed in   2.6 seconds

Maximum memory used throughout the entire GTOINT-calculation: 9.7 MB


           ************************************************************
           *        Program running with 4 parallel MPI-processes     *
           *              working on a common directory               *
           ************************************************************
-------------------------------------------------------------------------------
                                 ORCA SCF
-------------------------------------------------------------------------------

------------
SCF SETTINGS
------------
Hamiltonian:
 Density Functional     Method          .... DFT(GTOs)
 Exchange Functional    Exchange        .... PBE
   PBE kappa parameter   XKappa         ....  1.024500
   PBE mue parameter    XMuePBE         ....  0.123457
 Correlation Functional Correlation     .... PBE
   PBE beta parameter  CBetaPBE         ....  0.030000
 LDA part of GGA corr.  LDAOpt          .... PW91-LDA
 Gradients option       PostSCFGGA      .... off
 Hybrid DFT is turned on
   Fraction HF Exchange ScalHFX         ....  0.420000
   Scaling of DF-GGA-X  ScalDFX         ....  0.580000
   Scaling of DF-GGA-C  ScalDFC         ....  1.000000
   Scaling of DF-LDA-C  ScalLDAC        ....  1.000000
   Perturbative correction              ....  0.000000
   Density functional embedding theory  .... OFF
 RI-approximation to the Coulomb term is turned on
   Number of AuxJ basis functions       .... 316
   RIJ-ON(X) (HFX calculated with O(N)) .... on
   Number of AuxJ basis functions       .... 316
   RIJ-COSX (HFX calculated with COS-X)).... on


General Settings:
 Integral files         IntName         .... pbeh-3c
 Hartree-Fock type      HFTyp           .... UHF
 Total Charge           Charge          ....    0
 Multiplicity           Mult            ....    2
 Number of Electrons    NEL             ....   49
 Basis Dimension        Dim             ....   94
 Nuclear Repulsion      ENuc            ....    269.4181550651 Eh

Convergence Acceleration:
 DIIS                   CNVDIIS         .... on
   Start iteration      DIISMaxIt       ....    12
   Startup error        DIISStart       ....  0.200000
   # of expansion vecs  DIISMaxEq       ....     5
   Bias factor          DIISBfac        ....   1.050
   Max. coefficient     DIISMaxC        ....  10.000
 Trust-Rad. Augm. Hess. CNVTRAH         .... auto
   Auto Start mean grad. ratio tolernc. ....  1.125000
   Auto Start start iteration           ....    20
   Auto Start num. interpolation iter.  ....    10
   Max. Number of Micro iterations      ....    16
   Max. Number of Macro iterations      .... Maxiter - #DIIS iter
   Number of Davidson start vectors     ....     2
   Converg. threshold I  (grad. norm)   ....   1.000e-05
   Converg. threshold II (energy diff.) ....   1.000e-08
   Grad. Scal. Fac. for Micro threshold ....   0.100
   Minimum threshold for Micro iter.    ....   0.010
   NR start threshold (gradient norm)   ....   0.001
   Initial trust radius                 ....   0.400
   Minimum AH scaling param. (alpha)    ....   1.000
   Maximum AH scaling param. (alpha)    .... 1000.000
   Orbital update algorithm             .... Taylor
   White noise on init. David. guess    .... on
   Maximum white noise                  ....   0.010
   Quad. conv. algorithm                .... NR
   COSX micro iterations for RIJONX calc.... off
 SOSCF                  CNVSOSCF        .... off
 Level Shifting         CNVShift        .... on
   Level shift para.    LevelShift      ....    0.2500
   Turn off err/grad.   ShiftErr        ....    0.0010
 Zerner damping         CNVZerner       .... off
 Static damping         CNVDamp         .... on
   Fraction old density DampFac         ....    0.7000
   Max. Damping (<1)    DampMax         ....    0.9800
   Min. Damping (>=0)   DampMin         ....    0.0000
   Turn off err/grad.   DampErr         ....    0.1000
 Fernandez-Rico         CNVRico         .... off

SCF Procedure:
 Maximum # iterations   MaxIter         ....   125
 SCF integral mode      SCFMode         .... Direct
   Integral package                     .... SHARK and LIBINT hybrid scheme
 Reset frequency        DirectResetFreq ....    20
 Integral Threshold     Thresh          ....  2.500e-11 Eh
 Primitive CutOff       TCut            ....  2.500e-12 Eh

Convergence Tolerance:
 Convergence Check Mode ConvCheckMode   .... Total+1el-Energy
 Convergence forced     ConvForced      .... 0
 Energy Change          TolE            ....  1.000e-08 Eh
 1-El. energy change                    ....  1.000e-05 Eh
 DIIS Error             TolErr          ....  5.000e-07


Diagonalization of the overlap matrix:
Smallest eigenvalue                        ... 1.042e-02
Time for diagonalization                   ...    0.002 sec
Threshold for overlap eigenvalues          ... 1.000e-08
Number of eigenvalues below threshold      ... 0
Time for construction of square roots      ...    0.159 sec
Total time needed                          ...    0.269 sec

--------------------------------
INITIAL GUESS: MINIMAL BASIS EHT
--------------------------------
The minimal basis has 32 functions
EHT matrix was diagonalized
Basis set overlap was calculated now projecting the orbitals
Using GuessMode=FMatrix for the initial guess
C*T matrix was formed
Effective Fockian was calculated
Effective Fockian was diagonalized
Initial density was built
                      ------------------
                      INITIAL GUESS DONE
                      ------------------
-------------------
DFT GRID GENERATION
-------------------

General Integration Accuracy     IntAcc      ... 4.959
Radial Grid Type                 RadialGrid  ... OptM3 with GC (2021)
Angular Grid (max. ang.)         AngularGrid ... 6 (Lebedev-590)
Angular grid pruning method      GridPruning ... 4 (adaptive)
Weight generation scheme         WeightScheme... Becke
Basis function cutoff            BFCut       ... 1.0000e-11
Integration weight cutoff        WCut        ... 1.0000e-14
Angular grids for H and He will be reduced by one unit
Partially contracted basis set               ... off
Rotationally invariant grid construction     ... off

Total number of grid points                  ...   104737
Total number of batches                      ...     1641
Average number of points per batch           ...       63
Average number of grid points per atom       ...    13092
Time for grid setup =    2.221 sec

--------------------
COSX GRID GENERATION
--------------------

GRIDX 1
-------
General Integration Accuracy     IntAcc      ... 4.020
Radial Grid Type                 RadialGrid  ... OptM3 with GC (2021)
Angular Grid (max. ang.)         AngularGrid ... 2 (Lebedev-110)
Angular grid pruning method      GridPruning ... 4 (adaptive)
Weight generation scheme         WeightScheme... Becke
Basis function cutoff            BFCut       ... 1.0000e-11
Integration weight cutoff        WCut        ... 1.0000e-14
Angular grids for H and He will be reduced by one unit
Partially contracted basis set               ... on
Rotationally invariant grid construction     ... off

Total number of grid points                  ...    12677
Total number of batches                      ...      201
Average number of points per batch           ...       63
Average number of grid points per atom       ...     1585
UseSFitting                                  ... on

GRIDX 2
-------
General Integration Accuracy     IntAcc      ... 4.338
Radial Grid Type                 RadialGrid  ... OptM3 with GC (2021)
Angular Grid (max. ang.)         AngularGrid ... 3 (Lebedev-194)
Angular grid pruning method      GridPruning ... 4 (adaptive)
Weight generation scheme         WeightScheme... Becke
Basis function cutoff            BFCut       ... 1.0000e-11
Integration weight cutoff        WCut        ... 1.0000e-14
Angular grids for H and He will be reduced by one unit
Partially contracted basis set               ... on
Rotationally invariant grid construction     ... off

Total number of grid points                  ...    28169
Total number of batches                      ...      445
Average number of points per batch           ...       63
Average number of grid points per atom       ...     3521
UseSFitting                                  ... on

GRIDX 3
-------
General Integration Accuracy     IntAcc      ... 4.871
Radial Grid Type                 RadialGrid  ... OptM3 with GC (2021)
Angular Grid (max. ang.)         AngularGrid ... 4 (Lebedev-302)
Angular grid pruning method      GridPruning ... 4 (adaptive)
Weight generation scheme         WeightScheme... Becke
Basis function cutoff            BFCut       ... 1.0000e-11
Integration weight cutoff        WCut        ... 1.0000e-14
Angular grids for H and He will be reduced by one unit
Partially contracted basis set               ... on
Rotationally invariant grid construction     ... off

Total number of grid points                  ...    51553
Total number of batches                      ...      810
Average number of points per batch           ...       63
Average number of grid points per atom       ...     6444
UseSFitting                                  ... on

Time for X-Grid setup             =    4.633 sec

--------------
SCF ITERATIONS
--------------
ITER       Energy         Delta-E        Max-DP      RMS-DP      [F,P]     Damp
               ***  Starting incremental Fock matrix formation  ***
  0   -449.5359847504   0.000000000000 0.09473394  0.00472574  0.3086461 0.7000
  1   -450.2158662500  -0.679881499571 0.04602232  0.00255007  0.1507481 0.7000
                               ***Turning on DIIS***
  2   -450.5310721286  -0.315205878637 0.03615605  0.00136194  0.1085134 0.7000
  3   -450.7420175050  -0.210945376405 0.10064804  0.00297311  0.0764386 0.0000
  4   -451.2465233270  -0.504505821989 0.01333322  0.00039559  0.0113586 0.0000
  5   -451.2488484345  -0.002325107540 0.00539531  0.00012618  0.0038303 0.0000
  6   -451.2491826604  -0.000334225874 0.00297839  0.00005909  0.0032440 0.0000
  7   -451.2492314793  -0.000048818904 0.00134907  0.00003495  0.0013511 0.0000
  8   -451.2492503794  -0.000018900069 0.00135517  0.00002528  0.0008528 0.0000
               *** Restarting incremental Fock matrix formation ***
                                   *** Resetting DIIS ***
  9   -451.2492581731  -0.000007793745 0.00024296  0.00000491  0.0001201 0.0000
 10   -451.2492583491  -0.000000175943 0.00010248  0.00000170  0.0001127 0.0000
 11   -451.2492583953  -0.000000046194 0.00007172  0.00000159  0.0000475 0.0000
 12   -451.2492584175  -0.000000022251 0.00002404  0.00000044  0.0000166 0.0000
 13   -451.2492584169   0.000000000570 0.00000550  0.00000013  0.0000045 0.0000
 14   -451.2492584141   0.000000002796 0.00000112  0.00000004  0.0000014 0.0000
                 **** Energy Check signals convergence ****

               *****************************************************
               *                     SUCCESS                       *
               *           SCF CONVERGED AFTER  15 CYCLES          *
               *****************************************************

Old exchange energy                            =    -20.785861574 Eh
New exchange energy                            =    -20.785874156 Eh
Exchange energy change after final integration =     -0.000012583 Eh
Total energy after final integration           =   -451.249270993 Eh
Final COS-X integration done in                =     1.640 sec

----------------
TOTAL SCF ENERGY
----------------

Total Energy       :         -451.24927099 Eh          -12279.11692 eV

Components:
Nuclear Repulsion  :          269.41815507 Eh            7331.24071 eV
Electronic Energy  :         -720.66742606 Eh          -19610.35763 eV
One Electron Energy:        -1159.90261300 Eh          -31562.55471 eV
Two Electron Energy:          439.23518694 Eh           11952.19707 eV
Max COSX asymmetry :            0.00000088 Eh               0.00002 eV

Virial components:
Potential Energy   :         -899.74292121 Eh          -24483.24959 eV
Kinetic Energy     :          448.49365021 Eh           12204.13267 eV
Virial Ratio       :            2.00614417


DFT components:
N(Alpha)           :       24.999999285537 electrons
N(Beta)            :       23.999999386028 electrons
N(Total)           :       48.999998671566 electrons
E(X)               :      -27.710287435244 Eh       
E(C)               :       -2.258535100706 Eh       
E(XC)              :      -29.968822535950 Eh       
DFET-embed. en.    :        0.000000000000 Eh       

---------------
SCF CONVERGENCE
---------------

  Last Energy change         ...    4.1736e-09  Tolerance :   1.0000e-08
  Last MAX-Density change    ...    0.0000e+00  Tolerance :   1.0000e-07
  Last RMS-Density change    ...    0.0000e+00  Tolerance :   5.0000e-09
  Last DIIS Error            ...    6.1345e-07  Tolerance :   5.0000e-07

             **** THE GBW FILE WAS UPDATED (pbeh-3c.gbw) ****
             **** DENSITY pbeh-3c.scfp WAS UPDATED ****
             **** ENERGY FILE WAS UPDATED (pbeh-3c.en.tmp) ****
----------------------
UHF SPIN CONTAMINATION
----------------------

Warning: in a DFT calculation there is little theoretical justification to 
         calculate <S**2> as in Hartree-Fock theory. We will do it anyways
         but you should keep in mind that the values have only limited relevance

Expectation value of <S**2>     :     0.755031
Ideal value S*(S+1) for S=0.5   :     0.750000
Deviation                       :     0.005031

             **** THE GBW FILE WAS UPDATED (pbeh-3c.gbw) ****
             **** DENSITY pbeh-3c.scfp WAS UPDATED ****
----------------
ORBITAL ENERGIES
----------------
                 SPIN UP ORBITALS
  NO   OCC          E(Eh)            E(eV) 
   0   1.0000     -25.148321      -684.3206 
   1   1.0000     -25.143897      -684.2002 
   2   1.0000     -25.143778      -684.1970 
   3   1.0000     -19.583039      -532.8816 
   4   1.0000     -10.761933      -292.8471 
   5   1.0000     -10.520947      -286.2895 
   6   1.0000      -1.466307       -39.9002 
   7   1.0000      -1.369492       -37.2658 
   8   1.0000      -1.361868       -37.0583 
   9   1.0000      -1.234295       -33.5869 
  10   1.0000      -0.856117       -23.2961 
  11   1.0000      -0.761728       -20.7277 
  12   1.0000      -0.694166       -18.8892 
  13   1.0000      -0.692934       -18.8557 
  14   1.0000      -0.670605       -18.2481 
  15   1.0000      -0.571655       -15.5555 
  16   1.0000      -0.563096       -15.3226 
  17   1.0000      -0.552841       -15.0436 
  18   1.0000      -0.536271       -14.5927 
  19   1.0000      -0.527090       -14.3428 
  20   1.0000      -0.508864       -13.8469 
  21   1.0000      -0.495481       -13.4827 
  22   1.0000      -0.483697       -13.1621 
  23   1.0000      -0.455458       -12.3936 
  24   1.0000      -0.267274        -7.2729 
  25   0.0000       0.140191         3.8148 
  26   0.0000       0.165392         4.5006 
  27   0.0000       0.220838         6.0093 
  28   0.0000       0.226723         6.1694 
  29   0.0000       0.230826         6.2811 
  30   0.0000       0.246054         6.6955 
  31   0.0000       0.335764         9.1366 
  32   0.0000       0.442693        12.0463 
  33   0.0000       0.445084        12.1113 
  34   0.0000       0.474129        12.9017 
  35   0.0000       0.504719        13.7341 
  36   0.0000       0.534642        14.5483 
  37   0.0000       0.536391        14.5959 
  38   0.0000       0.619322        16.8526 
  39   0.0000       0.783522        21.3207 
  40   0.0000       0.911383        24.8000 
  41   0.0000       0.937139        25.5008 
  42   0.0000       0.975918        26.5561 
  43   0.0000       1.006095        27.3772 
  44   0.0000       1.063219        28.9317 
  45   0.0000       1.072618        29.1874 
  46   0.0000       1.111189        30.2370 
  47   0.0000       1.138966        30.9928 
  48   0.0000       1.141070        31.0501 
  49   0.0000       1.159304        31.5463 
  50   0.0000       1.175008        31.9736 
  51   0.0000       1.185452        32.2578 
  52   0.0000       1.211929        32.9783 
  53   0.0000       1.227336        33.3975 
  54   0.0000       1.232370        33.5345 
  55   0.0000       1.251259        34.0485 
  56   0.0000       1.265199        34.4278 
  57   0.0000       1.293344        35.1937 
  58   0.0000       1.316003        35.8103 
  59   0.0000       1.362860        37.0853 
  60   0.0000       1.377391        37.4807 
  61   0.0000       1.490554        40.5600 
  62   0.0000       1.516860        41.2759 
  63   0.0000       1.593876        43.3716 
  64   0.0000       1.665094        45.3095 
  65   0.0000       1.676738        45.6264 
  66   0.0000       1.684001        45.8240 
  67   0.0000       1.765908        48.0528 
  68   0.0000       1.856875        50.5281 
  69   0.0000       1.900769        51.7225 
  70   0.0000       1.942638        52.8619 
  71   0.0000       2.003482        54.5175 
  72   0.0000       2.048156        55.7331 
  73   0.0000       2.074826        56.4589 
  74   0.0000       2.133386        58.0524 
  75   0.0000       2.256712        61.4083 
  76   0.0000       2.275274        61.9134 
  77   0.0000       2.320236        63.1368 
  78   0.0000       2.415736        65.7355 
  79   0.0000       2.484766        67.6139 
  80   0.0000       2.505930        68.1898 
  81   0.0000       2.649167        72.0875 
  82   0.0000       2.650935        72.1356 
  83   0.0000       2.882547        78.4381 
  84   0.0000       2.967149        80.7402 
  85   0.0000       2.997043        81.5537 
  86   0.0000       3.005285        81.7780 
  87   0.0000       3.159585        85.9767 
  88   0.0000      13.617599       370.5537 
  89   0.0000      14.173276       385.6745 
  90   0.0000      25.604086       696.7226 
  91   0.0000      32.695360       889.6860 
  92   0.0000      32.768749       891.6830 
  93   0.0000      33.081827       900.2023 

                 SPIN DOWN ORBITALS
  NO   OCC          E(Eh)            E(eV) 
   0   1.0000     -25.148347      -684.3213 
   1   1.0000     -25.143731      -684.1957 
   2   1.0000     -25.143612      -684.1925 
   3   1.0000     -19.579227      -532.7778 
   4   1.0000     -10.761938      -292.8472 
   5   1.0000     -10.504431      -285.8401 
   6   1.0000      -1.465687       -39.8834 
   7   1.0000      -1.369384       -37.2628 
   8   1.0000      -1.361382       -37.0451 
   9   1.0000      -1.223753       -33.3000 
  10   1.0000      -0.837308       -22.7843 
  11   1.0000      -0.750017       -20.4090 
  12   1.0000      -0.693291       -18.8654 
  13   1.0000      -0.689664       -18.7667 
  14   1.0000      -0.652839       -17.7646 
  15   1.0000      -0.567541       -15.4436 
  16   1.0000      -0.559168       -15.2157 
  17   1.0000      -0.548402       -14.9228 
  18   1.0000      -0.533015       -14.5041 
  19   1.0000      -0.520479       -14.1630 
  20   1.0000      -0.506845       -13.7920 
  21   1.0000      -0.495101       -13.4724 
  22   1.0000      -0.450096       -12.2477 
  23   1.0000      -0.449847       -12.2410 
  24   0.0000      -0.017591        -0.4787 
  25   0.0000       0.159296         4.3347 
  26   0.0000       0.180781         4.9193 
  27   0.0000       0.226216         6.1557 
  28   0.0000       0.231970         6.3122 
  29   0.0000       0.233596         6.3565 
  30   0.0000       0.247055         6.7227 
  31   0.0000       0.340518         9.2660 
  32   0.0000       0.446171        12.1409 
  33   0.0000       0.466158        12.6848 
  34   0.0000       0.475681        12.9439 
  35   0.0000       0.511508        13.9188 
  36   0.0000       0.546937        14.8829 
  37   0.0000       0.598453        16.2847 
  38   0.0000       0.637078        17.3358 
  39   0.0000       0.798816        21.7369 
  40   0.0000       0.916251        24.9325 
  41   0.0000       0.940979        25.6053 
  42   0.0000       0.992988        27.0206 
  43   0.0000       1.008928        27.4543 
  44   0.0000       1.070429        29.1279 
  45   0.0000       1.074544        29.2398 
  46   0.0000       1.115037        30.3417 
  47   0.0000       1.140203        31.0265 
  48   0.0000       1.143637        31.1199 
  49   0.0000       1.160678        31.5836 
  50   0.0000       1.181085        32.1390 
  51   0.0000       1.187740        32.3200 
  52   0.0000       1.216989        33.1160 
  53   0.0000       1.229005        33.4429 
  54   0.0000       1.232714        33.5439 
  55   0.0000       1.251753        34.0619 
  56   0.0000       1.267698        34.4958 
  57   0.0000       1.295487        35.2520 
  58   0.0000       1.316333        35.8192 
  59   0.0000       1.364529        37.1307 
  60   0.0000       1.379390        37.5351 
  61   0.0000       1.518661        41.3249 
  62   0.0000       1.520745        41.3816 
  63   0.0000       1.610705        43.8295 
  64   0.0000       1.667769        45.3823 
  65   0.0000       1.686385        45.8889 
  66   0.0000       1.717407        46.7330 
  67   0.0000       1.770737        48.1842 
  68   0.0000       1.857123        50.5349 
  69   0.0000       1.914114        52.0857 
  70   0.0000       1.951200        53.0949 
  71   0.0000       2.023788        55.0701 
  72   0.0000       2.051969        55.8369 
  73   0.0000       2.087522        56.8044 
  74   0.0000       2.137687        58.1694 
  75   0.0000       2.281197        62.0745 
  76   0.0000       2.287801        62.2542 
  77   0.0000       2.348491        63.9057 
  78   0.0000       2.421194        65.8841 
  79   0.0000       2.489680        67.7476 
  80   0.0000       2.509550        68.2883 
  81   0.0000       2.655141        72.2501 
  82   0.0000       2.659515        72.3691 
  83   0.0000       2.888313        78.5950 
  84   0.0000       2.968021        80.7640 
  85   0.0000       2.999595        81.6231 
  86   0.0000       3.007299        81.8328 
  87   0.0000       3.161401        86.0261 
  88   0.0000      13.640432       371.1750 
  89   0.0000      14.173405       385.6779 
  90   0.0000      25.609009       696.8566 
  91   0.0000      32.695575       889.6918 
  92   0.0000      32.768770       891.6836 
  93   0.0000      33.082013       900.2073 

                    ********************************
                    * MULLIKEN POPULATION ANALYSIS *
                    ********************************

--------------------------------------------
MULLIKEN ATOMIC CHARGES AND SPIN POPULATIONS
--------------------------------------------
   0 C :   -0.258571    1.053435
   1 O :   -0.429850    0.064729
   2 C :    1.094703   -0.000885
   3 H :    0.238770   -0.062636
   4 H :    0.239039   -0.060947
   5 F :   -0.273035   -0.000451
   6 F :   -0.305529    0.003377
   7 F :   -0.305529    0.003377
Sum of atomic charges         :    0.0000000
Sum of atomic spin populations:    1.0000000

-----------------------------------------------------
MULLIKEN REDUCED ORBITAL CHARGES AND SPIN POPULATIONS
-----------------------------------------------------
CHARGE
  0 C s       :     3.276982  s :     3.276982
      pz      :     1.097532  p :     2.929455
      px      :     0.807871
      py      :     1.024052
      dz2     :     0.006424  d :     0.052134
      dxz     :     0.007039
      dyz     :     0.002377
      dx2y2   :     0.016707
      dxy     :     0.019586
  1 O s       :     3.770885  s :     3.770885
      pz      :     1.794086  p :     4.624678
      px      :     1.212601
      py      :     1.617991
      dz2     :     0.004802  d :     0.034287
      dxz     :     0.005897
      dyz     :     0.004342
      dx2y2   :     0.005199
      dxy     :     0.014046
  2 C s       :     2.665142  s :     2.665142
      pz      :     0.660239  p :     2.029921
      px      :     0.700516
      py      :     0.669167
      dz2     :     0.042933  d :     0.210233
      dxz     :     0.028263
      dyz     :     0.054507
      dx2y2   :     0.033183
      dxy     :     0.051346
  3 H s       :     0.761230  s :     0.761230
  4 H s       :     0.760961  s :     0.760961
  5 F s       :     3.899395  s :     3.899395
      pz      :     1.926659  p :     5.348550
      px      :     1.679039
      py      :     1.742852
      dz2     :     0.003673  d :     0.025089
      dxz     :     0.004121
      dyz     :     0.002557
      dx2y2   :     0.005051
      dxy     :     0.009687
  6 F s       :     3.909978  s :     3.909978
      pz      :     1.656830  p :     5.369274
      px      :     1.928310
      py      :     1.784134
      dz2     :     0.006327  d :     0.026278
      dxz     :     0.004479
      dyz     :     0.010031
      dx2y2   :     0.003010
      dxy     :     0.002431
  7 F s       :     3.909978  s :     3.909978
      pz      :     1.656830  p :     5.369274
      px      :     1.928310
      py      :     1.784134
      dz2     :     0.006327  d :     0.026278
      dxz     :     0.004479
      dyz     :     0.010031
      dx2y2   :     0.003010
      dxy     :     0.002431

SPIN
  0 C s       :     0.094677  s :     0.094677
      pz      :     0.899074  p :     0.961390
      px      :     0.023647
      py      :     0.038669
      dz2     :    -0.002876  d :    -0.002632
      dxz     :     0.000405
      dyz     :     0.000177
      dx2y2   :    -0.000117
      dxy     :    -0.000220
  1 O s       :     0.001359  s :     0.001359
      pz      :     0.081951  p :     0.059397
      px      :    -0.015220
      py      :    -0.007333
      dz2     :    -0.000002  d :     0.003972
      dxz     :     0.004310
      dyz     :    -0.000317
      dx2y2   :    -0.000077
      dxy     :     0.000059
  2 C s       :    -0.001906  s :    -0.001906
      pz      :     0.004440  p :    -0.001125
      px      :    -0.004030
      py      :    -0.001535
      dz2     :    -0.000076  d :     0.002147
      dxz     :     0.001005
      dyz     :     0.001388
      dx2y2   :    -0.000063
      dxy     :    -0.000107
  3 H s       :    -0.062636  s :    -0.062636
  4 H s       :    -0.060947  s :    -0.060947
  5 F s       :    -0.000015  s :    -0.000015
      pz      :     0.000951  p :    -0.000511
      px      :    -0.001424
      py      :    -0.000039
      dz2     :    -0.000011  d :     0.000076
      dxz     :     0.000126
      dyz     :    -0.000016
      dx2y2   :    -0.000025
      dxy     :     0.000002
  6 F s       :     0.000006  s :     0.000006
      pz      :     0.000950  p :     0.003307
      px      :    -0.000325
      py      :     0.002682
      dz2     :    -0.000022  d :     0.000064
      dxz     :     0.000009
      dyz     :    -0.000017
      dx2y2   :     0.000042
      dxy     :     0.000052
  7 F s       :     0.000006  s :     0.000006
      pz      :     0.000950  p :     0.003307
      px      :    -0.000325
      py      :     0.002682
      dz2     :    -0.000022  d :     0.000064
      dxz     :     0.000009
      dyz     :    -0.000017
      dx2y2   :     0.000042
      dxy     :     0.000052


                     *******************************
                     * LOEWDIN POPULATION ANALYSIS *
                     *******************************

-------------------------------------------
LOEWDIN ATOMIC CHARGES AND SPIN POPULATIONS
-------------------------------------------
   0 C :   -0.152202    0.940530
   1 O :   -0.114642    0.107619
   2 C :    0.348138    0.006258
   3 H :    0.140425   -0.031153
   4 H :    0.134802   -0.030789
   5 F :   -0.096938   -0.000002
   6 F :   -0.129791    0.003767
   7 F :   -0.129791    0.003767

----------------------------------------------------
LOEWDIN REDUCED ORBITAL CHARGES AND SPIN POPULATIONS
----------------------------------------------------
CHARGE
  0 C s       :     3.000874  s :     3.000874
      pz      :     1.093066  p :     3.044679
      px      :     0.894702
      py      :     1.056912
      dz2     :     0.009925  d :     0.106649
      dxz     :     0.015118
      dyz     :     0.005140
      dx2y2   :     0.034577
      dxy     :     0.041888
  1 O s       :     3.418351  s :     3.418351
      pz      :     1.747056  p :     4.623158
      px      :     1.252166
      py      :     1.623937
      dz2     :     0.008446  d :     0.073132
      dxz     :     0.014323
      dyz     :     0.005987
      dx2y2   :     0.014054
      dxy     :     0.030321
  2 C s       :     2.722171  s :     2.722171
      pz      :     0.800354  p :     2.460493
      px      :     0.840692
      py      :     0.819447
      dz2     :     0.097773  d :     0.469199
      dxz     :     0.057430
      dyz     :     0.125280
      dx2y2   :     0.070194
      dxy     :     0.118522
  3 H s       :     0.859575  s :     0.859575
  4 H s       :     0.865198  s :     0.865198
  5 F s       :     3.704094  s :     3.704094
      pz      :     1.898265  p :     5.318370
      px      :     1.682963
      py      :     1.737143
      dz2     :     0.009973  d :     0.074474
      dxz     :     0.009698
      dyz     :     0.010678
      dx2y2   :     0.018043
      dxy     :     0.026082
  6 F s       :     3.719437  s :     3.719437
      pz      :     1.659343  p :     5.336766
      px      :     1.902510
      py      :     1.774913
      dz2     :     0.020186  d :     0.073588
      dxz     :     0.010913
      dyz     :     0.025616
      dx2y2   :     0.007136
      dxy     :     0.009737
  7 F s       :     3.719437  s :     3.719437
      pz      :     1.659343  p :     5.336766
      px      :     1.902510
      py      :     1.774913
      dz2     :     0.020186  d :     0.073588
      dxz     :     0.010913
      dyz     :     0.025616
      dx2y2   :     0.007136
      dxy     :     0.009737

SPIN
  0 C s       :     0.043184  s :     0.043184
      pz      :     0.864946  p :     0.898496
      px      :     0.014472
      py      :     0.019077
      dz2     :    -0.002531  d :    -0.001150
      dxz     :     0.002281
      dyz     :     0.000784
      dx2y2   :    -0.000815
      dxy     :    -0.000869
  1 O s       :     0.002998  s :     0.002998
      pz      :     0.101214  p :     0.091254
      px      :    -0.005644
      py      :    -0.004316
      dz2     :     0.000215  d :     0.013367
      dxz     :     0.010478
      dyz     :     0.001688
      dx2y2   :     0.000326
      dxy     :     0.000660
  2 C s       :    -0.000660  s :    -0.000660
      pz      :     0.004113  p :     0.001842
      px      :    -0.001333
      py      :    -0.000938
      dz2     :    -0.000053  d :     0.005076
      dxz     :     0.002452
      dyz     :     0.002857
      dx2y2   :    -0.000078
      dxy     :    -0.000102
  3 H s       :    -0.031153  s :    -0.031153
  4 H s       :    -0.030789  s :    -0.030789
  5 F s       :    -0.000065  s :    -0.000065
      pz      :     0.001125  p :    -0.000278
      px      :    -0.001348
      py      :    -0.000055
      dz2     :    -0.000026  d :     0.000341
      dxz     :     0.000492
      dyz     :    -0.000020
      dx2y2   :    -0.000110
      dxy     :     0.000005
  6 F s       :     0.000012  s :     0.000012
      pz      :     0.000806  p :     0.003054
      px      :    -0.000379
      py      :     0.002627
      dz2     :    -0.000033  d :     0.000701
      dxz     :     0.000011
      dyz     :     0.000168
      dx2y2   :     0.000404
      dxy     :     0.000151
  7 F s       :     0.000012  s :     0.000012
      pz      :     0.000806  p :     0.003054
      px      :    -0.000379
      py      :     0.002627
      dz2     :    -0.000033  d :     0.000701
      dxz     :     0.000011
      dyz     :     0.000168
      dx2y2   :     0.000404
      dxy     :     0.000151


                      *****************************
                      * MAYER POPULATION ANALYSIS *
                      *****************************

  NA   - Mulliken gross atomic population
  ZA   - Total nuclear charge
  QA   - Mulliken gross atomic charge
  VA   - Mayer's total valence
  BVA  - Mayer's bonded valence
  FA   - Mayer's free valence

  ATOM       NA         ZA         QA         VA         BVA        FA
  0 C      6.2586     6.0000    -0.2586     3.7277     2.9006     0.8271
  1 O      8.4298     8.0000    -0.4298     2.1701     2.1580     0.0122
  2 C      4.9053     6.0000     1.0947     4.1571     4.1570     0.0001
  3 H      0.7612     1.0000     0.2388     0.9213     0.9174     0.0038
  4 H      0.7610     1.0000     0.2390     0.9134     0.9098     0.0036
  5 F      9.2730     9.0000    -0.2730     1.1426     1.1426     0.0000
  6 F      9.3055     9.0000    -0.3055     1.1058     1.1058     0.0000
  7 F      9.3055     9.0000    -0.3055     1.1058     1.1058     0.0000

  Mayer bond orders larger than 0.100000
B(  0-C ,  1-O ) :   1.0331 B(  0-C ,  3-H ) :   0.9126 B(  0-C ,  4-H ) :   0.8949 
B(  1-O ,  2-C ) :   1.0544 B(  2-C ,  5-F ) :   1.0568 B(  2-C ,  6-F ) :   1.0073 
B(  2-C ,  7-F ) :   1.0073 

-------
TIMINGS
-------

Total SCF time: 0 days 0 hours 2 min 35 sec 

Total time                  ....     155.884 sec
Sum of individual times     ....     142.930 sec  ( 91.7%)

Fock matrix formation       ....     119.543 sec  ( 76.7%)
  Split-RI-J                ....      10.463 sec  (  8.8% of F)
  Chain of spheres X        ....      18.331 sec  ( 15.3% of F)
  XC integration            ....      38.541 sec  ( 32.2% of F)
    Basis function eval.    ....       1.690 sec  (  4.4% of XC)
    Density eval.           ....       2.659 sec  (  6.9% of XC)
    XC-Functional eval.     ....       1.568 sec  (  4.1% of XC)
    XC-Potential eval.      ....       1.340 sec  (  3.5% of XC)
Diagonalization             ....       4.170 sec  (  2.7%)
Density matrix formation    ....       0.203 sec  (  0.1%)
Population analysis         ....       1.829 sec  (  1.2%)
Initial guess               ....       0.049 sec  (  0.0%)
Orbital Transformation      ....       0.000 sec  (  0.0%)
Orbital Orthonormalization  ....       0.000 sec  (  0.0%)
DIIS solution               ....      10.283 sec  (  6.6%)
Grid generation             ....       6.854 sec  (  4.4%)

Maximum memory used throughout the entire SCF-calculation: 49.0 MB


-------------------------------------------------------------------------------
                          DFT DISPERSION CORRECTION                            
                                                                               
                              DFTD3 V3.1  Rev 1                                
                          USING Becke-Johnson damping                          
-------------------------------------------------------------------------------
The PBEh-3c composite method is recognized
Using three-body term ABC
Active option DFTDOPT                   ...         4   

molecular C6(AA) [au] = 563.909590 


            DFT-D V3
 parameters
 s6 scaling factor         :     1.0000 
 a1 scaling factor         :     0.4860 
 s8 scaling factor         :     0.0000 
 a2 scaling factor         :     4.5000 
 Damping factor alpha9(ATM):    16.0000 
 ad hoc parameters k1-k3   :    16.0000     1.3333    -4.0000 

 Edisp/kcal,au: -1.459789717180  -0.002326322744 
 E6   /kcal   :  -1.461932735 
 E8   /kcal   :  -0.000000000 
 E6(ABC)      :   0.002143018 
 % E8         :   0.000000000 
 % E6(ABC)    :  -0.146803204 

-------------------------   ----------------
Dispersion correction           -0.002326323
-------------------------   ----------------

------------------   -----------------
gCP correction             0.035350545
------------------   -----------------

-------------------------   --------------------
FINAL SINGLE POINT ENERGY      -451.216246769917
-------------------------   --------------------


                            ***************************************
                            *     ORCA property calculations      *
                            ***************************************

                                    ---------------------
                                    Active property flags
                                    ---------------------
   (+) Dipole Moment


------------------------------------------------------------------------------
                       ORCA ELECTRIC PROPERTIES CALCULATION
------------------------------------------------------------------------------

Dipole Moment Calculation                       ... on
Quadrupole Moment Calculation                   ... off
Polarizability Calculation                      ... off
GBWName                                         ... pbeh-3c.gbw
Electron density                                ... pbeh-3c.scfp
The origin for moment calculation is the CENTER OF MASS  = ( 1.295420,  0.059142  0.000000)

-------------
DIPOLE MOMENT
-------------
                                X             Y             Z
Electronic contribution:      5.94251      -0.38072      -0.00000
Nuclear contribution   :     -6.62295       0.20963       0.00000
                        -----------------------------------------
Total Dipole Moment    :     -0.68044      -0.17108      -0.00000
                        -----------------------------------------
Magnitude (a.u.)       :      0.70162
Magnitude (Debye)      :      1.78338



--------------------
Rotational spectrum 
--------------------
 
Rotational constants in cm-1:     0.182806     0.105828     0.103806 
Rotational constants in MHz :  5480.385540  3172.634264  3112.022733 

 Dipole components along the rotational axes: 
x,y,z [a.u.] :     0.680443    -0.171084    -0.000000 
x,y,z [Debye]:     1.729548    -0.434862    -0.000000 

 

Timings for individual modules:

Sum of individual times         ...      160.904 sec (=   2.682 min)
GTO integral calculation        ...        3.925 sec (=   0.065 min)   2.4 %
SCF iterations                  ...      156.978 sec (=   2.616 min)  97.6 %
                             ****ORCA TERMINATED NORMALLY****
TOTAL RUN TIME: 0 days 0 hours 2 minutes 59 seconds 336 msec
