
                                 *****************
                                 * O   R   C   A *
                                 *****************

                                            #,                                       
                                            ###                                      
                                            ####                                     
                                            #####                                    
                                            ######                                   
                                           ########,                                 
                                     ,,################,,,,,                         
                               ,,#################################,,                 
                          ,,##########################################,,             
                       ,#########################################, ''#####,          
                    ,#############################################,,   '####,        
                  ,##################################################,,,,####,       
                ,###########''''           ''''###############################       
              ,#####''   ,,,,##########,,,,          '''####'''          '####       
            ,##' ,,,,###########################,,,                        '##       
           ' ,,###''''                  '''############,,,                           
         ,,##''                                '''############,,,,        ,,,,,,###''
      ,#''                                            '''#######################'''  
     '                                                          ''''####''''         
             ,#######,   #######,   ,#######,      ##                                
            ,#'     '#,  ##    ##  ,#'     '#,    #''#        ######   ,####,        
            ##       ##  ##   ,#'  ##            #'  '#       #        #'  '#        
            ##       ##  #######   ##           ,######,      #####,   #    #        
            '#,     ,#'  ##    ##  '#,     ,#' ,#      #,         ##   #,  ,#        
             '#######'   ##     ##  '#######'  #'      '#     #####' # '####'        



                  #######################################################
                  #                        -***-                        #
                  #          Department of theory and spectroscopy      #
                  #    Directorship and core code : Frank Neese         #
                  #        Max Planck Institute fuer Kohlenforschung    #
                  #                Kaiser Wilhelm Platz 1               #
                  #                 D-45470 Muelheim/Ruhr               #
                  #                      Germany                        #
                  #                                                     #
                  #                  All rights reserved                #
                  #                        -***-                        #
                  #######################################################


                         Program Version 5.0.3 -  RELEASE  -


 With contributions from (in alphabetic order):
   Daniel Aravena         : Magnetic Suceptibility
   Michael Atanasov       : Ab Initio Ligand Field Theory (pilot matlab implementation)
   Alexander A. Auer      : GIAO ZORA, VPT2 properties, NMR spectrum
   Ute Becker             : Parallelization
   Giovanni Bistoni       : ED, misc. LED, open-shell LED, HFLD
   Martin Brehm           : Molecular dynamics
   Dmytro Bykov           : SCF Hessian
   Vijay G. Chilkuri      : MRCI spin determinant printing, contributions to CSF-ICE
   Dipayan Datta          : RHF DLPNO-CCSD density
   Achintya Kumar Dutta   : EOM-CC, STEOM-CC
   Dmitry Ganyushin       : Spin-Orbit,Spin-Spin,Magnetic field MRCI
   Miquel Garcia          : C-PCM and meta-GGA Hessian, CC/C-PCM, Gaussian charge scheme
   Yang Guo               : DLPNO-NEVPT2, F12-NEVPT2, CIM, IAO-localization
   Andreas Hansen         : Spin unrestricted coupled pair/coupled cluster methods
   Benjamin Helmich-Paris : MC-RPA, TRAH-SCF, COSX integrals
   Lee Huntington         : MR-EOM, pCC
   Robert Izsak           : Overlap fitted RIJCOSX, COSX-SCS-MP3, EOM
   Marcus Kettner         : VPT2
   Christian Kollmar      : KDIIS, OOCD, Brueckner-CCSD(T), CCSD density, CASPT2, CASPT2-K
   Simone Kossmann        : Meta GGA functionals, TD-DFT gradient, OOMP2, MP2 Hessian
   Martin Krupicka        : Initial AUTO-CI
   Lucas Lang             : DCDCAS
   Marvin Lechner         : AUTO-CI (C++ implementation), FIC-MRCC
   Dagmar Lenk            : GEPOL surface, SMD
   Dimitrios Liakos       : Extrapolation schemes; Compound Job, initial MDCI parallelization
   Dimitrios Manganas     : Further ROCIS development; embedding schemes
   Dimitrios Pantazis     : SARC Basis sets
   Anastasios Papadopoulos: AUTO-CI, single reference methods and gradients
   Taras Petrenko         : DFT Hessian,TD-DFT gradient, ASA, ECA, R-Raman, ABS, FL, XAS/XES, NRVS
   Peter Pinski           : DLPNO-MP2, DLPNO-MP2 Gradient
   Christoph Reimann      : Effective Core Potentials
   Marius Retegan         : Local ZFS, SOC
   Christoph Riplinger    : Optimizer, TS searches, QM/MM, DLPNO-CCSD(T), (RO)-DLPNO pert. Triples
   Tobias Risthaus        : Range-separated hybrids, TD-DFT gradient, RPA, STAB
   Michael Roemelt        : Original ROCIS implementation
   Masaaki Saitow         : Open-shell DLPNO-CCSD energy and density
   Barbara Sandhoefer     : DKH picture change effects
   Avijit Sen             : IP-ROCIS
   Kantharuban Sivalingam : CASSCF convergence, NEVPT2, FIC-MRCI
   Bernardo de Souza      : ESD, SOC TD-DFT
   Georgi Stoychev        : AutoAux, RI-MP2 NMR, DLPNO-MP2 response
   Willem Van den Heuvel  : Paramagnetic NMR
   Boris Wezisla          : Elementary symmetry handling
   Frank Wennmohs         : Technical directorship


 We gratefully acknowledge several colleagues who have allowed us to
 interface, adapt or use parts of their codes:
   Stefan Grimme, W. Hujo, H. Kruse, P. Pracht,  : VdW corrections, initial TS optimization,
                  C. Bannwarth, S. Ehlert          DFT functionals, gCP, sTDA/sTD-DF
   Ed Valeev, F. Pavosevic, A. Kumar             : LibInt (2-el integral package), F12 methods
   Garnet Chan, S. Sharma, J. Yang, R. Olivares  : DMRG
   Ulf Ekstrom                                   : XCFun DFT Library
   Mihaly Kallay                                 : mrcc  (arbitrary order and MRCC methods)
   Jiri Pittner, Ondrej Demel                    : Mk-CCSD
   Frank Weinhold                                : gennbo (NPA and NBO analysis)
   Christopher J. Cramer and Donald G. Truhlar   : smd solvation model
   Lars Goerigk                                  : TD-DFT with DH, B97 family of functionals
   V. Asgeirsson, H. Jonsson                     : NEB implementation
   FAccTs GmbH                                   : IRC, NEB, NEB-TS, DLPNO-Multilevel, CI-OPT
                                                   MM, QMMM, 2- and 3-layer-ONIOM, Crystal-QMMM,
                                                   LR-CPCM, SF, NACMEs, symmetry and pop. for TD-DFT,
                                                   nearIR, NL-DFT gradient (VV10), updates on ESD,
                                                   ML-optimized integration grids
   S Lehtola, MJT Oliveira, MAL Marques          : LibXC Library
   Liviu Ungur et al                             : ANISO software


 Your calculation uses the libint2 library for the computation of 2-el integrals
 For citations please refer to: http://libint.valeyev.net

 Your ORCA version has been built with support for libXC version: 5.1.0
 For citations please refer to: https://tddft.org/programs/libxc/

 This ORCA versions uses:
   CBLAS   interface :  Fast vector & matrix operations
   LAPACKE interface :  Fast linear algebra routines
   SCALAPACK package :  Parallel linear algebra routines
   Shared memory     :  Shared parallel matrices
   BLAS/LAPACK       :  OpenBLAS 0.3.15  USE64BITINT DYNAMIC_ARCH NO_AFFINITY Haswell SINGLE_THREADED
        Core in use  :  Haswell
   Copyright (c) 2011-2014, The OpenBLAS Project




***************************************
The coordinates will be read from file: f2co.xyz
***************************************


Your calculation utilizes the geometrical counterpoise correction gCP
Please cite in your paper:
H.Kruse, S. Grimme J.Chem.Phys., 136, (2012), 154101 
   

Your calculation utilizes the atom-pairwise dispersion correction
with the Becke-Johnson damping scheme (D3BJ)
Cite in your paper:
S.Grimme, S.Ehrlich, L.Goerigk, J Comput Chem, (2011), 32, 1456–1465 
S.Grimme, J.Antony, S.Ehrlich and H.Krieg, J.Chem.Phys., 132, (2010), 154104 
   

Your calculation employs the composite approach PBEh-3c.
Please cite in your paper:
S. Grimme, J. G. Brandenburg, C. Bannwarth, A. Hansen J.Chem.Phys., 143, (2015), 054107 
   

================================================================================

----- Orbital basis set information -----
Your calculation utilizes the basis: def2-mSVP

----- AuxJ basis set information -----
Your calculation utilizes the auxiliary basis: def2/J
   F. Weigend, Phys. Chem. Chem. Phys. 8, 1057 (2006).

================================================================================
                                        WARNINGS
                       Please study these warnings very carefully!
================================================================================


INFO   : the flag for use of the SHARK integral package has been found!

================================================================================
                                       INPUT FILE
================================================================================
NAME = pbeh-3c.inp
|  1> ! PBEh-3c def2/J TightSCF DefGrid3
|  2> 
|  3> %maxcore 60000
|  4> 
|  5> %pal
|  6> nprocs 4
|  7> end
|  8> 
|  9> *xyzfile 0 1 f2co.xyz
| 10> 
| 11>                          ****END OF INPUT****
================================================================================

                       ****************************
                       * Single Point Calculation *
                       ****************************

---------------------------------
CARTESIAN COORDINATES (ANGSTROEM)
---------------------------------
  O     -1.331257   -0.000000    0.000000
  C     -0.159820   -0.000000    0.000000
  F      0.611076   -1.058663    0.000000
  F      0.611076    1.058663    0.000000

----------------------------
CARTESIAN COORDINATES (A.U.)
----------------------------
  NO LB      ZA    FRAG     MASS         X           Y           Z
   0 O     8.0000    0    15.999   -2.515712   -0.000000    0.000000
   1 C     6.0000    0    12.011   -0.302017   -0.000000    0.000000
   2 F     9.0000    0    18.998    1.154766   -2.000583    0.000000
   3 F     9.0000    0    18.998    1.154766    2.000583    0.000000

--------------------------------
INTERNAL COORDINATES (ANGSTROEM)
--------------------------------
 O      0   0   0     0.000000000000     0.00000000     0.00000000
 C      1   0   0     1.171436900000     0.00000000     0.00000000
 F      2   1   0     1.309598268353   126.06131411     0.00000000
 F      2   1   3     1.309598268353   126.06131411   180.00000000

---------------------------
INTERNAL COORDINATES (A.U.)
---------------------------
 O      0   0   0     0.000000000000     0.00000000     0.00000000
 C      1   0   0     2.213694924170     0.00000000     0.00000000
 F      2   1   0     2.474782072645   126.06131411     0.00000000
 F      2   1   3     2.474782072645   126.06131411   180.00000000

---------------------
BASIS SET INFORMATION
---------------------
There are 3 groups of distinct atoms

 Group   1 Type O   : 8s4p1d contracted to 4s2p1d pattern {5111/31/1}
 Group   2 Type C   : 8s4p1d contracted to 4s2p1d pattern {5111/31/1}
 Group   3 Type F   : 8s4p1d contracted to 4s2p1d pattern {5111/31/1}

Atom   0O    basis set group =>   1
Atom   1C    basis set group =>   2
Atom   2F    basis set group =>   3
Atom   3F    basis set group =>   3
---------------------------------
AUXILIARY/J BASIS SET INFORMATION
---------------------------------
There are 3 groups of distinct atoms

 Group   1 Type O   : 12s5p4d2f1g contracted to 6s4p3d1f1g pattern {711111/2111/211/2/1}
 Group   2 Type C   : 12s5p4d2f1g contracted to 6s4p3d1f1g pattern {711111/2111/211/2/1}
 Group   3 Type F   : 12s5p4d2f1g contracted to 6s4p3d1f1g pattern {711111/2111/211/2/1}

Atom   0O    basis set group =>   1
Atom   1C    basis set group =>   2
Atom   2F    basis set group =>   3
Atom   3F    basis set group =>   3


           ************************************************************
           *        Program running with 4 parallel MPI-processes     *
           *              working on a common directory               *
           ************************************************************
------------------------------------------------------------------------------
                           ORCA GTO INTEGRAL CALCULATION
                           -- RI-GTO INTEGRALS CHOSEN --
------------------------------------------------------------------------------
------------------------------------------------------------------------------
                   ___                                                        
                  /   \      - P O W E R E D   B Y -                         
                 /     \                                                     
                 |  |  |   _    _      __       _____    __    __             
                 |  |  |  | |  | |    /  \     |  _  \  |  |  /  |          
                  \  \/   | |  | |   /    \    | | | |  |  | /  /          
                 / \  \   | |__| |  /  /\  \   | |_| |  |  |/  /          
                |  |  |   |  __  | /  /__\  \  |    /   |      \           
                |  |  |   | |  | | |   __   |  |    \   |  |\   \          
                \     /   | |  | | |  |  |  |  | |\  \  |  | \   \       
                 \___/    |_|  |_| |__|  |__|  |_| \__\ |__|  \__/        
                                                                              
                      - O R C A' S   B I G   F R I E N D -                    
                                      &                                       
                       - I N T E G R A L  F E E D E R -                       
                                                                              
 v1 FN, 2020, v2 2021                                                         
------------------------------------------------------------------------------


Reading SHARK input file pbeh-3c.SHARKINP.tmp ... ok
----------------------
SHARK INTEGRAL PACKAGE
----------------------

Number of atoms                             ...      4
Number of basis functions                   ...     60
Number of shells                            ...     28
Maximum angular momentum                    ...      2
Integral batch strategy                     ... SHARK/LIBINT Hybrid
RI-J (if used) integral strategy            ... SPLIT-RIJ (Revised 2003 algorithm where possible)
Printlevel                                  ...      1
Contraction scheme used                     ... SEGMENTED contraction
Coulomb Range Separation                    ... NOT USED
Exchange Range Separation                   ... NOT USED
Finite Nucleus Model                        ... NOT USED
Auxiliary Coulomb fitting basis             ... AVAILABLE
   # of basis functions in Aux-J            ...    196
   # of shells in Aux-J                     ...     60
   Maximum angular momentum in Aux-J        ...      4
Auxiliary J/K fitting basis                 ... NOT available
Auxiliary Correlation fitting basis         ... NOT available
Auxiliary 'external' fitting basis          ... NOT available
Integral threshold                          ...     2.500000e-11
Primitive cut-off                           ...     2.500000e-12
Primitive pair pre-selection threshold      ...     2.500000e-12

Calculating pre-screening integrals         ... done (  0.1 sec) Dimension = 28
Organizing shell pair data                  ... done (  0.0 sec)
Shell pair information
Total number of shell pairs                 ...       406
Shell pairs after pre-screening             ...       389
Total number of primitive shell pairs       ...      1430
Primitive shell pairs kept                  ...      1116
          la=0 lb=0:    119 shell pairs
          la=1 lb=0:    128 shell pairs
          la=1 lb=1:     36 shell pairs
          la=2 lb=0:     64 shell pairs
          la=2 lb=1:     32 shell pairs
          la=2 lb=2:     10 shell pairs

Calculating one electron integrals          ... done (  0.1 sec)
Calculating RI/J V-Matrix + Cholesky decomp.... done (  0.3 sec)
Calculating Nuclear repulsion               ... done (  0.0 sec) ENN=    120.014970323497 Eh

SHARK setup successfully completed in   1.0 seconds

Maximum memory used throughout the entire GTOINT-calculation: 9.1 MB


           ************************************************************
           *        Program running with 4 parallel MPI-processes     *
           *              working on a common directory               *
           ************************************************************
-------------------------------------------------------------------------------
                                 ORCA SCF
-------------------------------------------------------------------------------

------------
SCF SETTINGS
------------
Hamiltonian:
 Density Functional     Method          .... DFT(GTOs)
 Exchange Functional    Exchange        .... PBE
   PBE kappa parameter   XKappa         ....  1.024500
   PBE mue parameter    XMuePBE         ....  0.123457
 Correlation Functional Correlation     .... PBE
   PBE beta parameter  CBetaPBE         ....  0.030000
 LDA part of GGA corr.  LDAOpt          .... PW91-LDA
 Gradients option       PostSCFGGA      .... off
 Hybrid DFT is turned on
   Fraction HF Exchange ScalHFX         ....  0.420000
   Scaling of DF-GGA-X  ScalDFX         ....  0.580000
   Scaling of DF-GGA-C  ScalDFC         ....  1.000000
   Scaling of DF-LDA-C  ScalLDAC        ....  1.000000
   Perturbative correction              ....  0.000000
   Density functional embedding theory  .... OFF
 RI-approximation to the Coulomb term is turned on
   Number of AuxJ basis functions       .... 196
   RIJ-ON(X) (HFX calculated with O(N)) .... on
   Number of AuxJ basis functions       .... 196
   RIJ-COSX (HFX calculated with COS-X)).... on


General Settings:
 Integral files         IntName         .... pbeh-3c
 Hartree-Fock type      HFTyp           .... RHF
 Total Charge           Charge          ....    0
 Multiplicity           Mult            ....    1
 Number of Electrons    NEL             ....   32
 Basis Dimension        Dim             ....   60
 Nuclear Repulsion      ENuc            ....    120.0149703235 Eh

Convergence Acceleration:
 DIIS                   CNVDIIS         .... on
   Start iteration      DIISMaxIt       ....    12
   Startup error        DIISStart       ....  0.200000
   # of expansion vecs  DIISMaxEq       ....     5
   Bias factor          DIISBfac        ....   1.050
   Max. coefficient     DIISMaxC        ....  10.000
 Trust-Rad. Augm. Hess. CNVTRAH         .... auto
   Auto Start mean grad. ratio tolernc. ....  1.125000
   Auto Start start iteration           ....    20
   Auto Start num. interpolation iter.  ....    10
   Max. Number of Micro iterations      ....    16
   Max. Number of Macro iterations      .... Maxiter - #DIIS iter
   Number of Davidson start vectors     ....     2
   Converg. threshold I  (grad. norm)   ....   1.000e-05
   Converg. threshold II (energy diff.) ....   1.000e-08
   Grad. Scal. Fac. for Micro threshold ....   0.100
   Minimum threshold for Micro iter.    ....   0.010
   NR start threshold (gradient norm)   ....   0.001
   Initial trust radius                 ....   0.400
   Minimum AH scaling param. (alpha)    ....   1.000
   Maximum AH scaling param. (alpha)    .... 1000.000
   Orbital update algorithm             .... Taylor
   White noise on init. David. guess    .... on
   Maximum white noise                  ....   0.010
   Quad. conv. algorithm                .... NR
   COSX micro iterations for RIJONX calc.... off
 SOSCF                  CNVSOSCF        .... on
   Start iteration      SOSCFMaxIt      ....   150
   Startup grad/error   SOSCFStart      ....  0.003300
 Level Shifting         CNVShift        .... on
   Level shift para.    LevelShift      ....    0.2500
   Turn off err/grad.   ShiftErr        ....    0.0010
 Zerner damping         CNVZerner       .... off
 Static damping         CNVDamp         .... on
   Fraction old density DampFac         ....    0.7000
   Max. Damping (<1)    DampMax         ....    0.9800
   Min. Damping (>=0)   DampMin         ....    0.0000
   Turn off err/grad.   DampErr         ....    0.1000
 Fernandez-Rico         CNVRico         .... off

SCF Procedure:
 Maximum # iterations   MaxIter         ....   125
 SCF integral mode      SCFMode         .... Direct
   Integral package                     .... SHARK and LIBINT hybrid scheme
 Reset frequency        DirectResetFreq ....    20
 Integral Threshold     Thresh          ....  2.500e-11 Eh
 Primitive CutOff       TCut            ....  2.500e-12 Eh

Convergence Tolerance:
 Convergence Check Mode ConvCheckMode   .... Total+1el-Energy
 Convergence forced     ConvForced      .... 0
 Energy Change          TolE            ....  1.000e-08 Eh
 1-El. energy change                    ....  1.000e-05 Eh
 Orbital Gradient       TolG            ....  1.000e-05
 Orbital Rotation angle TolX            ....  1.000e-05
 DIIS Error             TolErr          ....  5.000e-07


Diagonalization of the overlap matrix:
Smallest eigenvalue                        ... 1.865e-02
Time for diagonalization                   ...    0.001 sec
Threshold for overlap eigenvalues          ... 1.000e-08
Number of eigenvalues below threshold      ... 0
Time for construction of square roots      ...    0.257 sec
Total time needed                          ...    0.258 sec

--------------------------------
INITIAL GUESS: MINIMAL BASIS EHT
--------------------------------
The minimal basis has 20 functions
EHT matrix was diagonalized
Basis set overlap was calculated now projecting the orbitals
Using GuessMode=FMatrix for the initial guess
C*T matrix was formed
Effective Fockian was calculated
Effective Fockian was diagonalized
Initial density was built
                      ------------------
                      INITIAL GUESS DONE
                      ------------------
-------------------
DFT GRID GENERATION
-------------------

General Integration Accuracy     IntAcc      ... 4.959
Radial Grid Type                 RadialGrid  ... OptM3 with GC (2021)
Angular Grid (max. ang.)         AngularGrid ... 6 (Lebedev-590)
Angular grid pruning method      GridPruning ... 4 (adaptive)
Weight generation scheme         WeightScheme... Becke
Basis function cutoff            BFCut       ... 1.0000e-11
Integration weight cutoff        WCut        ... 1.0000e-14
Angular grids for H and He will be reduced by one unit
Partially contracted basis set               ... off
Rotationally invariant grid construction     ... off

Total number of grid points                  ...    58091
Total number of batches                      ...      910
Average number of points per batch           ...       63
Average number of grid points per atom       ...    14523
Time for grid setup =    1.852 sec

--------------------
COSX GRID GENERATION
--------------------

GRIDX 1
-------
General Integration Accuracy     IntAcc      ... 4.020
Radial Grid Type                 RadialGrid  ... OptM3 with GC (2021)
Angular Grid (max. ang.)         AngularGrid ... 2 (Lebedev-110)
Angular grid pruning method      GridPruning ... 4 (adaptive)
Weight generation scheme         WeightScheme... Becke
Basis function cutoff            BFCut       ... 1.0000e-11
Integration weight cutoff        WCut        ... 1.0000e-14
Angular grids for H and He will be reduced by one unit
Partially contracted basis set               ... on
Rotationally invariant grid construction     ... off

Total number of grid points                  ...     7506
Total number of batches                      ...      119
Average number of points per batch           ...       63
Average number of grid points per atom       ...     1876
UseSFitting                                  ... on

GRIDX 2
-------
General Integration Accuracy     IntAcc      ... 4.338
Radial Grid Type                 RadialGrid  ... OptM3 with GC (2021)
Angular Grid (max. ang.)         AngularGrid ... 3 (Lebedev-194)
Angular grid pruning method      GridPruning ... 4 (adaptive)
Weight generation scheme         WeightScheme... Becke
Basis function cutoff            BFCut       ... 1.0000e-11
Integration weight cutoff        WCut        ... 1.0000e-14
Angular grids for H and He will be reduced by one unit
Partially contracted basis set               ... on
Rotationally invariant grid construction     ... off

Total number of grid points                  ...    16737
Total number of batches                      ...      264
Average number of points per batch           ...       63
Average number of grid points per atom       ...     4184
UseSFitting                                  ... on

GRIDX 3
-------
General Integration Accuracy     IntAcc      ... 4.871
Radial Grid Type                 RadialGrid  ... OptM3 with GC (2021)
Angular Grid (max. ang.)         AngularGrid ... 4 (Lebedev-302)
Angular grid pruning method      GridPruning ... 4 (adaptive)
Weight generation scheme         WeightScheme... Becke
Basis function cutoff            BFCut       ... 1.0000e-11
Integration weight cutoff        WCut        ... 1.0000e-14
Angular grids for H and He will be reduced by one unit
Partially contracted basis set               ... on
Rotationally invariant grid construction     ... off

Total number of grid points                  ...    29639
Total number of batches                      ...      465
Average number of points per batch           ...       63
Average number of grid points per atom       ...     7410
UseSFitting                                  ... on

Time for X-Grid setup             =    3.146 sec

--------------
SCF ITERATIONS
--------------
ITER       Energy         Delta-E        Max-DP      RMS-DP      [F,P]     Damp
               ***  Starting incremental Fock matrix formation  ***
  0   -311.0775907451   0.000000000000 0.18936052  0.01234367  0.5894701 0.7000
  1   -311.6314067099  -0.553815964786 0.09344297  0.00637256  0.3053786 0.7000
  2   -311.8735788591  -0.242172149139 0.04761195  0.00306046  0.2172284 0.7000
                               ***Turning on DIIS***
  3   -312.0332691320  -0.159690272924 0.03385370  0.00187295  0.1523396 0.7000
  4   -312.1472775139  -0.114008381885 0.02633815  0.00137218  0.1061751 0.7000
  5   -312.2276579531  -0.080380439254 0.06277957  0.00327534  0.0740022 0.0000
  6   -312.4168688078  -0.189210854699 0.00377082  0.00018335  0.0038541 0.0000
                      *** Initiating the SOSCF procedure ***
                           *** Shutting down DIIS ***
                      *** Re-Reading the Fockian *** 
                      *** Removing any level shift *** 
ITER      Energy       Delta-E        Grad      Rot      Max-DP    RMS-DP
  7   -312.41691590  -0.0000470918  0.000980  0.000980  0.001724  0.000077
               *** Restarting incremental Fock matrix formation ***
  8   -312.41693462  -0.0000187166  0.000530  0.001093  0.001292  0.000050
  9   -312.41693671  -0.0000020921  0.000384  0.000627  0.000842  0.000035
 10   -312.41693726  -0.0000005471  0.000210  0.000233  0.000332  0.000014
 11   -312.41693744  -0.0000001875  0.000047  0.000079  0.000119  0.000004
 12   -312.41693745  -0.0000000041  0.000043  0.000042  0.000071  0.000002
                  ***Gradient check signals convergence***
              ***Rediagonalizing the Fockian in SOSCF/NRSCF***

               *****************************************************
               *                     SUCCESS                       *
               *           SCF CONVERGED AFTER  13 CYCLES          *
               *****************************************************

Old exchange energy                            =    -14.080648431 Eh
New exchange energy                            =    -14.080631473 Eh
Exchange energy change after final integration =      0.000016959 Eh
Total energy after final integration           =   -312.416920499 Eh
Final COS-X integration done in                =     0.464 sec

----------------
TOTAL SCF ENERGY
----------------

Total Energy       :         -312.41692050 Eh           -8501.29660 eV

Components:
Nuclear Repulsion  :          120.01497032 Eh            3265.77337 eV
Electronic Energy  :         -432.43189082 Eh          -11767.06998 eV
One Electron Energy:         -670.50759138 Eh          -18245.43914 eV
Two Electron Energy:          238.07570055 Eh            6478.36917 eV
Max COSX asymmetry :            0.00000212 Eh               0.00006 eV

Virial components:
Potential Energy   :         -623.02603861 Eh          -16953.40040 eV
Kinetic Energy     :          310.60911811 Eh            8452.10380 eV
Virial Ratio       :            2.00582018


DFT components:
N(Alpha)           :       16.000000006944 electrons
N(Beta)            :       16.000000006944 electrons
N(Total)           :       32.000000013888 electrons
E(X)               :      -18.792846389181 Eh       
E(C)               :       -1.491536133135 Eh       
E(XC)              :      -20.284382522317 Eh       
DFET-embed. en.    :        0.000000000000 Eh       

---------------
SCF CONVERGENCE
---------------

  Last Energy change         ...   -1.0695e-08  Tolerance :   1.0000e-08
  Last MAX-Density change    ...    1.1102e-15  Tolerance :   1.0000e-07
  Last RMS-Density change    ...    5.5009e-17  Tolerance :   5.0000e-09
  Last Orbital Gradient      ...    1.3980e-06  Tolerance :   1.0000e-05
  Last Orbital Rotation      ...    1.6135e-06  Tolerance :   1.0000e-05

             **** THE GBW FILE WAS UPDATED (pbeh-3c.gbw) ****
             **** DENSITY pbeh-3c.scfp WAS UPDATED ****
             **** ENERGY FILE WAS UPDATED (pbeh-3c.en.tmp) ****
             **** THE GBW FILE WAS UPDATED (pbeh-3c.gbw) ****
             **** DENSITY pbeh-3c.scfp WAS UPDATED ****
----------------
ORBITAL ENERGIES
----------------

  NO   OCC          E(Eh)            E(eV) 
   0   2.0000     -25.179074      -685.1574 
   1   2.0000     -25.179066      -685.1572 
   2   2.0000     -19.550015      -531.9829 
   3   2.0000     -10.718979      -291.6783 
   4   2.0000      -1.474025       -40.1103 
   5   2.0000      -1.397895       -38.0387 
   6   2.0000      -1.230159       -33.4743 
   7   2.0000      -0.779774       -21.2187 
   8   2.0000      -0.705804       -19.2059 
   9   2.0000      -0.658712       -17.9245 
  10   2.0000      -0.630754       -17.1637 
  11   2.0000      -0.559284       -15.2189 
  12   2.0000      -0.549177       -14.9439 
  13   2.0000      -0.538059       -14.6413 
  14   2.0000      -0.462495       -12.5851 
  15   2.0000      -0.423289       -11.5183 
  16   0.0000       0.022435         0.6105 
  17   0.0000       0.141561         3.8521 
  18   0.0000       0.296643         8.0721 
  19   0.0000       0.368730        10.0337 
  20   0.0000       0.438179        11.9235 
  21   0.0000       0.466396        12.6913 
  22   0.0000       0.467608        12.7243 
  23   0.0000       0.661162        17.9911 
  24   0.0000       0.883784        24.0490 
  25   0.0000       0.979011        26.6403 
  26   0.0000       1.037814        28.2404 
  27   0.0000       1.056273        28.7426 
  28   0.0000       1.059538        28.8315 
  29   0.0000       1.088532        29.6205 
  30   0.0000       1.120994        30.5038 
  31   0.0000       1.164215        31.6799 
  32   0.0000       1.175567        31.9888 
  33   0.0000       1.202383        32.7185 
  34   0.0000       1.213443        33.0195 
  35   0.0000       1.250661        34.0322 
  36   0.0000       1.266081        34.4518 
  37   0.0000       1.353090        36.8195 
  38   0.0000       1.385844        37.7107 
  39   0.0000       1.399382        38.0791 
  40   0.0000       1.717219        46.7279 
  41   0.0000       1.777178        48.3595 
  42   0.0000       1.778055        48.3833 
  43   0.0000       1.897652        51.6377 
  44   0.0000       1.902512        51.7700 
  45   0.0000       1.908287        51.9271 
  46   0.0000       1.965685        53.4890 
  47   0.0000       2.002466        54.4899 
  48   0.0000       2.200301        59.8732 
  49   0.0000       2.383695        64.8636 
  50   0.0000       2.694600        73.3238 
  51   0.0000       2.786045        75.8121 
  52   0.0000       2.863590        77.9223 
  53   0.0000       2.880172        78.3735 
  54   0.0000       3.006656        81.8153 
  55   0.0000       3.034571        82.5749 
  56   0.0000      14.160215       385.3190 
  57   0.0000      25.636593       697.6072 
  58   0.0000      32.689140       889.5167 
  59   0.0000      32.739469       890.8863 

                    ********************************
                    * MULLIKEN POPULATION ANALYSIS *
                    ********************************

-----------------------
MULLIKEN ATOMIC CHARGES
-----------------------
   0 O :   -0.332334
   1 C :    0.836221
   2 F :   -0.251943
   3 F :   -0.251943
Sum of atomic charges:    0.0000000

--------------------------------
MULLIKEN REDUCED ORBITAL CHARGES
--------------------------------
  0 O s       :     3.754641  s :     3.754641
      pz      :     1.410996  p :     4.540685
      px      :     1.370136
      py      :     1.759554
      dz2     :     0.002937  d :     0.037008
      dxz     :     0.014510
      dyz     :     0.000071
      dx2y2   :     0.009408
      dxy     :     0.010082
  1 C s       :     2.738329  s :     2.738329
      pz      :     0.741005  p :     2.227037
      px      :     0.802224
      py      :     0.683808
      dz2     :     0.009273  d :     0.198413
      dxz     :     0.033050
      dyz     :     0.015520
      dx2y2   :     0.049556
      dxy     :     0.091016
  2 F s       :     3.899083  s :     3.899083
      pz      :     1.882912  p :     5.324768
      px      :     1.791525
      py      :     1.650330
      dz2     :     0.003094  d :     0.028093
      dxz     :     0.003544
      dyz     :     0.005968
      dx2y2   :     0.005104
      dxy     :     0.010383
  3 F s       :     3.899083  s :     3.899083
      pz      :     1.882912  p :     5.324768
      px      :     1.791525
      py      :     1.650330
      dz2     :     0.003094  d :     0.028093
      dxz     :     0.003544
      dyz     :     0.005968
      dx2y2   :     0.005104
      dxy     :     0.010383


                     *******************************
                     * LOEWDIN POPULATION ANALYSIS *
                     *******************************

----------------------
LOEWDIN ATOMIC CHARGES
----------------------
   0 O :   -0.115991
   1 C :    0.275046
   2 F :   -0.079528
   3 F :   -0.079528

-------------------------------
LOEWDIN REDUCED ORBITAL CHARGES
-------------------------------
  0 O s       :     3.512384  s :     3.512384
      pz      :     1.384246  p :     4.543232
      px      :     1.454546
      py      :     1.704440
      dz2     :     0.007322  d :     0.060375
      dxz     :     0.017883
      dyz     :     0.000055
      dx2y2   :     0.022276
      dxy     :     0.012838
  1 C s       :     2.745272  s :     2.745272
      pz      :     0.735870  p :     2.534029
      px      :     0.981478
      py      :     0.816681
      dz2     :     0.025722  d :     0.445654
      dxz     :     0.071346
      dyz     :     0.036322
      dx2y2   :     0.112149
      dxy     :     0.200115
  2 F s       :     3.703250  s :     3.703250
      pz      :     1.856411  p :     5.298920
      px      :     1.784570
      py      :     1.657938
      dz2     :     0.010636  d :     0.077357
      dxz     :     0.008042
      dyz     :     0.012686
      dx2y2   :     0.020175
      dxy     :     0.025819
  3 F s       :     3.703250  s :     3.703250
      pz      :     1.856411  p :     5.298920
      px      :     1.784570
      py      :     1.657938
      dz2     :     0.010636  d :     0.077357
      dxz     :     0.008042
      dyz     :     0.012686
      dx2y2   :     0.020175
      dxy     :     0.025819


                      *****************************
                      * MAYER POPULATION ANALYSIS *
                      *****************************

  NA   - Mulliken gross atomic population
  ZA   - Total nuclear charge
  QA   - Mulliken gross atomic charge
  VA   - Mayer's total valence
  BVA  - Mayer's bonded valence
  FA   - Mayer's free valence

  ATOM       NA         ZA         QA         VA         BVA        FA
  0 O      8.3323     8.0000    -0.3323     2.2985     2.2985     0.0000
  1 C      5.1638     6.0000     0.8362     4.2727     4.2727    -0.0000
  2 F      9.2519     9.0000    -0.2519     1.1754     1.1754    -0.0000
  3 F      9.2519     9.0000    -0.2519     1.1754     1.1754     0.0000

  Mayer bond orders larger than 0.100000
B(  0-O ,  1-C ) :   2.1432 B(  1-C ,  2-F ) :   1.0648 B(  1-C ,  3-F ) :   1.0648 


-------
TIMINGS
-------

Total SCF time: 0 days 0 hours 0 min 28 sec 

Total time                  ....      28.550 sec
Sum of individual times     ....      24.768 sec  ( 86.8%)

Fock matrix formation       ....      17.866 sec  ( 62.6%)
  Split-RI-J                ....       2.274 sec  ( 12.7% of F)
  Chain of spheres X        ....       4.251 sec  ( 23.8% of F)
  XC integration            ....       5.025 sec  ( 28.1% of F)
    Basis function eval.    ....       0.555 sec  ( 11.0% of XC)
    Density eval.           ....       0.353 sec  (  7.0% of XC)
    XC-Functional eval.     ....       0.468 sec  (  9.3% of XC)
    XC-Potential eval.      ....       0.259 sec  (  5.1% of XC)
Diagonalization             ....       0.224 sec  (  0.8%)
Density matrix formation    ....       0.006 sec  (  0.0%)
Population analysis         ....       0.351 sec  (  1.2%)
Initial guess               ....       0.002 sec  (  0.0%)
Orbital Transformation      ....       0.000 sec  (  0.0%)
Orbital Orthonormalization  ....       0.000 sec  (  0.0%)
DIIS solution               ....       0.987 sec  (  3.5%)
SOSCF solution              ....       0.333 sec  (  1.2%)
Grid generation             ....       4.998 sec  ( 17.5%)

Maximum memory used throughout the entire SCF-calculation: 45.3 MB


-------------------------------------------------------------------------------
                          DFT DISPERSION CORRECTION                            
                                                                               
                              DFTD3 V3.1  Rev 1                                
                          USING Becke-Johnson damping                          
-------------------------------------------------------------------------------
The PBEh-3c composite method is recognized
Using three-body term ABC
Active option DFTDOPT                   ...         4   

molecular C6(AA) [au] = 190.576098 


            DFT-D V3
 parameters
 s6 scaling factor         :     1.0000 
 a1 scaling factor         :     0.4860 
 s8 scaling factor         :     0.0000 
 a2 scaling factor         :     4.5000 
 Damping factor alpha9(ATM):    16.0000 
 ad hoc parameters k1-k3   :    16.0000     1.3333    -4.0000 

 Edisp/kcal,au: -0.455366024542  -0.000725671874 
 E6   /kcal   :  -0.455401127 
 E8   /kcal   :  -0.000000000 
 E6(ABC)      :   0.000035102 
 % E8         :   0.000000000 
 % E6(ABC)    :  -0.007708613 

-------------------------   ----------------
Dispersion correction           -0.000725672
-------------------------   ----------------

------------------   -----------------
gCP correction             0.012824997
------------------   -----------------

-------------------------   --------------------
FINAL SINGLE POINT ENERGY      -312.404821173802
-------------------------   --------------------


                            ***************************************
                            *     ORCA property calculations      *
                            ***************************************

                                    ---------------------
                                    Active property flags
                                    ---------------------
   (+) Dipole Moment


------------------------------------------------------------------------------
                       ORCA ELECTRIC PROPERTIES CALCULATION
------------------------------------------------------------------------------

Dipole Moment Calculation                       ... on
Quadrupole Moment Calculation                   ... off
Polarizability Calculation                      ... off
GBWName                                         ... pbeh-3c.gbw
Electron density                                ... pbeh-3c.scfp
The origin for moment calculation is the CENTER OF MASS  = ( 0.000001,  0.000000  0.000000)

-------------
DIPOLE MOMENT
-------------
                                X             Y             Z
Electronic contribution:      1.60899       0.00000       0.00000
Nuclear contribution   :     -1.15205       0.00000       0.00000
                        -----------------------------------------
Total Dipole Moment    :      0.45694       0.00000       0.00000
                        -----------------------------------------
Magnitude (a.u.)       :      0.45694
Magnitude (Debye)      :      1.16146



--------------------
Rotational spectrum 
--------------------
 
Rotational constants in cm-1:     0.395862     0.393418     0.197318 
Rotational constants in MHz : 11867.639278 11794.383134  5915.448904 

 Dipole components along the rotational axes: 
x,y,z [a.u.] :     0.456943     0.000000     0.000000 
x,y,z [Debye]:     1.161458     0.000000     0.000000 

 

Timings for individual modules:

Sum of individual times         ...       30.969 sec (=   0.516 min)
GTO integral calculation        ...        1.841 sec (=   0.031 min)   5.9 %
SCF iterations                  ...       29.128 sec (=   0.485 min)  94.1 %
                             ****ORCA TERMINATED NORMALLY****
TOTAL RUN TIME: 0 days 0 hours 0 minutes 31 seconds 988 msec
