
                                 *****************
                                 * O   R   C   A *
                                 *****************

                                            #,                                       
                                            ###                                      
                                            ####                                     
                                            #####                                    
                                            ######                                   
                                           ########,                                 
                                     ,,################,,,,,                         
                               ,,#################################,,                 
                          ,,##########################################,,             
                       ,#########################################, ''#####,          
                    ,#############################################,,   '####,        
                  ,##################################################,,,,####,       
                ,###########''''           ''''###############################       
              ,#####''   ,,,,##########,,,,          '''####'''          '####       
            ,##' ,,,,###########################,,,                        '##       
           ' ,,###''''                  '''############,,,                           
         ,,##''                                '''############,,,,        ,,,,,,###''
      ,#''                                            '''#######################'''  
     '                                                          ''''####''''         
             ,#######,   #######,   ,#######,      ##                                
            ,#'     '#,  ##    ##  ,#'     '#,    #''#        ######   ,####,        
            ##       ##  ##   ,#'  ##            #'  '#       #        #'  '#        
            ##       ##  #######   ##           ,######,      #####,   #    #        
            '#,     ,#'  ##    ##  '#,     ,#' ,#      #,         ##   #,  ,#        
             '#######'   ##     ##  '#######'  #'      '#     #####' # '####'        



                  #######################################################
                  #                        -***-                        #
                  #          Department of theory and spectroscopy      #
                  #    Directorship and core code : Frank Neese         #
                  #        Max Planck Institute fuer Kohlenforschung    #
                  #                Kaiser Wilhelm Platz 1               #
                  #                 D-45470 Muelheim/Ruhr               #
                  #                      Germany                        #
                  #                                                     #
                  #                  All rights reserved                #
                  #                        -***-                        #
                  #######################################################


                         Program Version 5.0.3 -  RELEASE  -


 With contributions from (in alphabetic order):
   Daniel Aravena         : Magnetic Suceptibility
   Michael Atanasov       : Ab Initio Ligand Field Theory (pilot matlab implementation)
   Alexander A. Auer      : GIAO ZORA, VPT2 properties, NMR spectrum
   Ute Becker             : Parallelization
   Giovanni Bistoni       : ED, misc. LED, open-shell LED, HFLD
   Martin Brehm           : Molecular dynamics
   Dmytro Bykov           : SCF Hessian
   Vijay G. Chilkuri      : MRCI spin determinant printing, contributions to CSF-ICE
   Dipayan Datta          : RHF DLPNO-CCSD density
   Achintya Kumar Dutta   : EOM-CC, STEOM-CC
   Dmitry Ganyushin       : Spin-Orbit,Spin-Spin,Magnetic field MRCI
   Miquel Garcia          : C-PCM and meta-GGA Hessian, CC/C-PCM, Gaussian charge scheme
   Yang Guo               : DLPNO-NEVPT2, F12-NEVPT2, CIM, IAO-localization
   Andreas Hansen         : Spin unrestricted coupled pair/coupled cluster methods
   Benjamin Helmich-Paris : MC-RPA, TRAH-SCF, COSX integrals
   Lee Huntington         : MR-EOM, pCC
   Robert Izsak           : Overlap fitted RIJCOSX, COSX-SCS-MP3, EOM
   Marcus Kettner         : VPT2
   Christian Kollmar      : KDIIS, OOCD, Brueckner-CCSD(T), CCSD density, CASPT2, CASPT2-K
   Simone Kossmann        : Meta GGA functionals, TD-DFT gradient, OOMP2, MP2 Hessian
   Martin Krupicka        : Initial AUTO-CI
   Lucas Lang             : DCDCAS
   Marvin Lechner         : AUTO-CI (C++ implementation), FIC-MRCC
   Dagmar Lenk            : GEPOL surface, SMD
   Dimitrios Liakos       : Extrapolation schemes; Compound Job, initial MDCI parallelization
   Dimitrios Manganas     : Further ROCIS development; embedding schemes
   Dimitrios Pantazis     : SARC Basis sets
   Anastasios Papadopoulos: AUTO-CI, single reference methods and gradients
   Taras Petrenko         : DFT Hessian,TD-DFT gradient, ASA, ECA, R-Raman, ABS, FL, XAS/XES, NRVS
   Peter Pinski           : DLPNO-MP2, DLPNO-MP2 Gradient
   Christoph Reimann      : Effective Core Potentials
   Marius Retegan         : Local ZFS, SOC
   Christoph Riplinger    : Optimizer, TS searches, QM/MM, DLPNO-CCSD(T), (RO)-DLPNO pert. Triples
   Tobias Risthaus        : Range-separated hybrids, TD-DFT gradient, RPA, STAB
   Michael Roemelt        : Original ROCIS implementation
   Masaaki Saitow         : Open-shell DLPNO-CCSD energy and density
   Barbara Sandhoefer     : DKH picture change effects
   Avijit Sen             : IP-ROCIS
   Kantharuban Sivalingam : CASSCF convergence, NEVPT2, FIC-MRCI
   Bernardo de Souza      : ESD, SOC TD-DFT
   Georgi Stoychev        : AutoAux, RI-MP2 NMR, DLPNO-MP2 response
   Willem Van den Heuvel  : Paramagnetic NMR
   Boris Wezisla          : Elementary symmetry handling
   Frank Wennmohs         : Technical directorship


 We gratefully acknowledge several colleagues who have allowed us to
 interface, adapt or use parts of their codes:
   Stefan Grimme, W. Hujo, H. Kruse, P. Pracht,  : VdW corrections, initial TS optimization,
                  C. Bannwarth, S. Ehlert          DFT functionals, gCP, sTDA/sTD-DF
   Ed Valeev, F. Pavosevic, A. Kumar             : LibInt (2-el integral package), F12 methods
   Garnet Chan, S. Sharma, J. Yang, R. Olivares  : DMRG
   Ulf Ekstrom                                   : XCFun DFT Library
   Mihaly Kallay                                 : mrcc  (arbitrary order and MRCC methods)
   Jiri Pittner, Ondrej Demel                    : Mk-CCSD
   Frank Weinhold                                : gennbo (NPA and NBO analysis)
   Christopher J. Cramer and Donald G. Truhlar   : smd solvation model
   Lars Goerigk                                  : TD-DFT with DH, B97 family of functionals
   V. Asgeirsson, H. Jonsson                     : NEB implementation
   FAccTs GmbH                                   : IRC, NEB, NEB-TS, DLPNO-Multilevel, CI-OPT
                                                   MM, QMMM, 2- and 3-layer-ONIOM, Crystal-QMMM,
                                                   LR-CPCM, SF, NACMEs, symmetry and pop. for TD-DFT,
                                                   nearIR, NL-DFT gradient (VV10), updates on ESD,
                                                   ML-optimized integration grids
   S Lehtola, MJT Oliveira, MAL Marques          : LibXC Library
   Liviu Ungur et al                             : ANISO software


 Your calculation uses the libint2 library for the computation of 2-el integrals
 For citations please refer to: http://libint.valeyev.net

 Your ORCA version has been built with support for libXC version: 5.1.0
 For citations please refer to: https://tddft.org/programs/libxc/

 This ORCA versions uses:
   CBLAS   interface :  Fast vector & matrix operations
   LAPACKE interface :  Fast linear algebra routines
   SCALAPACK package :  Parallel linear algebra routines
   Shared memory     :  Shared parallel matrices
   BLAS/LAPACK       :  OpenBLAS 0.3.15  USE64BITINT DYNAMIC_ARCH NO_AFFINITY Haswell SINGLE_THREADED
        Core in use  :  Haswell
   Copyright (c) 2011-2014, The OpenBLAS Project




***************************************
The coordinates will be read from file: trans-2-pentene.xyz
***************************************


Your calculation utilizes the geometrical counterpoise correction gCP
Please cite in your paper:
H.Kruse, S. Grimme J.Chem.Phys., 136, (2012), 154101 
   

Your calculation utilizes the atom-pairwise dispersion correction
with the Becke-Johnson damping scheme (D3BJ)
Cite in your paper:
S.Grimme, S.Ehrlich, L.Goerigk, J Comput Chem, (2011), 32, 1456–1465 
S.Grimme, J.Antony, S.Ehrlich and H.Krieg, J.Chem.Phys., 132, (2010), 154104 
   

Your calculation employs the composite approach PBEh-3c.
Please cite in your paper:
S. Grimme, J. G. Brandenburg, C. Bannwarth, A. Hansen J.Chem.Phys., 143, (2015), 054107 
   

================================================================================

----- Orbital basis set information -----
Your calculation utilizes the basis: def2-mSVP

----- AuxJ basis set information -----
Your calculation utilizes the auxiliary basis: def2/J
   F. Weigend, Phys. Chem. Chem. Phys. 8, 1057 (2006).

================================================================================
                                        WARNINGS
                       Please study these warnings very carefully!
================================================================================


INFO   : the flag for use of the SHARK integral package has been found!

================================================================================
                                       INPUT FILE
================================================================================
NAME = pbeh-3c.inp
|  1> ! PBEh-3c def2/J TightSCF DefGrid3
|  2> 
|  3> %maxcore 60000
|  4> 
|  5> %pal
|  6> nprocs 4
|  7> end
|  8> 
|  9> *xyzfile 0 1 trans-2-pentene.xyz
| 10> 
| 11>                          ****END OF INPUT****
================================================================================

                       ****************************
                       * Single Point Calculation *
                       ****************************

---------------------------------
CARTESIAN COORDINATES (ANGSTROEM)
---------------------------------
  C     -1.727586   -0.720777   -1.420677
  H     -1.397127   -1.760844   -1.561281
  H     -1.225072   -0.106580   -2.181389
  H     -2.809812   -0.685047   -1.611734
  C     -1.397001   -0.220252   -0.004781
  H     -1.745693    0.817823    0.117376
  H     -1.962923   -0.827093    0.724362
  C      0.067959   -0.297596    0.316506
  H      0.518970   -1.297728    0.268165
  C      0.849537    0.741296    0.634894
  H      0.396385    1.739559    0.678683
  C      2.313847    0.663088    0.946326
  H      2.904474    1.282763    0.251996
  H      2.528758    1.040680    1.959360
  H      2.685283   -0.369293    0.882194

----------------------------
CARTESIAN COORDINATES (A.U.)
----------------------------
  NO LB      ZA    FRAG     MASS         X           Y           Z
   0 C     6.0000    0    12.011   -3.264664   -1.362070   -2.684690
   1 H     1.0000    0     1.008   -2.640188   -3.327513   -2.950394
   2 H     1.0000    0     1.008   -2.315051   -0.201407   -4.122227
   3 H     1.0000    0     1.008   -5.309775   -1.294551   -3.045736
   4 C     6.0000    0    12.011   -2.639949   -0.416217   -0.009036
   5 H     1.0000    0     1.008   -3.298881    1.545461    0.221809
   6 H     1.0000    0     1.008   -3.709387   -1.562979    1.368845
   7 C     6.0000    0    12.011    0.128424   -0.562374    0.598110
   8 H     1.0000    0     1.008    0.980712   -2.452351    0.506758
   9 C     6.0000    0    12.011    1.605393    1.400846    1.199776
  10 H     1.0000    0     1.008    0.749059    3.287289    1.282525
  11 C     6.0000    0    12.011    4.372537    1.253055    1.788298
  12 H     1.0000    0     1.008    5.488660    2.424072    0.476203
  13 H     1.0000    0     1.008    4.778660    1.966600    3.702654
  14 H     1.0000    0     1.008    5.074450   -0.697862    1.667105

--------------------------------
INTERNAL COORDINATES (ANGSTROEM)
--------------------------------
 C      0   0   0     0.000000000000     0.00000000     0.00000000
 H      1   0   0     1.100323605915     0.00000000     0.00000000
 H      1   2   0     1.099290488732   107.60234790     0.00000000
 H      1   2   3     1.099542386760   107.70465239   116.38240945
 C      1   2   3     1.537716072447   111.14741344   238.37528551
 H      5   1   2     1.101865969702   109.91969148   180.60279351
 H      5   1   2     1.104614418533   108.59245981   296.62059856
 C      5   1   2     1.501770731378   112.95086633    58.00944325
 H      8   5   1     1.098186477773   115.98310793   300.45105050
 C      8   5   1     1.338480823663   125.48801915   119.64252678
 H     10   8   5     1.097174914761   118.32807190     0.60768536
 C     10   8   5     1.499103040866   125.40140706   180.43478589
 H     12  10   8     1.102239688874   111.29757644   120.81184273
 H     12  10   8     1.102270455908   111.31543851   239.29225390
 H     12  10   8     1.099039857757   111.53090192     0.03024064

---------------------------
INTERNAL COORDINATES (A.U.)
---------------------------
 C      0   0   0     0.000000000000     0.00000000     0.00000000
 H      1   0   0     2.079310273868     0.00000000     0.00000000
 H      1   2   0     2.077357965328   107.60234790     0.00000000
 H      1   2   3     2.077833983615   107.70465239   116.38240945
 C      1   2   3     2.905862248655   111.14741344   238.37528551
 H      5   1   2     2.082224919024   109.91969148   180.60279351
 H      5   1   2     2.087418734608   108.59245981   296.62059856
 C      5   1   2     2.837935398243   112.95086633    58.00944325
 H      8   5   1     2.075271686967   115.98310793   300.45105050
 C      8   5   1     2.529362192229   125.48801915   119.64252678
 H     10   8   5     2.073360109907   118.32807190     0.60768536
 C     10   8   5     2.832894193765   125.40140706   180.43478589
 H     12  10   8     2.082931145910   111.29757644   120.81184273
 H     12  10   8     2.082989287179   111.31543851   239.29225390
 H     12  10   8     2.076884341425   111.53090192     0.03024064

---------------------
BASIS SET INFORMATION
---------------------
There are 2 groups of distinct atoms

 Group   1 Type C   : 8s4p1d contracted to 4s2p1d pattern {5111/31/1}
 Group   2 Type H   : 4s contracted to 2s pattern {31}

Atom   0C    basis set group =>   1
Atom   1H    basis set group =>   2
Atom   2H    basis set group =>   2
Atom   3H    basis set group =>   2
Atom   4C    basis set group =>   1
Atom   5H    basis set group =>   2
Atom   6H    basis set group =>   2
Atom   7C    basis set group =>   1
Atom   8H    basis set group =>   2
Atom   9C    basis set group =>   1
Atom  10H    basis set group =>   2
Atom  11C    basis set group =>   1
Atom  12H    basis set group =>   2
Atom  13H    basis set group =>   2
Atom  14H    basis set group =>   2
---------------------------------
AUXILIARY/J BASIS SET INFORMATION
---------------------------------
There are 2 groups of distinct atoms

 Group   1 Type C   : 12s5p4d2f1g contracted to 6s4p3d1f1g pattern {711111/2111/211/2/1}
 Group   2 Type H   : 5s2p1d contracted to 3s1p1d pattern {311/2/1}

Atom   0C    basis set group =>   1
Atom   1H    basis set group =>   2
Atom   2H    basis set group =>   2
Atom   3H    basis set group =>   2
Atom   4C    basis set group =>   1
Atom   5H    basis set group =>   2
Atom   6H    basis set group =>   2
Atom   7C    basis set group =>   1
Atom   8H    basis set group =>   2
Atom   9C    basis set group =>   1
Atom  10H    basis set group =>   2
Atom  11C    basis set group =>   1
Atom  12H    basis set group =>   2
Atom  13H    basis set group =>   2
Atom  14H    basis set group =>   2


           ************************************************************
           *        Program running with 4 parallel MPI-processes     *
           *              working on a common directory               *
           ************************************************************
------------------------------------------------------------------------------
                           ORCA GTO INTEGRAL CALCULATION
                           -- RI-GTO INTEGRALS CHOSEN --
------------------------------------------------------------------------------
------------------------------------------------------------------------------
                   ___                                                        
                  /   \      - P O W E R E D   B Y -                         
                 /     \                                                     
                 |  |  |   _    _      __       _____    __    __             
                 |  |  |  | |  | |    /  \     |  _  \  |  |  /  |          
                  \  \/   | |  | |   /    \    | | | |  |  | /  /          
                 / \  \   | |__| |  /  /\  \   | |_| |  |  |/  /          
                |  |  |   |  __  | /  /__\  \  |    /   |      \           
                |  |  |   | |  | | |   __   |  |    \   |  |\   \          
                \     /   | |  | | |  |  |  |  | |\  \  |  | \   \       
                 \___/    |_|  |_| |__|  |__|  |_| \__\ |__|  \__/        
                                                                              
                      - O R C A' S   B I G   F R I E N D -                    
                                      &                                       
                       - I N T E G R A L  F E E D E R -                       
                                                                              
 v1 FN, 2020, v2 2021                                                         
------------------------------------------------------------------------------


Reading SHARK input file pbeh-3c.SHARKINP.tmp ... ok
----------------------
SHARK INTEGRAL PACKAGE
----------------------

Number of atoms                             ...     15
Number of basis functions                   ...     95
Number of shells                            ...     55
Maximum angular momentum                    ...      2
Integral batch strategy                     ... SHARK/LIBINT Hybrid
RI-J (if used) integral strategy            ... SPLIT-RIJ (Revised 2003 algorithm where possible)
Printlevel                                  ...      1
Contraction scheme used                     ... SEGMENTED contraction
Coulomb Range Separation                    ... NOT USED
Exchange Range Separation                   ... NOT USED
Finite Nucleus Model                        ... NOT USED
Auxiliary Coulomb fitting basis             ... AVAILABLE
   # of basis functions in Aux-J            ...    355
   # of shells in Aux-J                     ...    125
   Maximum angular momentum in Aux-J        ...      4
Auxiliary J/K fitting basis                 ... NOT available
Auxiliary Correlation fitting basis         ... NOT available
Auxiliary 'external' fitting basis          ... NOT available
Integral threshold                          ...     2.500000e-11
Primitive cut-off                           ...     2.500000e-12
Primitive pair pre-selection threshold      ...     2.500000e-12

Calculating pre-screening integrals         ... done (  0.1 sec) Dimension = 55
Organizing shell pair data                  ... done (  0.5 sec)
Shell pair information
Total number of shell pairs                 ...      1540
Shell pairs after pre-screening             ...      1431
Total number of primitive shell pairs       ...      5660
Primitive shell pairs kept                  ...      3887
          la=0 lb=0:    738 shell pairs
          la=1 lb=0:    391 shell pairs
          la=1 lb=1:     55 shell pairs
          la=2 lb=0:    183 shell pairs
          la=2 lb=1:     50 shell pairs
          la=2 lb=2:     14 shell pairs

Calculating one electron integrals          ... done (  0.0 sec)
Calculating RI/J V-Matrix + Cholesky decomp.... done (  0.6 sec)
Calculating Nuclear repulsion               ... done (  0.1 sec) ENN=    168.074404234382 Eh

SHARK setup successfully completed in   2.5 seconds

Maximum memory used throughout the entire GTOINT-calculation: 10.1 MB


           ************************************************************
           *        Program running with 4 parallel MPI-processes     *
           *              working on a common directory               *
           ************************************************************
-------------------------------------------------------------------------------
                                 ORCA SCF
-------------------------------------------------------------------------------

------------
SCF SETTINGS
------------
Hamiltonian:
 Density Functional     Method          .... DFT(GTOs)
 Exchange Functional    Exchange        .... PBE
   PBE kappa parameter   XKappa         ....  1.024500
   PBE mue parameter    XMuePBE         ....  0.123457
 Correlation Functional Correlation     .... PBE
   PBE beta parameter  CBetaPBE         ....  0.030000
 LDA part of GGA corr.  LDAOpt          .... PW91-LDA
 Gradients option       PostSCFGGA      .... off
 Hybrid DFT is turned on
   Fraction HF Exchange ScalHFX         ....  0.420000
   Scaling of DF-GGA-X  ScalDFX         ....  0.580000
   Scaling of DF-GGA-C  ScalDFC         ....  1.000000
   Scaling of DF-LDA-C  ScalLDAC        ....  1.000000
   Perturbative correction              ....  0.000000
   Density functional embedding theory  .... OFF
 RI-approximation to the Coulomb term is turned on
   Number of AuxJ basis functions       .... 355
   RIJ-ON(X) (HFX calculated with O(N)) .... on
   Number of AuxJ basis functions       .... 355
   RIJ-COSX (HFX calculated with COS-X)).... on


General Settings:
 Integral files         IntName         .... pbeh-3c
 Hartree-Fock type      HFTyp           .... RHF
 Total Charge           Charge          ....    0
 Multiplicity           Mult            ....    1
 Number of Electrons    NEL             ....   40
 Basis Dimension        Dim             ....   95
 Nuclear Repulsion      ENuc            ....    168.0744042344 Eh

Convergence Acceleration:
 DIIS                   CNVDIIS         .... on
   Start iteration      DIISMaxIt       ....    12
   Startup error        DIISStart       ....  0.200000
   # of expansion vecs  DIISMaxEq       ....     5
   Bias factor          DIISBfac        ....   1.050
   Max. coefficient     DIISMaxC        ....  10.000
 Trust-Rad. Augm. Hess. CNVTRAH         .... auto
   Auto Start mean grad. ratio tolernc. ....  1.125000
   Auto Start start iteration           ....    20
   Auto Start num. interpolation iter.  ....    10
   Max. Number of Micro iterations      ....    16
   Max. Number of Macro iterations      .... Maxiter - #DIIS iter
   Number of Davidson start vectors     ....     2
   Converg. threshold I  (grad. norm)   ....   1.000e-05
   Converg. threshold II (energy diff.) ....   1.000e-08
   Grad. Scal. Fac. for Micro threshold ....   0.100
   Minimum threshold for Micro iter.    ....   0.010
   NR start threshold (gradient norm)   ....   0.001
   Initial trust radius                 ....   0.400
   Minimum AH scaling param. (alpha)    ....   1.000
   Maximum AH scaling param. (alpha)    .... 1000.000
   Orbital update algorithm             .... Taylor
   White noise on init. David. guess    .... on
   Maximum white noise                  ....   0.010
   Quad. conv. algorithm                .... NR
   COSX micro iterations for RIJONX calc.... off
 SOSCF                  CNVSOSCF        .... on
   Start iteration      SOSCFMaxIt      ....   150
   Startup grad/error   SOSCFStart      ....  0.003300
 Level Shifting         CNVShift        .... on
   Level shift para.    LevelShift      ....    0.2500
   Turn off err/grad.   ShiftErr        ....    0.0010
 Zerner damping         CNVZerner       .... off
 Static damping         CNVDamp         .... on
   Fraction old density DampFac         ....    0.7000
   Max. Damping (<1)    DampMax         ....    0.9800
   Min. Damping (>=0)   DampMin         ....    0.0000
   Turn off err/grad.   DampErr         ....    0.1000
 Fernandez-Rico         CNVRico         .... off

SCF Procedure:
 Maximum # iterations   MaxIter         ....   125
 SCF integral mode      SCFMode         .... Direct
   Integral package                     .... SHARK and LIBINT hybrid scheme
 Reset frequency        DirectResetFreq ....    20
 Integral Threshold     Thresh          ....  2.500e-11 Eh
 Primitive CutOff       TCut            ....  2.500e-12 Eh

Convergence Tolerance:
 Convergence Check Mode ConvCheckMode   .... Total+1el-Energy
 Convergence forced     ConvForced      .... 0
 Energy Change          TolE            ....  1.000e-08 Eh
 1-El. energy change                    ....  1.000e-05 Eh
 Orbital Gradient       TolG            ....  1.000e-05
 Orbital Rotation angle TolX            ....  1.000e-05
 DIIS Error             TolErr          ....  5.000e-07


Diagonalization of the overlap matrix:
Smallest eigenvalue                        ... 3.580e-03
Time for diagonalization                   ...    0.002 sec
Threshold for overlap eigenvalues          ... 1.000e-08
Number of eigenvalues below threshold      ... 0
Time for construction of square roots      ...    0.176 sec
Total time needed                          ...    0.322 sec

--------------------------------
INITIAL GUESS: MINIMAL BASIS EHT
--------------------------------
The minimal basis has 35 functions
EHT matrix was diagonalized
Basis set overlap was calculated now projecting the orbitals
Using GuessMode=FMatrix for the initial guess
C*T matrix was formed
Effective Fockian was calculated
Effective Fockian was diagonalized
Initial density was built
                      ------------------
                      INITIAL GUESS DONE
                      ------------------
-------------------
DFT GRID GENERATION
-------------------

General Integration Accuracy     IntAcc      ... 4.959
Radial Grid Type                 RadialGrid  ... OptM3 with GC (2021)
Angular Grid (max. ang.)         AngularGrid ... 6 (Lebedev-590)
Angular grid pruning method      GridPruning ... 4 (adaptive)
Weight generation scheme         WeightScheme... Becke
Basis function cutoff            BFCut       ... 1.0000e-11
Integration weight cutoff        WCut        ... 1.0000e-14
Angular grids for H and He will be reduced by one unit
Partially contracted basis set               ... off
Rotationally invariant grid construction     ... off

Total number of grid points                  ...   159423
Total number of batches                      ...     2498
Average number of points per batch           ...       63
Average number of grid points per atom       ...    10628
Time for grid setup =    3.338 sec

--------------------
COSX GRID GENERATION
--------------------

GRIDX 1
-------
General Integration Accuracy     IntAcc      ... 4.020
Radial Grid Type                 RadialGrid  ... OptM3 with GC (2021)
Angular Grid (max. ang.)         AngularGrid ... 2 (Lebedev-110)
Angular grid pruning method      GridPruning ... 4 (adaptive)
Weight generation scheme         WeightScheme... Becke
Basis function cutoff            BFCut       ... 1.0000e-11
Integration weight cutoff        WCut        ... 1.0000e-14
Angular grids for H and He will be reduced by one unit
Partially contracted basis set               ... on
Rotationally invariant grid construction     ... off

Total number of grid points                  ...    16778
Total number of batches                      ...      270
Average number of points per batch           ...       62
Average number of grid points per atom       ...     1119
UseSFitting                                  ... on

GRIDX 2
-------
General Integration Accuracy     IntAcc      ... 4.338
Radial Grid Type                 RadialGrid  ... OptM3 with GC (2021)
Angular Grid (max. ang.)         AngularGrid ... 3 (Lebedev-194)
Angular grid pruning method      GridPruning ... 4 (adaptive)
Weight generation scheme         WeightScheme... Becke
Basis function cutoff            BFCut       ... 1.0000e-11
Integration weight cutoff        WCut        ... 1.0000e-14
Angular grids for H and He will be reduced by one unit
Partially contracted basis set               ... on
Rotationally invariant grid construction     ... off

Total number of grid points                  ...    36695
Total number of batches                      ...      581
Average number of points per batch           ...       63
Average number of grid points per atom       ...     2446
UseSFitting                                  ... on

GRIDX 3
-------
General Integration Accuracy     IntAcc      ... 4.871
Radial Grid Type                 RadialGrid  ... OptM3 with GC (2021)
Angular Grid (max. ang.)         AngularGrid ... 4 (Lebedev-302)
Angular grid pruning method      GridPruning ... 4 (adaptive)
Weight generation scheme         WeightScheme... Becke
Basis function cutoff            BFCut       ... 1.0000e-11
Integration weight cutoff        WCut        ... 1.0000e-14
Angular grids for H and He will be reduced by one unit
Partially contracted basis set               ... on
Rotationally invariant grid construction     ... off

Total number of grid points                  ...    73290
Total number of batches                      ...     1152
Average number of points per batch           ...       63
Average number of grid points per atom       ...     4886
UseSFitting                                  ... on

Time for X-Grid setup             =    3.783 sec

--------------
SCF ITERATIONS
--------------
ITER       Energy         Delta-E        Max-DP      RMS-DP      [F,P]     Damp
               ***  Starting incremental Fock matrix formation  ***
  0   -195.7007321733   0.000000000000 0.05993583  0.00307775  0.3976432 0.7000
  1   -195.8195037667  -0.118771593402 0.04303059  0.00231763  0.2822020 0.7000
                               ***Turning on DIIS***
  2   -195.9047540857  -0.085250319034 0.03118683  0.00171738  0.1993530 0.7000
  3   -195.9654303112  -0.060676225478 0.02405046  0.00133889  0.1406581 0.7000
  4   -196.0085073770  -0.043077065830 0.06142799  0.00335331  0.0985216 0.0000
                      *** Initiating the SOSCF procedure ***
                           *** Shutting down DIIS ***
                      *** Re-Reading the Fockian *** 
                      *** Removing any level shift *** 
ITER      Energy       Delta-E        Grad      Rot      Max-DP    RMS-DP
  5   -196.11142613  -0.1029187510  0.001686  0.001686  0.003243  0.000151
               *** Restarting incremental Fock matrix formation ***
  6   -196.11146751  -0.0000413798  0.000512  0.000685  0.001628  0.000086
  7   -196.11147498  -0.0000074766  0.000187  0.000344  0.000739  0.000036
  8   -196.11147571  -0.0000007228  0.000101  0.000139  0.000317  0.000014
  9   -196.11147598  -0.0000002706  0.000028  0.000071  0.000078  0.000003
 10   -196.11147598   0.0000000022  0.000031  0.000037  0.000050  0.000002
                  ***Gradient check signals convergence***
              ***Rediagonalizing the Fockian in SOSCF/NRSCF***

               *****************************************************
               *                     SUCCESS                       *
               *           SCF CONVERGED AFTER  11 CYCLES          *
               *****************************************************

Old exchange energy                            =    -12.347033251 Eh
New exchange energy                            =    -12.347030203 Eh
Exchange energy change after final integration =      0.000003048 Eh
Total energy after final integration           =   -196.111472937 Eh
Final COS-X integration done in                =     2.430 sec

----------------
TOTAL SCF ENERGY
----------------

Total Energy       :         -196.11147294 Eh           -5336.46448 eV

Components:
Nuclear Repulsion  :          168.07440423 Eh            4573.53705 eV
Electronic Energy  :         -364.18587717 Eh           -9910.00153 eV
One Electron Energy:         -595.18373156 Eh          -16195.77271 eV
Two Electron Energy:          230.99785439 Eh            6285.77118 eV
Max COSX asymmetry :            0.00000113 Eh               0.00003 eV

Virial components:
Potential Energy   :         -390.39478111 Eh          -10623.18207 eV
Kinetic Energy     :          194.28330818 Eh            5286.71759 eV
Virial Ratio       :            2.00940979


DFT components:
N(Alpha)           :       20.000003571666 electrons
N(Beta)            :       20.000003571666 electrons
N(Total)           :       40.000007143332 electrons
E(X)               :      -16.361970700889 Eh       
E(C)               :       -1.677789780543 Eh       
E(XC)              :      -18.039760481432 Eh       
DFET-embed. en.    :        0.000000000000 Eh       

---------------
SCF CONVERGENCE
---------------

  Last Energy change         ...   -8.5866e-09  Tolerance :   1.0000e-08
  Last MAX-Density change    ...    1.2212e-15  Tolerance :   1.0000e-07
  Last RMS-Density change    ...    4.0855e-17  Tolerance :   5.0000e-09
  Last Orbital Gradient      ...    1.1787e-06  Tolerance :   1.0000e-05
  Last Orbital Rotation      ...    1.6499e-06  Tolerance :   1.0000e-05

             **** THE GBW FILE WAS UPDATED (pbeh-3c.gbw) ****
             **** DENSITY pbeh-3c.scfp WAS UPDATED ****
             **** ENERGY FILE WAS UPDATED (pbeh-3c.en.tmp) ****
             **** THE GBW FILE WAS UPDATED (pbeh-3c.gbw) ****
             **** DENSITY pbeh-3c.scfp WAS UPDATED ****
----------------
ORBITAL ENERGIES
----------------

  NO   OCC          E(Eh)            E(eV) 
   0   2.0000     -10.439343      -284.0690 
   1   2.0000     -10.437894      -284.0295 
   2   2.0000     -10.436310      -283.9864 
   3   2.0000     -10.431165      -283.8464 
   4   2.0000     -10.426593      -283.7220 
   5   2.0000      -0.892756       -24.2931 
   6   2.0000      -0.837322       -22.7847 
   7   2.0000      -0.757985       -20.6258 
   8   2.0000      -0.677916       -18.4470 
   9   2.0000      -0.611262       -16.6333 
  10   2.0000      -0.510594       -13.8940 
  11   2.0000      -0.510030       -13.8786 
  12   2.0000      -0.467786       -12.7291 
  13   2.0000      -0.459133       -12.4936 
  14   2.0000      -0.448611       -12.2073 
  15   2.0000      -0.418734       -11.3943 
  16   2.0000      -0.406905       -11.0725 
  17   2.0000      -0.386276       -10.5111 
  18   2.0000      -0.378153       -10.2901 
  19   2.0000      -0.281045        -7.6476 
  20   0.0000       0.055512         1.5106 
  21   0.0000       0.156968         4.2713 
  22   0.0000       0.169792         4.6203 
  23   0.0000       0.171873         4.6769 
  24   0.0000       0.197211         5.3664 
  25   0.0000       0.209867         5.7108 
  26   0.0000       0.213483         5.8092 
  27   0.0000       0.220223         5.9926 
  28   0.0000       0.227414         6.1882 
  29   0.0000       0.233287         6.3481 
  30   0.0000       0.236718         6.4414 
  31   0.0000       0.253553         6.8995 
  32   0.0000       0.278877         7.5886 
  33   0.0000       0.339523         9.2389 
  34   0.0000       0.443722        12.0743 
  35   0.0000       0.496370        13.5069 
  36   0.0000       0.509092        13.8531 
  37   0.0000       0.517647        14.0859 
  38   0.0000       0.528172        14.3723 
  39   0.0000       0.544954        14.8290 
  40   0.0000       0.576390        15.6844 
  41   0.0000       0.614450        16.7200 
  42   0.0000       0.625690        17.0259 
  43   0.0000       0.645396        17.5621 
  44   0.0000       0.686504        18.6807 
  45   0.0000       0.697527        18.9807 
  46   0.0000       0.740076        20.1385 
  47   0.0000       0.802595        21.8397 
  48   0.0000       0.823646        22.4126 
  49   0.0000       0.864123        23.5140 
  50   0.0000       0.969783        26.3891 
  51   0.0000       0.973700        26.4957 
  52   0.0000       1.007198        27.4073 
  53   0.0000       1.016932        27.6721 
  54   0.0000       1.024922        27.8896 
  55   0.0000       1.042394        28.3650 
  56   0.0000       1.058182        28.7946 
  57   0.0000       1.067236        29.0410 
  58   0.0000       1.077387        29.3172 
  59   0.0000       1.080108        29.3912 
  60   0.0000       1.162368        31.6296 
  61   0.0000       1.178219        32.0610 
  62   0.0000       1.256250        34.1843 
  63   0.0000       1.352686        36.8085 
  64   0.0000       1.428846        38.8809 
  65   0.0000       1.494297        40.6619 
  66   0.0000       1.523317        41.4516 
  67   0.0000       1.680790        45.7366 
  68   0.0000       1.700224        46.2654 
  69   0.0000       1.812955        49.3330 
  70   0.0000       1.840287        50.0768 
  71   0.0000       1.912350        52.0377 
  72   0.0000       1.980002        53.8786 
  73   0.0000       2.001271        54.4573 
  74   0.0000       2.012319        54.7580 
  75   0.0000       2.043885        55.6169 
  76   0.0000       2.128945        57.9315 
  77   0.0000       2.190533        59.6074 
  78   0.0000       2.293242        62.4023 
  79   0.0000       2.320054        63.1319 
  80   0.0000       2.354048        64.0569 
  81   0.0000       2.370707        64.5102 
  82   0.0000       2.412234        65.6402 
  83   0.0000       2.449994        66.6677 
  84   0.0000       2.488213        67.7077 
  85   0.0000       2.562669        69.7338 
  86   0.0000       2.661407        72.4206 
  87   0.0000       2.720241        74.0215 
  88   0.0000       2.899396        78.8966 
  89   0.0000       3.017790        82.1182 
  90   0.0000      13.406945       364.8215 
  91   0.0000      13.697546       372.7292 
  92   0.0000      13.854393       376.9972 
  93   0.0000      13.985255       380.5581 
  94   0.0000      14.208862       386.6428 

                    ********************************
                    * MULLIKEN POPULATION ANALYSIS *
                    ********************************

-----------------------
MULLIKEN ATOMIC CHARGES
-----------------------
   0 C :   -0.634081
   1 H :    0.208781
   2 H :    0.219637
   3 H :    0.216124
   4 C :   -0.466860
   5 H :    0.214842
   6 H :    0.216700
   7 C :   -0.161483
   8 H :    0.198473
   9 C :   -0.195171
  10 H :    0.201331
  11 C :   -0.680814
  12 H :    0.221094
  13 H :    0.221339
  14 H :    0.220088
Sum of atomic charges:   -0.0000000

--------------------------------
MULLIKEN REDUCED ORBITAL CHARGES
--------------------------------
  0 C s       :     3.381553  s :     3.381553
      pz      :     0.983823  p :     3.215969
      px      :     1.122822
      py      :     1.109324
      dz2     :     0.009045  d :     0.036560
      dxz     :     0.005998
      dyz     :     0.007474
      dx2y2   :     0.010425
      dxy     :     0.003616
  1 H s       :     0.791219  s :     0.791219
  2 H s       :     0.780363  s :     0.780363
  3 H s       :     0.783876  s :     0.783876
  4 C s       :     3.347383  s :     3.347383
      pz      :     0.983251  p :     3.075591
      px      :     0.969363
      py      :     1.122977
      dz2     :     0.009372  d :     0.043886
      dxz     :     0.009906
      dyz     :     0.007550
      dx2y2   :     0.010049
      dxy     :     0.007010
  5 H s       :     0.785158  s :     0.785158
  6 H s       :     0.783300  s :     0.783300
  7 C s       :     3.221479  s :     3.221479
      pz      :     0.990248  p :     2.900563
      px      :     0.909454
      py      :     1.000861
      dz2     :     0.004522  d :     0.039440
      dxz     :     0.005630
      dyz     :     0.003835
      dx2y2   :     0.012742
      dxy     :     0.012711
  8 H s       :     0.801527  s :     0.801527
  9 C s       :     3.237637  s :     3.237637
      pz      :     0.989995  p :     2.917744
      px      :     0.914793
      py      :     1.012956
      dz2     :     0.004584  d :     0.039790
      dxz     :     0.005787
      dyz     :     0.003828
      dx2y2   :     0.012920
      dxy     :     0.012671
 10 H s       :     0.798669  s :     0.798669
 11 C s       :     3.397070  s :     3.397070
      pz      :     1.120126  p :     3.246694
      px      :     0.979807
      py      :     1.146762
      dz2     :     0.008364  d :     0.037050
      dxz     :     0.007359
      dyz     :     0.005544
      dx2y2   :     0.008365
      dxy     :     0.007418
 12 H s       :     0.778906  s :     0.778906
 13 H s       :     0.778661  s :     0.778661
 14 H s       :     0.779912  s :     0.779912


                     *******************************
                     * LOEWDIN POPULATION ANALYSIS *
                     *******************************

----------------------
LOEWDIN ATOMIC CHARGES
----------------------
   0 C :   -0.359775
   1 H :    0.123819
   2 H :    0.127923
   3 H :    0.125702
   4 C :   -0.241190
   5 H :    0.125587
   6 H :    0.127845
   7 C :   -0.155403
   8 H :    0.123173
   9 C :   -0.160543
  10 H :    0.123911
  11 C :   -0.357516
  12 H :    0.132704
  13 H :    0.132842
  14 H :    0.130922

-------------------------------
LOEWDIN REDUCED ORBITAL CHARGES
-------------------------------
  0 C s       :     2.962921  s :     2.962921
      pz      :     1.078428  p :     3.329281
      px      :     1.124147
      py      :     1.126705
      dz2     :     0.018315  d :     0.067573
      dxz     :     0.011540
      dyz     :     0.014563
      dx2y2   :     0.017374
      dxy     :     0.005782
  1 H s       :     0.876181  s :     0.876181
  2 H s       :     0.872077  s :     0.872077
  3 H s       :     0.874298  s :     0.874298
  4 C s       :     2.909838  s :     2.909838
      pz      :     1.070431  p :     3.241908
      px      :     1.065187
      py      :     1.106290
      dz2     :     0.020298  d :     0.089445
      dxz     :     0.020516
      dyz     :     0.014265
      dx2y2   :     0.020674
      dxy     :     0.013692
  5 H s       :     0.874413  s :     0.874413
  6 H s       :     0.872155  s :     0.872155
  7 C s       :     2.914014  s :     2.914014
      pz      :     0.994477  p :     3.153989
      px      :     1.059379
      py      :     1.100134
      dz2     :     0.007598  d :     0.087400
      dxz     :     0.012302
      dyz     :     0.007289
      dx2y2   :     0.031033
      dxy     :     0.029178
  8 H s       :     0.876827  s :     0.876827
  9 C s       :     2.912932  s :     2.912932
      pz      :     0.998614  p :     3.159679
      px      :     1.058873
      py      :     1.102192
      dz2     :     0.007661  d :     0.087932
      dxz     :     0.012483
      dyz     :     0.007233
      dx2y2   :     0.031507
      dxy     :     0.029049
 10 H s       :     0.876089  s :     0.876089
 11 C s       :     2.950554  s :     2.950554
      pz      :     1.126175  p :     3.337431
      px      :     1.078991
      py      :     1.132265
      dz2     :     0.014670  d :     0.069532
      dxz     :     0.014428
      dyz     :     0.008701
      dx2y2   :     0.017119
      dxy     :     0.014613
 12 H s       :     0.867296  s :     0.867296
 13 H s       :     0.867158  s :     0.867158
 14 H s       :     0.869078  s :     0.869078


                      *****************************
                      * MAYER POPULATION ANALYSIS *
                      *****************************

  NA   - Mulliken gross atomic population
  ZA   - Total nuclear charge
  QA   - Mulliken gross atomic charge
  VA   - Mayer's total valence
  BVA  - Mayer's bonded valence
  FA   - Mayer's free valence

  ATOM       NA         ZA         QA         VA         BVA        FA
  0 C      6.6341     6.0000    -0.6341     3.7225     3.7225    -0.0000
  1 H      0.7912     1.0000     0.2088     0.9158     0.9158     0.0000
  2 H      0.7804     1.0000     0.2196     0.9125     0.9125     0.0000
  3 H      0.7839     1.0000     0.2161     0.9146     0.9146    -0.0000
  4 C      6.4669     6.0000    -0.4669     3.7696     3.7696    -0.0000
  5 H      0.7852     1.0000     0.2148     0.9117     0.9117    -0.0000
  6 H      0.7833     1.0000     0.2167     0.9020     0.9020    -0.0000
  7 C      6.1615     6.0000    -0.1615     3.7737     3.7737    -0.0000
  8 H      0.8015     1.0000     0.1985     0.9227     0.9227    -0.0000
  9 C      6.1952     6.0000    -0.1952     3.7967     3.7967    -0.0000
 10 H      0.7987     1.0000     0.2013     0.9226     0.9226    -0.0000
 11 C      6.6808     6.0000    -0.6808     3.7487     3.7487    -0.0000
 12 H      0.7789     1.0000     0.2211     0.9068     0.9068    -0.0000
 13 H      0.7787     1.0000     0.2213     0.9067     0.9067    -0.0000
 14 H      0.7799     1.0000     0.2201     0.9165     0.9165    -0.0000

  Mayer bond orders larger than 0.100000
B(  0-C ,  1-H ) :   0.9301 B(  0-C ,  2-H ) :   0.9275 B(  0-C ,  3-H ) :   0.9293 
B(  0-C ,  4-C ) :   0.9747 B(  4-C ,  5-H ) :   0.9236 B(  4-C ,  6-H ) :   0.9130 
B(  4-C ,  7-C ) :   0.9933 B(  7-C ,  8-H ) :   0.9188 B(  7-C ,  9-C ) :   1.9037 
B(  9-C , 10-H ) :   0.9217 B(  9-C , 11-C ) :   0.9946 B( 11-C , 12-H ) :   0.9176 
B( 11-C , 13-H ) :   0.9174 B( 11-C , 14-H ) :   0.9312 

-------
TIMINGS
-------

Total SCF time: 0 days 0 hours 1 min 9 sec 

Total time                  ....      69.755 sec
Sum of individual times     ....      62.204 sec  ( 89.2%)

Fock matrix formation       ....      50.514 sec  ( 72.4%)
  Split-RI-J                ....       5.017 sec  (  9.9% of F)
  Chain of spheres X        ....      15.880 sec  ( 31.4% of F)
  XC integration            ....      15.413 sec  ( 30.5% of F)
    Basis function eval.    ....       1.872 sec  ( 12.1% of XC)
    Density eval.           ....       1.200 sec  (  7.8% of XC)
    XC-Functional eval.     ....       0.935 sec  (  6.1% of XC)
    XC-Potential eval.      ....       0.582 sec  (  3.8% of XC)
Diagonalization             ....       0.825 sec  (  1.2%)
Density matrix formation    ....       0.109 sec  (  0.2%)
Population analysis         ....       0.606 sec  (  0.9%)
Initial guess               ....       0.090 sec  (  0.1%)
Orbital Transformation      ....       0.000 sec  (  0.0%)
Orbital Orthonormalization  ....       0.000 sec  (  0.0%)
DIIS solution               ....       2.177 sec  (  3.1%)
SOSCF solution              ....       0.763 sec  (  1.1%)
Grid generation             ....       7.121 sec  ( 10.2%)

Maximum memory used throughout the entire SCF-calculation: 51.3 MB


-------------------------------------------------------------------------------
                          DFT DISPERSION CORRECTION                            
                                                                               
                              DFTD3 V3.1  Rev 1                                
                          USING Becke-Johnson damping                          
-------------------------------------------------------------------------------
The PBEh-3c composite method is recognized
Using three-body term ABC
Active option DFTDOPT                   ...         4   

molecular C6(AA) [au] = 1637.266959 


            DFT-D V3
 parameters
 s6 scaling factor         :     1.0000 
 a1 scaling factor         :     0.4860 
 s8 scaling factor         :     0.0000 
 a2 scaling factor         :     4.5000 
 Damping factor alpha9(ATM):    16.0000 
 ad hoc parameters k1-k3   :    16.0000     1.3333    -4.0000 

 Edisp/kcal,au: -3.639151491659  -0.005799356430 
 E6   /kcal   :  -3.644908812 
 E8   /kcal   :  -0.000000000 
 E6(ABC)      :   0.005757321 
 % E8         :   0.000000000 
 % E6(ABC)    :  -0.158205030 

-------------------------   ----------------
Dispersion correction           -0.005799356
-------------------------   ----------------

------------------   -----------------
gCP correction             0.017678138
------------------   -----------------

-------------------------   --------------------
FINAL SINGLE POINT ENERGY      -196.099594154869
-------------------------   --------------------


                            ***************************************
                            *     ORCA property calculations      *
                            ***************************************

                                    ---------------------
                                    Active property flags
                                    ---------------------
   (+) Dipole Moment


------------------------------------------------------------------------------
                       ORCA ELECTRIC PROPERTIES CALCULATION
------------------------------------------------------------------------------

Dipole Moment Calculation                       ... on
Quadrupole Moment Calculation                   ... off
Polarizability Calculation                      ... off
GBWName                                         ... pbeh-3c.gbw
Electron density                                ... pbeh-3c.scfp
The origin for moment calculation is the CENTER OF MASS  = ( 0.031650,  0.049142  0.140012)

-------------
DIPOLE MOMENT
-------------
                                X             Y             Z
Electronic contribution:      0.26687       0.41366       1.13220
Nuclear contribution   :     -0.25729      -0.39948      -1.13818
                        -----------------------------------------
Total Dipole Moment    :      0.00958       0.01418      -0.00598
                        -----------------------------------------
Magnitude (a.u.)       :      0.01812
Magnitude (Debye)      :      0.04607



--------------------
Rotational spectrum 
--------------------
 
Rotational constants in cm-1:     0.572715     0.069122     0.067248 
Rotational constants in MHz : 17169.566354  2072.239849  2016.033287 

 Dipole components along the rotational axes: 
x,y,z [a.u.] :     0.009792     0.003079    -0.014938 
x,y,z [Debye]:     0.024890     0.007827    -0.037969 

 

Timings for individual modules:

Sum of individual times         ...       73.993 sec (=   1.233 min)
GTO integral calculation        ...        3.129 sec (=   0.052 min)   4.2 %
SCF iterations                  ...       70.864 sec (=   1.181 min)  95.8 %
                             ****ORCA TERMINATED NORMALLY****
TOTAL RUN TIME: 0 days 0 hours 1 minutes 22 seconds 333 msec
