
                                 *****************
                                 * O   R   C   A *
                                 *****************

                                            #,                                       
                                            ###                                      
                                            ####                                     
                                            #####                                    
                                            ######                                   
                                           ########,                                 
                                     ,,################,,,,,                         
                               ,,#################################,,                 
                          ,,##########################################,,             
                       ,#########################################, ''#####,          
                    ,#############################################,,   '####,        
                  ,##################################################,,,,####,       
                ,###########''''           ''''###############################       
              ,#####''   ,,,,##########,,,,          '''####'''          '####       
            ,##' ,,,,###########################,,,                        '##       
           ' ,,###''''                  '''############,,,                           
         ,,##''                                '''############,,,,        ,,,,,,###''
      ,#''                                            '''#######################'''  
     '                                                          ''''####''''         
             ,#######,   #######,   ,#######,      ##                                
            ,#'     '#,  ##    ##  ,#'     '#,    #''#        ######   ,####,        
            ##       ##  ##   ,#'  ##            #'  '#       #        #'  '#        
            ##       ##  #######   ##           ,######,      #####,   #    #        
            '#,     ,#'  ##    ##  '#,     ,#' ,#      #,         ##   #,  ,#        
             '#######'   ##     ##  '#######'  #'      '#     #####' # '####'        



                  #######################################################
                  #                        -***-                        #
                  #          Department of theory and spectroscopy      #
                  #    Directorship and core code : Frank Neese         #
                  #        Max Planck Institute fuer Kohlenforschung    #
                  #                Kaiser Wilhelm Platz 1               #
                  #                 D-45470 Muelheim/Ruhr               #
                  #                      Germany                        #
                  #                                                     #
                  #                  All rights reserved                #
                  #                        -***-                        #
                  #######################################################


                         Program Version 5.0.3 -  RELEASE  -


 With contributions from (in alphabetic order):
   Daniel Aravena         : Magnetic Suceptibility
   Michael Atanasov       : Ab Initio Ligand Field Theory (pilot matlab implementation)
   Alexander A. Auer      : GIAO ZORA, VPT2 properties, NMR spectrum
   Ute Becker             : Parallelization
   Giovanni Bistoni       : ED, misc. LED, open-shell LED, HFLD
   Martin Brehm           : Molecular dynamics
   Dmytro Bykov           : SCF Hessian
   Vijay G. Chilkuri      : MRCI spin determinant printing, contributions to CSF-ICE
   Dipayan Datta          : RHF DLPNO-CCSD density
   Achintya Kumar Dutta   : EOM-CC, STEOM-CC
   Dmitry Ganyushin       : Spin-Orbit,Spin-Spin,Magnetic field MRCI
   Miquel Garcia          : C-PCM and meta-GGA Hessian, CC/C-PCM, Gaussian charge scheme
   Yang Guo               : DLPNO-NEVPT2, F12-NEVPT2, CIM, IAO-localization
   Andreas Hansen         : Spin unrestricted coupled pair/coupled cluster methods
   Benjamin Helmich-Paris : MC-RPA, TRAH-SCF, COSX integrals
   Lee Huntington         : MR-EOM, pCC
   Robert Izsak           : Overlap fitted RIJCOSX, COSX-SCS-MP3, EOM
   Marcus Kettner         : VPT2
   Christian Kollmar      : KDIIS, OOCD, Brueckner-CCSD(T), CCSD density, CASPT2, CASPT2-K
   Simone Kossmann        : Meta GGA functionals, TD-DFT gradient, OOMP2, MP2 Hessian
   Martin Krupicka        : Initial AUTO-CI
   Lucas Lang             : DCDCAS
   Marvin Lechner         : AUTO-CI (C++ implementation), FIC-MRCC
   Dagmar Lenk            : GEPOL surface, SMD
   Dimitrios Liakos       : Extrapolation schemes; Compound Job, initial MDCI parallelization
   Dimitrios Manganas     : Further ROCIS development; embedding schemes
   Dimitrios Pantazis     : SARC Basis sets
   Anastasios Papadopoulos: AUTO-CI, single reference methods and gradients
   Taras Petrenko         : DFT Hessian,TD-DFT gradient, ASA, ECA, R-Raman, ABS, FL, XAS/XES, NRVS
   Peter Pinski           : DLPNO-MP2, DLPNO-MP2 Gradient
   Christoph Reimann      : Effective Core Potentials
   Marius Retegan         : Local ZFS, SOC
   Christoph Riplinger    : Optimizer, TS searches, QM/MM, DLPNO-CCSD(T), (RO)-DLPNO pert. Triples
   Tobias Risthaus        : Range-separated hybrids, TD-DFT gradient, RPA, STAB
   Michael Roemelt        : Original ROCIS implementation
   Masaaki Saitow         : Open-shell DLPNO-CCSD energy and density
   Barbara Sandhoefer     : DKH picture change effects
   Avijit Sen             : IP-ROCIS
   Kantharuban Sivalingam : CASSCF convergence, NEVPT2, FIC-MRCI
   Bernardo de Souza      : ESD, SOC TD-DFT
   Georgi Stoychev        : AutoAux, RI-MP2 NMR, DLPNO-MP2 response
   Willem Van den Heuvel  : Paramagnetic NMR
   Boris Wezisla          : Elementary symmetry handling
   Frank Wennmohs         : Technical directorship


 We gratefully acknowledge several colleagues who have allowed us to
 interface, adapt or use parts of their codes:
   Stefan Grimme, W. Hujo, H. Kruse, P. Pracht,  : VdW corrections, initial TS optimization,
                  C. Bannwarth, S. Ehlert          DFT functionals, gCP, sTDA/sTD-DF
   Ed Valeev, F. Pavosevic, A. Kumar             : LibInt (2-el integral package), F12 methods
   Garnet Chan, S. Sharma, J. Yang, R. Olivares  : DMRG
   Ulf Ekstrom                                   : XCFun DFT Library
   Mihaly Kallay                                 : mrcc  (arbitrary order and MRCC methods)
   Jiri Pittner, Ondrej Demel                    : Mk-CCSD
   Frank Weinhold                                : gennbo (NPA and NBO analysis)
   Christopher J. Cramer and Donald G. Truhlar   : smd solvation model
   Lars Goerigk                                  : TD-DFT with DH, B97 family of functionals
   V. Asgeirsson, H. Jonsson                     : NEB implementation
   FAccTs GmbH                                   : IRC, NEB, NEB-TS, DLPNO-Multilevel, CI-OPT
                                                   MM, QMMM, 2- and 3-layer-ONIOM, Crystal-QMMM,
                                                   LR-CPCM, SF, NACMEs, symmetry and pop. for TD-DFT,
                                                   nearIR, NL-DFT gradient (VV10), updates on ESD,
                                                   ML-optimized integration grids
   S Lehtola, MJT Oliveira, MAL Marques          : LibXC Library
   Liviu Ungur et al                             : ANISO software


 Your calculation uses the libint2 library for the computation of 2-el integrals
 For citations please refer to: http://libint.valeyev.net

 Your ORCA version has been built with support for libXC version: 5.1.0
 For citations please refer to: https://tddft.org/programs/libxc/

 This ORCA versions uses:
   CBLAS   interface :  Fast vector & matrix operations
   LAPACKE interface :  Fast linear algebra routines
   SCALAPACK package :  Parallel linear algebra routines
   Shared memory     :  Shared parallel matrices
   BLAS/LAPACK       :  OpenBLAS 0.3.15  USE64BITINT DYNAMIC_ARCH NO_AFFINITY Haswell SINGLE_THREADED
        Core in use  :  Haswell
   Copyright (c) 2011-2014, The OpenBLAS Project




***************************************
The coordinates will be read from file: 46B.xyz
***************************************


Your calculation utilizes the geometrical counterpoise correction gCP
Please cite in your paper:
H.Kruse, S. Grimme J.Chem.Phys., 136, (2012), 154101 
   

Your calculation utilizes the atom-pairwise dispersion correction
with the Becke-Johnson damping scheme (D3BJ)
Cite in your paper:
S.Grimme, S.Ehrlich, L.Goerigk, J Comput Chem, (2011), 32, 1456–1465 
S.Grimme, J.Antony, S.Ehrlich and H.Krieg, J.Chem.Phys., 132, (2010), 154104 
   

Your calculation employs the composite approach PBEh-3c.
Please cite in your paper:
S. Grimme, J. G. Brandenburg, C. Bannwarth, A. Hansen J.Chem.Phys., 143, (2015), 054107 
   

================================================================================

----- Orbital basis set information -----
Your calculation utilizes the basis: def2-mSVP

----- AuxJ basis set information -----
Your calculation utilizes the auxiliary basis: def2/J
   F. Weigend, Phys. Chem. Chem. Phys. 8, 1057 (2006).

================================================================================
                                        WARNINGS
                       Please study these warnings very carefully!
================================================================================


INFO   : the flag for use of the SHARK integral package has been found!

================================================================================
                                       INPUT FILE
================================================================================
NAME = pbeh-3c.inp
|  1> ! PBEh-3c def2/J TightSCF DefGrid3
|  2> 
|  3> %maxcore 60000
|  4> 
|  5> %pal
|  6> nprocs 4
|  7> end
|  8> 
|  9> *xyzfile 0 1 46B.xyz
| 10> 
| 11>                          ****END OF INPUT****
================================================================================

                       ****************************
                       * Single Point Calculation *
                       ****************************

---------------------------------
CARTESIAN COORDINATES (ANGSTROEM)
---------------------------------
  C      2.504130    0.327563    0.344978
  H      2.620969    1.081979   -0.433767
  H      2.418020    0.852449    1.296634
  H      3.416221   -0.266679    0.371786
  C      1.275858   -0.535825    0.087426
  H      1.181288   -1.281279    0.880477
  H      1.392278   -1.089289   -0.846417
  C     -0.006680    0.282789    0.022125
  H     -0.118250    0.860524    0.945209
  H      0.072554    1.015604   -0.787528
  C     -1.251036   -0.567546   -0.194755
  H     -1.341838   -1.282032    0.626662
  H     -1.123229   -1.156484   -1.104969
  C     -2.517875    0.272745   -0.284870
  H     -2.450961    0.979796   -1.112639
  H     -3.403217   -0.343272   -0.438702
  H     -2.668231    0.848957    0.628350

----------------------------
CARTESIAN COORDINATES (A.U.)
----------------------------
  NO LB      ZA    FRAG     MASS         X           Y           Z
   0 C     6.0000    0    12.011    4.732120    0.619004    0.651914
   1 H     1.0000    0     1.008    4.952914    2.044643   -0.819701
   2 H     1.0000    0     1.008    4.569395    1.610895    2.450283
   3 H     1.0000    0     1.008    6.455722   -0.503950    0.702574
   4 C     6.0000    0    12.011    2.411022   -1.012562    0.165212
   5 H     1.0000    0     1.008    2.232312   -2.421266    1.663861
   6 H     1.0000    0     1.008    2.631024   -2.058458   -1.599497
   7 C     6.0000    0    12.011   -0.012623    0.534394    0.041810
   8 H     1.0000    0     1.008   -0.223461    1.626155    1.786185
   9 H     1.0000    0     1.008    0.137107    1.919213   -1.488211
  10 C     6.0000    0    12.011   -2.364116   -1.072507   -0.368033
  11 H     1.0000    0     1.008   -2.535707   -2.422690    1.184220
  12 H     1.0000    0     1.008   -2.122596   -2.185437   -2.088089
  13 C     6.0000    0    12.011   -4.758094    0.515414   -0.538326
  14 H     1.0000    0     1.008   -4.631646    1.851547   -2.102583
  15 H     1.0000    0     1.008   -6.431148   -0.648690   -0.829028
  16 H     1.0000    0     1.008   -5.042225    1.604295    1.187409

--------------------------------
INTERNAL COORDINATES (ANGSTROEM)
--------------------------------
 C      0   0   0     0.000000000000     0.00000000     0.00000000
 H      1   0   0     1.090522001486     0.00000000     0.00000000
 H      1   2   0     1.090215462205   107.38206620     0.00000000
 H      1   2   3     1.088922728060   107.77985942   243.98193707
 C      1   2   3     1.523293465088   110.96236503   121.35097413
 H      5   1   2     1.092508393560   109.49985057   180.04857974
 H      5   1   2     1.091760242493   110.24097254    63.18013986
 C      5   1   2     1.522923480998   112.43508238   301.32835265
 H      8   5   1     1.094672912735   109.47323999   303.95620883
 H      8   5   1     1.094912282509   109.30076378    59.80023126
 C      8   5   1     1.522671729514   113.21299082   181.66074649
 H     11   8   5     1.092456880359   109.03011809    59.39613760
 H     11   8   5     1.091637530363   108.92721422   303.56812615
 C     11   8   5     1.522855896384   112.34077238   181.15032326
 H     14  11   8     1.090688018998   110.58376979    59.63622216
 H     14  11   8     1.089482736099   111.86205991   180.07392005
 H     14  11   8     1.090227505468   110.90332059   300.41030663

---------------------------
INTERNAL COORDINATES (A.U.)
---------------------------
 C      0   0   0     0.000000000000     0.00000000     0.00000000
 H      1   0   0     2.060787925824     0.00000000     0.00000000
 H      1   2   0     2.060208650533   107.38206620     0.00000000
 H      1   2   3     2.057765737035   107.77985942   243.98193707
 C      1   2   3     2.878607470608   110.96236503   121.35097413
 H      5   1   2     2.064541662839   109.49985057   180.04857974
 H      5   1   2     2.063127862215   110.24097254    63.18013986
 C      5   1   2     2.877908302005   112.43508238   301.32835265
 H      8   5   1     2.068632011291   109.47323999   303.95620883
 H      8   5   1     2.069084354608   109.30076378    59.80023126
 C      8   5   1     2.877432560646   113.21299082   181.66074649
 H     11   8   5     2.064444316997   109.03011809    59.39613760
 H     11   8   5     2.062895969897   108.92721422   303.56812615
 C     11   8   5     2.877780585593   112.34077238   181.15032326
 H     14  11   8     2.061101653456   110.58376979    59.63622216
 H     14  11   8     2.058823998862   111.86205991   180.07392005
 H     14  11   8     2.060231409003   110.90332059   300.41030663

---------------------
BASIS SET INFORMATION
---------------------
There are 2 groups of distinct atoms

 Group   1 Type C   : 8s4p1d contracted to 4s2p1d pattern {5111/31/1}
 Group   2 Type H   : 4s contracted to 2s pattern {31}

Atom   0C    basis set group =>   1
Atom   1H    basis set group =>   2
Atom   2H    basis set group =>   2
Atom   3H    basis set group =>   2
Atom   4C    basis set group =>   1
Atom   5H    basis set group =>   2
Atom   6H    basis set group =>   2
Atom   7C    basis set group =>   1
Atom   8H    basis set group =>   2
Atom   9H    basis set group =>   2
Atom  10C    basis set group =>   1
Atom  11H    basis set group =>   2
Atom  12H    basis set group =>   2
Atom  13C    basis set group =>   1
Atom  14H    basis set group =>   2
Atom  15H    basis set group =>   2
Atom  16H    basis set group =>   2
---------------------------------
AUXILIARY/J BASIS SET INFORMATION
---------------------------------
There are 2 groups of distinct atoms

 Group   1 Type C   : 12s5p4d2f1g contracted to 6s4p3d1f1g pattern {711111/2111/211/2/1}
 Group   2 Type H   : 5s2p1d contracted to 3s1p1d pattern {311/2/1}

Atom   0C    basis set group =>   1
Atom   1H    basis set group =>   2
Atom   2H    basis set group =>   2
Atom   3H    basis set group =>   2
Atom   4C    basis set group =>   1
Atom   5H    basis set group =>   2
Atom   6H    basis set group =>   2
Atom   7C    basis set group =>   1
Atom   8H    basis set group =>   2
Atom   9H    basis set group =>   2
Atom  10C    basis set group =>   1
Atom  11H    basis set group =>   2
Atom  12H    basis set group =>   2
Atom  13C    basis set group =>   1
Atom  14H    basis set group =>   2
Atom  15H    basis set group =>   2
Atom  16H    basis set group =>   2


           ************************************************************
           *        Program running with 4 parallel MPI-processes     *
           *              working on a common directory               *
           ************************************************************
------------------------------------------------------------------------------
                           ORCA GTO INTEGRAL CALCULATION
                           -- RI-GTO INTEGRALS CHOSEN --
------------------------------------------------------------------------------
------------------------------------------------------------------------------
                   ___                                                        
                  /   \      - P O W E R E D   B Y -                         
                 /     \                                                     
                 |  |  |   _    _      __       _____    __    __             
                 |  |  |  | |  | |    /  \     |  _  \  |  |  /  |          
                  \  \/   | |  | |   /    \    | | | |  |  | /  /          
                 / \  \   | |__| |  /  /\  \   | |_| |  |  |/  /          
                |  |  |   |  __  | /  /__\  \  |    /   |      \           
                |  |  |   | |  | | |   __   |  |    \   |  |\   \          
                \     /   | |  | | |  |  |  |  | |\  \  |  | \   \       
                 \___/    |_|  |_| |__|  |__|  |_| \__\ |__|  \__/        
                                                                              
                      - O R C A' S   B I G   F R I E N D -                    
                                      &                                       
                       - I N T E G R A L  F E E D E R -                       
                                                                              
 v1 FN, 2020, v2 2021                                                         
------------------------------------------------------------------------------


Reading SHARK input file pbeh-3c.SHARKINP.tmp ... ok
----------------------
SHARK INTEGRAL PACKAGE
----------------------

Number of atoms                             ...     17
Number of basis functions                   ...     99
Number of shells                            ...     59
Maximum angular momentum                    ...      2
Integral batch strategy                     ... SHARK/LIBINT Hybrid
RI-J (if used) integral strategy            ... SPLIT-RIJ (Revised 2003 algorithm where possible)
Printlevel                                  ...      1
Contraction scheme used                     ... SEGMENTED contraction
Coulomb Range Separation                    ... NOT USED
Exchange Range Separation                   ... NOT USED
Finite Nucleus Model                        ... NOT USED
Auxiliary Coulomb fitting basis             ... AVAILABLE
   # of basis functions in Aux-J            ...    377
   # of shells in Aux-J                     ...    135
   Maximum angular momentum in Aux-J        ...      4
Auxiliary J/K fitting basis                 ... NOT available
Auxiliary Correlation fitting basis         ... NOT available
Auxiliary 'external' fitting basis          ... NOT available
Integral threshold                          ...     2.500000e-11
Primitive cut-off                           ...     2.500000e-12
Primitive pair pre-selection threshold      ...     2.500000e-12

Calculating pre-screening integrals         ... done (  0.1 sec) Dimension = 59
Organizing shell pair data                  ... done (  0.1 sec)
Shell pair information
Total number of shell pairs                 ...      1770
Shell pairs after pre-screening             ...      1642
Total number of primitive shell pairs       ...      6542
Primitive shell pairs kept                  ...      4472
          la=0 lb=0:    897 shell pairs
          la=1 lb=0:    426 shell pairs
          la=1 lb=1:     55 shell pairs
          la=2 lb=0:    200 shell pairs
          la=2 lb=1:     50 shell pairs
          la=2 lb=2:     14 shell pairs

Calculating one electron integrals          ... done (  0.2 sec)
Calculating RI/J V-Matrix + Cholesky decomp.... done (  0.5 sec)
Calculating Nuclear repulsion               ... done (  0.1 sec) ENN=    185.676893352958 Eh

SHARK setup successfully completed in   2.1 seconds

Maximum memory used throughout the entire GTOINT-calculation: 10.3 MB


           ************************************************************
           *        Program running with 4 parallel MPI-processes     *
           *              working on a common directory               *
           ************************************************************
-------------------------------------------------------------------------------
                                 ORCA SCF
-------------------------------------------------------------------------------

------------
SCF SETTINGS
------------
Hamiltonian:
 Density Functional     Method          .... DFT(GTOs)
 Exchange Functional    Exchange        .... PBE
   PBE kappa parameter   XKappa         ....  1.024500
   PBE mue parameter    XMuePBE         ....  0.123457
 Correlation Functional Correlation     .... PBE
   PBE beta parameter  CBetaPBE         ....  0.030000
 LDA part of GGA corr.  LDAOpt          .... PW91-LDA
 Gradients option       PostSCFGGA      .... off
 Hybrid DFT is turned on
   Fraction HF Exchange ScalHFX         ....  0.420000
   Scaling of DF-GGA-X  ScalDFX         ....  0.580000
   Scaling of DF-GGA-C  ScalDFC         ....  1.000000
   Scaling of DF-LDA-C  ScalLDAC        ....  1.000000
   Perturbative correction              ....  0.000000
   Density functional embedding theory  .... OFF
 RI-approximation to the Coulomb term is turned on
   Number of AuxJ basis functions       .... 377
   RIJ-ON(X) (HFX calculated with O(N)) .... on
   Number of AuxJ basis functions       .... 377
   RIJ-COSX (HFX calculated with COS-X)).... on


General Settings:
 Integral files         IntName         .... pbeh-3c
 Hartree-Fock type      HFTyp           .... RHF
 Total Charge           Charge          ....    0
 Multiplicity           Mult            ....    1
 Number of Electrons    NEL             ....   42
 Basis Dimension        Dim             ....   99
 Nuclear Repulsion      ENuc            ....    185.6768933530 Eh

Convergence Acceleration:
 DIIS                   CNVDIIS         .... on
   Start iteration      DIISMaxIt       ....    12
   Startup error        DIISStart       ....  0.200000
   # of expansion vecs  DIISMaxEq       ....     5
   Bias factor          DIISBfac        ....   1.050
   Max. coefficient     DIISMaxC        ....  10.000
 Trust-Rad. Augm. Hess. CNVTRAH         .... auto
   Auto Start mean grad. ratio tolernc. ....  1.125000
   Auto Start start iteration           ....    20
   Auto Start num. interpolation iter.  ....    10
   Max. Number of Micro iterations      ....    16
   Max. Number of Macro iterations      .... Maxiter - #DIIS iter
   Number of Davidson start vectors     ....     2
   Converg. threshold I  (grad. norm)   ....   1.000e-05
   Converg. threshold II (energy diff.) ....   1.000e-08
   Grad. Scal. Fac. for Micro threshold ....   0.100
   Minimum threshold for Micro iter.    ....   0.010
   NR start threshold (gradient norm)   ....   0.001
   Initial trust radius                 ....   0.400
   Minimum AH scaling param. (alpha)    ....   1.000
   Maximum AH scaling param. (alpha)    .... 1000.000
   Orbital update algorithm             .... Taylor
   White noise on init. David. guess    .... on
   Maximum white noise                  ....   0.010
   Quad. conv. algorithm                .... NR
   COSX micro iterations for RIJONX calc.... off
 SOSCF                  CNVSOSCF        .... on
   Start iteration      SOSCFMaxIt      ....   150
   Startup grad/error   SOSCFStart      ....  0.003300
 Level Shifting         CNVShift        .... on
   Level shift para.    LevelShift      ....    0.2500
   Turn off err/grad.   ShiftErr        ....    0.0010
 Zerner damping         CNVZerner       .... off
 Static damping         CNVDamp         .... on
   Fraction old density DampFac         ....    0.7000
   Max. Damping (<1)    DampMax         ....    0.9800
   Min. Damping (>=0)   DampMin         ....    0.0000
   Turn off err/grad.   DampErr         ....    0.1000
 Fernandez-Rico         CNVRico         .... off

SCF Procedure:
 Maximum # iterations   MaxIter         ....   125
 SCF integral mode      SCFMode         .... Direct
   Integral package                     .... SHARK and LIBINT hybrid scheme
 Reset frequency        DirectResetFreq ....    20
 Integral Threshold     Thresh          ....  2.500e-11 Eh
 Primitive CutOff       TCut            ....  2.500e-12 Eh

Convergence Tolerance:
 Convergence Check Mode ConvCheckMode   .... Total+1el-Energy
 Convergence forced     ConvForced      .... 0
 Energy Change          TolE            ....  1.000e-08 Eh
 1-El. energy change                    ....  1.000e-05 Eh
 Orbital Gradient       TolG            ....  1.000e-05
 Orbital Rotation angle TolX            ....  1.000e-05
 DIIS Error             TolErr          ....  5.000e-07


Diagonalization of the overlap matrix:
Smallest eigenvalue                        ... 5.152e-03
Time for diagonalization                   ...    0.002 sec
Threshold for overlap eigenvalues          ... 1.000e-08
Number of eigenvalues below threshold      ... 0
Time for construction of square roots      ...    0.358 sec
Total time needed                          ...    0.361 sec

--------------------------------
INITIAL GUESS: MINIMAL BASIS EHT
--------------------------------
The minimal basis has 37 functions
EHT matrix was diagonalized
Basis set overlap was calculated now projecting the orbitals
Using GuessMode=FMatrix for the initial guess
C*T matrix was formed
Effective Fockian was calculated
Effective Fockian was diagonalized
Initial density was built
                      ------------------
                      INITIAL GUESS DONE
                      ------------------
-------------------
DFT GRID GENERATION
-------------------

General Integration Accuracy     IntAcc      ... 4.959
Radial Grid Type                 RadialGrid  ... OptM3 with GC (2021)
Angular Grid (max. ang.)         AngularGrid ... 6 (Lebedev-590)
Angular grid pruning method      GridPruning ... 4 (adaptive)
Weight generation scheme         WeightScheme... Becke
Basis function cutoff            BFCut       ... 1.0000e-11
Integration weight cutoff        WCut        ... 1.0000e-14
Angular grids for H and He will be reduced by one unit
Partially contracted basis set               ... off
Rotationally invariant grid construction     ... off

Total number of grid points                  ...   175881
Total number of batches                      ...     2756
Average number of points per batch           ...       63
Average number of grid points per atom       ...    10346
Time for grid setup =    3.768 sec

--------------------
COSX GRID GENERATION
--------------------

GRIDX 1
-------
General Integration Accuracy     IntAcc      ... 4.020
Radial Grid Type                 RadialGrid  ... OptM3 with GC (2021)
Angular Grid (max. ang.)         AngularGrid ... 2 (Lebedev-110)
Angular grid pruning method      GridPruning ... 4 (adaptive)
Weight generation scheme         WeightScheme... Becke
Basis function cutoff            BFCut       ... 1.0000e-11
Integration weight cutoff        WCut        ... 1.0000e-14
Angular grids for H and He will be reduced by one unit
Partially contracted basis set               ... on
Rotationally invariant grid construction     ... off

Total number of grid points                  ...    18144
Total number of batches                      ...      293
Average number of points per batch           ...       61
Average number of grid points per atom       ...     1067
UseSFitting                                  ... on

GRIDX 2
-------
General Integration Accuracy     IntAcc      ... 4.338
Radial Grid Type                 RadialGrid  ... OptM3 with GC (2021)
Angular Grid (max. ang.)         AngularGrid ... 3 (Lebedev-194)
Angular grid pruning method      GridPruning ... 4 (adaptive)
Weight generation scheme         WeightScheme... Becke
Basis function cutoff            BFCut       ... 1.0000e-11
Integration weight cutoff        WCut        ... 1.0000e-14
Angular grids for H and He will be reduced by one unit
Partially contracted basis set               ... on
Rotationally invariant grid construction     ... off

Total number of grid points                  ...    39580
Total number of batches                      ...      628
Average number of points per batch           ...       63
Average number of grid points per atom       ...     2328
UseSFitting                                  ... on

GRIDX 3
-------
General Integration Accuracy     IntAcc      ... 4.871
Radial Grid Type                 RadialGrid  ... OptM3 with GC (2021)
Angular Grid (max. ang.)         AngularGrid ... 4 (Lebedev-302)
Angular grid pruning method      GridPruning ... 4 (adaptive)
Weight generation scheme         WeightScheme... Becke
Basis function cutoff            BFCut       ... 1.0000e-11
Integration weight cutoff        WCut        ... 1.0000e-14
Angular grids for H and He will be reduced by one unit
Partially contracted basis set               ... on
Rotationally invariant grid construction     ... off

Total number of grid points                  ...    79887
Total number of batches                      ...     1257
Average number of points per batch           ...       63
Average number of grid points per atom       ...     4699
UseSFitting                                  ... on

Time for X-Grid setup             =    4.336 sec

--------------
SCF ITERATIONS
--------------
ITER       Energy         Delta-E        Max-DP      RMS-DP      [F,P]     Damp
               ***  Starting incremental Fock matrix formation  ***
  0   -196.9772062958   0.000000000000 0.02436047  0.00223717  0.4018988 0.7000
  1   -197.0858477428  -0.108641447025 0.01789575  0.00170339  0.2847861 0.7000
  2   -197.1634857832  -0.077638040449 0.01241463  0.00126550  0.2008694 0.7000
                               ***Turning on DIIS***
  3   -197.2184774439  -0.054991660671 0.00854037  0.00093308  0.1415699 0.7000
  4   -197.2573383550  -0.038860911066 0.02222862  0.00239597  0.0996846 0.0000
                      *** Initiating the SOSCF procedure ***
                           *** Shutting down DIIS ***
                      *** Re-Reading the Fockian *** 
                      *** Removing any level shift *** 
ITER      Energy       Delta-E        Grad      Rot      Max-DP    RMS-DP
  5   -197.34942549  -0.0920871352  0.001307  0.001307  0.001644  0.000164
               *** Restarting incremental Fock matrix formation ***
  6   -197.34947159  -0.0000461004  0.000632  0.001238  0.001020  0.000094
  7   -197.34947699  -0.0000054033  0.000145  0.000258  0.000296  0.000024
  8   -197.34947724  -0.0000002428  0.000098  0.000095  0.000130  0.000009
  9   -197.34947741  -0.0000001703  0.000004  0.000006  0.000010  0.000001
 10   -197.34947741  -0.0000000021  0.000003  0.000002  0.000005  0.000000
                 **** Energy Check signals convergence ****
              ***Rediagonalizing the Fockian in SOSCF/NRSCF***

               *****************************************************
               *                     SUCCESS                       *
               *           SCF CONVERGED AFTER  11 CYCLES          *
               *****************************************************

Old exchange energy                            =    -12.686320958 Eh
New exchange energy                            =    -12.686322794 Eh
Exchange energy change after final integration =     -0.000001836 Eh
Total energy after final integration           =   -197.349479245 Eh
Final COS-X integration done in                =     2.918 sec

----------------
TOTAL SCF ENERGY
----------------

Total Energy       :         -197.34947925 Eh           -5370.15234 eV

Components:
Nuclear Repulsion  :          185.67689335 Eh            5052.52513 eV
Electronic Energy  :         -383.02637260 Eh          -10422.67748 eV
One Electron Energy:         -631.62613773 Eh          -17187.42100 eV
Two Electron Energy:          248.59976513 Eh            6764.74352 eV
Max COSX asymmetry :            0.00000142 Eh               0.00004 eV

Virial components:
Potential Energy   :         -393.03861262 Eh          -10695.12438 eV
Kinetic Energy     :          195.68913338 Eh            5324.97204 eV
Virial Ratio       :            2.00848461


DFT components:
N(Alpha)           :       21.000003230534 electrons
N(Beta)            :       21.000003230534 electrons
N(Total)           :       42.000006461067 electrons
E(X)               :      -16.796209670901 Eh       
E(C)               :       -1.761953869366 Eh       
E(XC)              :      -18.558163540266 Eh       
DFET-embed. en.    :        0.000000000000 Eh       

---------------
SCF CONVERGENCE
---------------

  Last Energy change         ...   -5.3785e-10  Tolerance :   1.0000e-08
  Last MAX-Density change    ...    1.4433e-15  Tolerance :   1.0000e-07
  Last RMS-Density change    ...    4.7441e-17  Tolerance :   5.0000e-09
  Last Orbital Gradient      ...    1.7618e-07  Tolerance :   1.0000e-05
  Last Orbital Rotation      ...    1.5501e-07  Tolerance :   1.0000e-05

             **** THE GBW FILE WAS UPDATED (pbeh-3c.gbw) ****
             **** DENSITY pbeh-3c.scfp WAS UPDATED ****
             **** ENERGY FILE WAS UPDATED (pbeh-3c.en.tmp) ****
             **** THE GBW FILE WAS UPDATED (pbeh-3c.gbw) ****
             **** DENSITY pbeh-3c.scfp WAS UPDATED ****
----------------
ORBITAL ENERGIES
----------------

  NO   OCC          E(Eh)            E(eV) 
   0   2.0000     -10.426766      -283.7267 
   1   2.0000     -10.426590      -283.7219 
   2   2.0000     -10.424648      -283.6691 
   3   2.0000     -10.418962      -283.5144 
   4   2.0000     -10.418889      -283.5124 
   5   2.0000      -0.893231       -24.3060 
   6   2.0000      -0.836819       -22.7710 
   7   2.0000      -0.754360       -20.5272 
   8   2.0000      -0.670622       -18.2485 
   9   2.0000      -0.644232       -17.5304 
  10   2.0000      -0.536165       -14.5898 
  11   2.0000      -0.494800       -13.4642 
  12   2.0000      -0.488085       -13.2815 
  13   2.0000      -0.457725       -12.4553 
  14   2.0000      -0.447014       -12.1639 
  15   2.0000      -0.427504       -11.6330 
  16   2.0000      -0.402507       -10.9528 
  17   2.0000      -0.382408       -10.4058 
  18   2.0000      -0.373327       -10.1587 
  19   2.0000      -0.366336        -9.9685 
  20   2.0000      -0.361079        -9.8255 
  21   0.0000       0.137357         3.7377 
  22   0.0000       0.155237         4.2242 
  23   0.0000       0.185073         5.0361 
  24   0.0000       0.186377         5.0716 
  25   0.0000       0.202981         5.5234 
  26   0.0000       0.212375         5.7790 
  27   0.0000       0.221234         6.0201 
  28   0.0000       0.226552         6.1648 
  29   0.0000       0.239736         6.5235 
  30   0.0000       0.240306         6.5391 
  31   0.0000       0.247971         6.7476 
  32   0.0000       0.250382         6.8132 
  33   0.0000       0.252966         6.8835 
  34   0.0000       0.285214         7.7611 
  35   0.0000       0.297944         8.1075 
  36   0.0000       0.307977         8.3805 
  37   0.0000       0.475705        12.9446 
  38   0.0000       0.493664        13.4333 
  39   0.0000       0.518107        14.0984 
  40   0.0000       0.534309        14.5393 
  41   0.0000       0.549960        14.9652 
  42   0.0000       0.576622        15.6907 
  43   0.0000       0.580619        15.7994 
  44   0.0000       0.644954        17.5501 
  45   0.0000       0.670175        18.2364 
  46   0.0000       0.672724        18.3058 
  47   0.0000       0.713334        19.4108 
  48   0.0000       0.727799        19.8044 
  49   0.0000       0.780744        21.2451 
  50   0.0000       0.835045        22.7227 
  51   0.0000       0.894722        24.3466 
  52   0.0000       0.958783        26.0898 
  53   0.0000       0.981692        26.7132 
  54   0.0000       1.030147        28.0317 
  55   0.0000       1.031923        28.0800 
  56   0.0000       1.041676        28.3455 
  57   0.0000       1.043161        28.3859 
  58   0.0000       1.068094        29.0643 
  59   0.0000       1.069954        29.1149 
  60   0.0000       1.072934        29.1960 
  61   0.0000       1.074024        29.2257 
  62   0.0000       1.092209        29.7205 
  63   0.0000       1.104808        30.0633 
  64   0.0000       1.112700        30.2781 
  65   0.0000       1.345530        36.6137 
  66   0.0000       1.407535        38.3010 
  67   0.0000       1.461448        39.7680 
  68   0.0000       1.466284        39.8996 
  69   0.0000       1.511700        41.1354 
  70   0.0000       1.629936        44.3528 
  71   0.0000       1.647552        44.8322 
  72   0.0000       1.808366        49.2081 
  73   0.0000       1.830336        49.8060 
  74   0.0000       1.949563        53.0503 
  75   0.0000       1.963649        53.4336 
  76   0.0000       1.983153        53.9643 
  77   0.0000       2.031864        55.2898 
  78   0.0000       2.041535        55.5530 
  79   0.0000       2.066234        56.2251 
  80   0.0000       2.069274        56.3078 
  81   0.0000       2.156503        58.6814 
  82   0.0000       2.278732        62.0075 
  83   0.0000       2.298332        62.5408 
  84   0.0000       2.365410        64.3661 
  85   0.0000       2.387460        64.9661 
  86   0.0000       2.409088        65.5546 
  87   0.0000       2.496039        67.9207 
  88   0.0000       2.507441        68.2309 
  89   0.0000       2.526763        68.7567 
  90   0.0000       2.599625        70.7394 
  91   0.0000       2.621797        71.3427 
  92   0.0000       2.803589        76.2895 
  93   0.0000       2.833164        77.0943 
  94   0.0000      13.553504       368.8096 
  95   0.0000      13.754204       374.2709 
  96   0.0000      13.904217       378.3530 
  97   0.0000      13.992806       380.7636 
  98   0.0000      14.082851       383.2139 

                    ********************************
                    * MULLIKEN POPULATION ANALYSIS *
                    ********************************

-----------------------
MULLIKEN ATOMIC CHARGES
-----------------------
   0 C :   -0.639184
   1 H :    0.208693
   2 H :    0.209051
   3 H :    0.218408
   4 C :   -0.409642
   5 H :    0.204262
   6 H :    0.204947
   7 C :   -0.391283
   8 H :    0.199279
   9 H :    0.199010
  10 C :   -0.409683
  11 H :    0.204460
  12 H :    0.204642
  13 C :   -0.638714
  14 H :    0.208445
  15 H :    0.218368
  16 H :    0.208942
Sum of atomic charges:    0.0000000

--------------------------------
MULLIKEN REDUCED ORBITAL CHARGES
--------------------------------
  0 C s       :     3.375075  s :     3.375075
      pz      :     1.118504  p :     3.226854
      px      :     1.031073
      py      :     1.077277
      dz2     :     0.007449  d :     0.037254
      dxz     :     0.002005
      dyz     :     0.012190
      dx2y2   :     0.005840
      dxy     :     0.009771
  1 H s       :     0.791307  s :     0.791307
  2 H s       :     0.790949  s :     0.790949
  3 H s       :     0.781592  s :     0.781592
  4 C s       :     3.318490  s :     3.318490
      pz      :     1.111092  p :     3.046942
      px      :     0.913256
      py      :     1.022595
      dz2     :     0.007201  d :     0.044210
      dxz     :     0.004074
      dyz     :     0.014751
      dx2y2   :     0.008197
      dxy     :     0.009987
  5 H s       :     0.795738  s :     0.795738
  6 H s       :     0.795053  s :     0.795053
  7 C s       :     3.314360  s :     3.314360
      pz      :     1.104185  p :     3.032745
      px      :     0.909157
      py      :     1.019403
      dz2     :     0.006946  d :     0.044178
      dxz     :     0.003952
      dyz     :     0.015130
      dx2y2   :     0.008147
      dxy     :     0.010003
  8 H s       :     0.800721  s :     0.800721
  9 H s       :     0.800990  s :     0.800990
 10 C s       :     3.318305  s :     3.318305
      pz      :     1.112420  p :     3.047133
      px      :     0.912989
      py      :     1.021724
      dz2     :     0.006953  d :     0.044244
      dxz     :     0.004058
      dyz     :     0.015075
      dx2y2   :     0.008057
      dxy     :     0.010102
 11 H s       :     0.795540  s :     0.795540
 12 H s       :     0.795358  s :     0.795358
 13 C s       :     3.375179  s :     3.375179
      pz      :     1.122019  p :     3.226277
      px      :     1.024279
      py      :     1.079979
      dz2     :     0.006738  d :     0.037257
      dxz     :     0.002452
      dyz     :     0.012648
      dx2y2   :     0.005506
      dxy     :     0.009914
 14 H s       :     0.791555  s :     0.791555
 15 H s       :     0.781632  s :     0.781632
 16 H s       :     0.791058  s :     0.791058


                     *******************************
                     * LOEWDIN POPULATION ANALYSIS *
                     *******************************

----------------------
LOEWDIN ATOMIC CHARGES
----------------------
   0 C :   -0.362025
   1 H :    0.123167
   2 H :    0.123457
   3 H :    0.125682
   4 C :   -0.246158
   5 H :    0.119354
   6 H :    0.119513
   7 C :   -0.241564
   8 H :    0.117957
   9 H :    0.117817
  10 C :   -0.246332
  11 H :    0.119261
  12 H :    0.119360
  13 C :   -0.361817
  14 H :    0.123231
  15 H :    0.125653
  16 H :    0.123445

-------------------------------
LOEWDIN REDUCED ORBITAL CHARGES
-------------------------------
  0 C s       :     2.951104  s :     2.951104
      pz      :     1.131155  p :     3.341474
      px      :     1.092869
      py      :     1.117451
      dz2     :     0.013274  d :     0.069447
      dxz     :     0.004247
      dyz     :     0.021040
      dx2y2   :     0.011721
      dxy     :     0.019164
  1 H s       :     0.876833  s :     0.876833
  2 H s       :     0.876543  s :     0.876543
  3 H s       :     0.874318  s :     0.874318
  4 C s       :     2.908423  s :     2.908423
      pz      :     1.108537  p :     3.247700
      px      :     1.049457
      py      :     1.089706
      dz2     :     0.013873  d :     0.090035
      dxz     :     0.008523
      dyz     :     0.026211
      dx2y2   :     0.017663
      dxy     :     0.023765
  5 H s       :     0.880646  s :     0.880646
  6 H s       :     0.880487  s :     0.880487
  7 C s       :     2.911212  s :     2.911212
      pz      :     1.106790  p :     3.240337
      px      :     1.044796
      py      :     1.088750
      dz2     :     0.013535  d :     0.090015
      dxz     :     0.008322
      dyz     :     0.026880
      dx2y2   :     0.017688
      dxy     :     0.023590
  8 H s       :     0.882043  s :     0.882043
  9 H s       :     0.882183  s :     0.882183
 10 C s       :     2.908327  s :     2.908327
      pz      :     1.108978  p :     3.247871
      px      :     1.049285
      py      :     1.089607
      dz2     :     0.013452  d :     0.090133
      dxz     :     0.008448
      dyz     :     0.026778
      dx2y2   :     0.017404
      dxy     :     0.024052
 11 H s       :     0.880739  s :     0.880739
 12 H s       :     0.880640  s :     0.880640
 13 C s       :     2.951175  s :     2.951175
      pz      :     1.132107  p :     3.341172
      px      :     1.090759
      py      :     1.118306
      dz2     :     0.012062  d :     0.069470
      dxz     :     0.004977
      dyz     :     0.021691
      dx2y2   :     0.011271
      dxy     :     0.019469
 14 H s       :     0.876769  s :     0.876769
 15 H s       :     0.874347  s :     0.874347
 16 H s       :     0.876555  s :     0.876555


                      *****************************
                      * MAYER POPULATION ANALYSIS *
                      *****************************

  NA   - Mulliken gross atomic population
  ZA   - Total nuclear charge
  QA   - Mulliken gross atomic charge
  VA   - Mayer's total valence
  BVA  - Mayer's bonded valence
  FA   - Mayer's free valence

  ATOM       NA         ZA         QA         VA         BVA        FA
  0 C      6.6392     6.0000    -0.6392     3.7458     3.7458     0.0000
  1 H      0.7913     1.0000     0.2087     0.9144     0.9144    -0.0000
  2 H      0.7909     1.0000     0.2091     0.9145     0.9145     0.0000
  3 H      0.7816     1.0000     0.2184     0.9135     0.9135     0.0000
  4 C      6.4096     6.0000    -0.4096     3.7614     3.7614     0.0000
  5 H      0.7957     1.0000     0.2043     0.9085     0.9085    -0.0000
  6 H      0.7951     1.0000     0.2049     0.9088     0.9088     0.0000
  7 C      6.3913     6.0000    -0.3913     3.7282     3.7282     0.0000
  8 H      0.8007     1.0000     0.1993     0.9118     0.9118     0.0000
  9 H      0.8010     1.0000     0.1990     0.9116     0.9116     0.0000
 10 C      6.4097     6.0000    -0.4097     3.7610     3.7610     0.0000
 11 H      0.7955     1.0000     0.2045     0.9086     0.9086     0.0000
 12 H      0.7954     1.0000     0.2046     0.9088     0.9088     0.0000
 13 C      6.6387     6.0000    -0.6387     3.7458     3.7458     0.0000
 14 H      0.7916     1.0000     0.2084     0.9148     0.9148     0.0000
 15 H      0.7816     1.0000     0.2184     0.9137     0.9137     0.0000
 16 H      0.7911     1.0000     0.2089     0.9144     0.9144     0.0000

  Mayer bond orders larger than 0.100000
B(  0-C ,  1-H ) :   0.9296 B(  0-C ,  2-H ) :   0.9296 B(  0-C ,  3-H ) :   0.9324 
B(  0-C ,  4-C ) :   0.9985 B(  4-C ,  5-H ) :   0.9205 B(  4-C ,  6-H ) :   0.9203 
B(  4-C ,  7-C ) :   0.9922 B(  7-C ,  8-H ) :   0.9184 B(  7-C ,  9-H ) :   0.9181 
B(  7-C , 10-C ) :   0.9921 B( 10-C , 11-H ) :   0.9204 B( 10-C , 12-H ) :   0.9203 
B( 10-C , 13-C ) :   0.9984 B( 13-C , 14-H ) :   0.9297 B( 13-C , 15-H ) :   0.9325 
B( 13-C , 16-H ) :   0.9294 

-------
TIMINGS
-------

Total SCF time: 0 days 0 hours 1 min 8 sec 

Total time                  ....      68.016 sec
Sum of individual times     ....      60.099 sec  ( 88.4%)

Fock matrix formation       ....      48.787 sec  ( 71.7%)
  Split-RI-J                ....       5.185 sec  ( 10.6% of F)
  Chain of spheres X        ....      17.638 sec  ( 36.2% of F)
  XC integration            ....      13.290 sec  ( 27.2% of F)
    Basis function eval.    ....       2.629 sec  ( 19.8% of XC)
    Density eval.           ....       1.466 sec  ( 11.0% of XC)
    XC-Functional eval.     ....       1.265 sec  (  9.5% of XC)
    XC-Potential eval.      ....       0.716 sec  (  5.4% of XC)
Diagonalization             ....       0.902 sec  (  1.3%)
Density matrix formation    ....       0.098 sec  (  0.1%)
Population analysis         ....       0.738 sec  (  1.1%)
Initial guess               ....       0.028 sec  (  0.0%)
Orbital Transformation      ....       0.000 sec  (  0.0%)
Orbital Orthonormalization  ....       0.000 sec  (  0.0%)
DIIS solution               ....       0.767 sec  (  1.1%)
SOSCF solution              ....       0.674 sec  (  1.0%)
Grid generation             ....       8.104 sec  ( 11.9%)

Maximum memory used throughout the entire SCF-calculation: 52.4 MB


-------------------------------------------------------------------------------
                          DFT DISPERSION CORRECTION                            
                                                                               
                              DFTD3 V3.1  Rev 1                                
                          USING Becke-Johnson damping                          
-------------------------------------------------------------------------------
The PBEh-3c composite method is recognized
Using three-body term ABC
Active option DFTDOPT                   ...         4   

molecular C6(AA) [au] = 1797.853344 


            DFT-D V3
 parameters
 s6 scaling factor         :     1.0000 
 a1 scaling factor         :     0.4860 
 s8 scaling factor         :     0.0000 
 a2 scaling factor         :     4.5000 
 Damping factor alpha9(ATM):    16.0000 
 ad hoc parameters k1-k3   :    16.0000     1.3333    -4.0000 

 Edisp/kcal,au: -4.279194730178  -0.006819330147 
 E6   /kcal   :  -4.287476003 
 E8   /kcal   :  -0.000000000 
 E6(ABC)      :   0.008281273 
 % E8         :   0.000000000 
 % E6(ABC)    :  -0.193524094 

-------------------------   ----------------
Dispersion correction           -0.006819330
-------------------------   ----------------

------------------   -----------------
gCP correction             0.022461979
------------------   -----------------

-------------------------   --------------------
FINAL SINGLE POINT ENERGY      -197.333836596730
-------------------------   --------------------


                            ***************************************
                            *     ORCA property calculations      *
                            ***************************************

                                    ---------------------
                                    Active property flags
                                    ---------------------
   (+) Dipole Moment


------------------------------------------------------------------------------
                       ORCA ELECTRIC PROPERTIES CALCULATION
------------------------------------------------------------------------------

Dipole Moment Calculation                       ... on
Quadrupole Moment Calculation                   ... off
Polarizability Calculation                      ... off
GBWName                                         ... pbeh-3c.gbw
Electron density                                ... pbeh-3c.scfp
The origin for moment calculation is the CENTER OF MASS  = ( 0.001267, -0.063479 -0.007232)

-------------
DIPOLE MOMENT
-------------
                                X             Y             Z
Electronic contribution:      0.01250      -0.60377      -0.06700
Nuclear contribution   :     -0.01167       0.58483       0.06663
                        -----------------------------------------
Total Dipole Moment    :      0.00083      -0.01893      -0.00037
                        -----------------------------------------
Magnitude (a.u.)       :      0.01895
Magnitude (Debye)      :      0.04818



--------------------
Rotational spectrum 
--------------------
 
Rotational constants in cm-1:     0.568001     0.065559     0.062135 
Rotational constants in MHz : 17028.235072  1965.399322  1862.763354 

 Dipole components along the rotational axes: 
x,y,z [a.u.] :     0.000568     0.018895     0.001379 
x,y,z [Debye]:     0.001444     0.048026     0.003505 

 

Timings for individual modules:

Sum of individual times         ...       71.218 sec (=   1.187 min)
GTO integral calculation        ...        2.720 sec (=   0.045 min)   3.8 %
SCF iterations                  ...       68.498 sec (=   1.142 min)  96.2 %
                             ****ORCA TERMINATED NORMALLY****
TOTAL RUN TIME: 0 days 0 hours 1 minutes 13 seconds 9 msec
