
                                 *****************
                                 * O   R   C   A *
                                 *****************

                                            #,                                       
                                            ###                                      
                                            ####                                     
                                            #####                                    
                                            ######                                   
                                           ########,                                 
                                     ,,################,,,,,                         
                               ,,#################################,,                 
                          ,,##########################################,,             
                       ,#########################################, ''#####,          
                    ,#############################################,,   '####,        
                  ,##################################################,,,,####,       
                ,###########''''           ''''###############################       
              ,#####''   ,,,,##########,,,,          '''####'''          '####       
            ,##' ,,,,###########################,,,                        '##       
           ' ,,###''''                  '''############,,,                           
         ,,##''                                '''############,,,,        ,,,,,,###''
      ,#''                                            '''#######################'''  
     '                                                          ''''####''''         
             ,#######,   #######,   ,#######,      ##                                
            ,#'     '#,  ##    ##  ,#'     '#,    #''#        ######   ,####,        
            ##       ##  ##   ,#'  ##            #'  '#       #        #'  '#        
            ##       ##  #######   ##           ,######,      #####,   #    #        
            '#,     ,#'  ##    ##  '#,     ,#' ,#      #,         ##   #,  ,#        
             '#######'   ##     ##  '#######'  #'      '#     #####' # '####'        



                  #######################################################
                  #                        -***-                        #
                  #          Department of theory and spectroscopy      #
                  #    Directorship and core code : Frank Neese         #
                  #        Max Planck Institute fuer Kohlenforschung    #
                  #                Kaiser Wilhelm Platz 1               #
                  #                 D-45470 Muelheim/Ruhr               #
                  #                      Germany                        #
                  #                                                     #
                  #                  All rights reserved                #
                  #                        -***-                        #
                  #######################################################


                         Program Version 5.0.3 -  RELEASE  -


 With contributions from (in alphabetic order):
   Daniel Aravena         : Magnetic Suceptibility
   Michael Atanasov       : Ab Initio Ligand Field Theory (pilot matlab implementation)
   Alexander A. Auer      : GIAO ZORA, VPT2 properties, NMR spectrum
   Ute Becker             : Parallelization
   Giovanni Bistoni       : ED, misc. LED, open-shell LED, HFLD
   Martin Brehm           : Molecular dynamics
   Dmytro Bykov           : SCF Hessian
   Vijay G. Chilkuri      : MRCI spin determinant printing, contributions to CSF-ICE
   Dipayan Datta          : RHF DLPNO-CCSD density
   Achintya Kumar Dutta   : EOM-CC, STEOM-CC
   Dmitry Ganyushin       : Spin-Orbit,Spin-Spin,Magnetic field MRCI
   Miquel Garcia          : C-PCM and meta-GGA Hessian, CC/C-PCM, Gaussian charge scheme
   Yang Guo               : DLPNO-NEVPT2, F12-NEVPT2, CIM, IAO-localization
   Andreas Hansen         : Spin unrestricted coupled pair/coupled cluster methods
   Benjamin Helmich-Paris : MC-RPA, TRAH-SCF, COSX integrals
   Lee Huntington         : MR-EOM, pCC
   Robert Izsak           : Overlap fitted RIJCOSX, COSX-SCS-MP3, EOM
   Marcus Kettner         : VPT2
   Christian Kollmar      : KDIIS, OOCD, Brueckner-CCSD(T), CCSD density, CASPT2, CASPT2-K
   Simone Kossmann        : Meta GGA functionals, TD-DFT gradient, OOMP2, MP2 Hessian
   Martin Krupicka        : Initial AUTO-CI
   Lucas Lang             : DCDCAS
   Marvin Lechner         : AUTO-CI (C++ implementation), FIC-MRCC
   Dagmar Lenk            : GEPOL surface, SMD
   Dimitrios Liakos       : Extrapolation schemes; Compound Job, initial MDCI parallelization
   Dimitrios Manganas     : Further ROCIS development; embedding schemes
   Dimitrios Pantazis     : SARC Basis sets
   Anastasios Papadopoulos: AUTO-CI, single reference methods and gradients
   Taras Petrenko         : DFT Hessian,TD-DFT gradient, ASA, ECA, R-Raman, ABS, FL, XAS/XES, NRVS
   Peter Pinski           : DLPNO-MP2, DLPNO-MP2 Gradient
   Christoph Reimann      : Effective Core Potentials
   Marius Retegan         : Local ZFS, SOC
   Christoph Riplinger    : Optimizer, TS searches, QM/MM, DLPNO-CCSD(T), (RO)-DLPNO pert. Triples
   Tobias Risthaus        : Range-separated hybrids, TD-DFT gradient, RPA, STAB
   Michael Roemelt        : Original ROCIS implementation
   Masaaki Saitow         : Open-shell DLPNO-CCSD energy and density
   Barbara Sandhoefer     : DKH picture change effects
   Avijit Sen             : IP-ROCIS
   Kantharuban Sivalingam : CASSCF convergence, NEVPT2, FIC-MRCI
   Bernardo de Souza      : ESD, SOC TD-DFT
   Georgi Stoychev        : AutoAux, RI-MP2 NMR, DLPNO-MP2 response
   Willem Van den Heuvel  : Paramagnetic NMR
   Boris Wezisla          : Elementary symmetry handling
   Frank Wennmohs         : Technical directorship


 We gratefully acknowledge several colleagues who have allowed us to
 interface, adapt or use parts of their codes:
   Stefan Grimme, W. Hujo, H. Kruse, P. Pracht,  : VdW corrections, initial TS optimization,
                  C. Bannwarth, S. Ehlert          DFT functionals, gCP, sTDA/sTD-DF
   Ed Valeev, F. Pavosevic, A. Kumar             : LibInt (2-el integral package), F12 methods
   Garnet Chan, S. Sharma, J. Yang, R. Olivares  : DMRG
   Ulf Ekstrom                                   : XCFun DFT Library
   Mihaly Kallay                                 : mrcc  (arbitrary order and MRCC methods)
   Jiri Pittner, Ondrej Demel                    : Mk-CCSD
   Frank Weinhold                                : gennbo (NPA and NBO analysis)
   Christopher J. Cramer and Donald G. Truhlar   : smd solvation model
   Lars Goerigk                                  : TD-DFT with DH, B97 family of functionals
   V. Asgeirsson, H. Jonsson                     : NEB implementation
   FAccTs GmbH                                   : IRC, NEB, NEB-TS, DLPNO-Multilevel, CI-OPT
                                                   MM, QMMM, 2- and 3-layer-ONIOM, Crystal-QMMM,
                                                   LR-CPCM, SF, NACMEs, symmetry and pop. for TD-DFT,
                                                   nearIR, NL-DFT gradient (VV10), updates on ESD,
                                                   ML-optimized integration grids
   S Lehtola, MJT Oliveira, MAL Marques          : LibXC Library
   Liviu Ungur et al                             : ANISO software


 Your calculation uses the libint2 library for the computation of 2-el integrals
 For citations please refer to: http://libint.valeyev.net

 Your ORCA version has been built with support for libXC version: 5.1.0
 For citations please refer to: https://tddft.org/programs/libxc/

 This ORCA versions uses:
   CBLAS   interface :  Fast vector & matrix operations
   LAPACKE interface :  Fast linear algebra routines
   SCALAPACK package :  Parallel linear algebra routines
   Shared memory     :  Shared parallel matrices
   BLAS/LAPACK       :  OpenBLAS 0.3.15  USE64BITINT DYNAMIC_ARCH NO_AFFINITY Haswell SINGLE_THREADED
        Core in use  :  Haswell
   Copyright (c) 2011-2014, The OpenBLAS Project




***************************************
The coordinates will be read from file: bih3_nh3.xyz
***************************************


Your calculation utilizes the geometrical counterpoise correction gCP
Please cite in your paper:
H.Kruse, S. Grimme J.Chem.Phys., 136, (2012), 154101 
   

Your calculation utilizes the atom-pairwise dispersion correction
with the Becke-Johnson damping scheme (D3BJ)
Cite in your paper:
S.Grimme, S.Ehrlich, L.Goerigk, J Comput Chem, (2011), 32, 1456–1465 
S.Grimme, J.Antony, S.Ehrlich and H.Krieg, J.Chem.Phys., 132, (2010), 154104 
   

Your calculation employs the composite approach PBEh-3c.
Please cite in your paper:
S. Grimme, J. G. Brandenburg, C. Bannwarth, A. Hansen J.Chem.Phys., 143, (2015), 054107 
   

================================================================================

cite the ECPs for Bi [Def2-ECP] as follows:
Ce-Yb(ecp-28): M. Dolg, H. Stoll, H.Preuss, J. Chem. Phys., 1989, 90, 1730-1734.
Y-Cd(ecp-28), Hf-Hg(ecp-46): D. Andrae,U. Haeussermann, M. Dolg, H. Stoll, H. Preuss, Theor. Chim. Acta, 1990, 77, 123-141.
In-Sb(ecp-28), Tl-Bi(ecp-46): B. Metz, H. Stoll, M. Dolg, J. Chem. Phys., 2000, 113, 2563-2569.
Te-Xe(ecp-28), Po-Rn(ecp-46): K. A. Peterson, D. Figgen, E. Goll, H. Stoll, M. Dolg, J. Chem. Phys., 2003, 119, 11113-11123.
Rb(ecp-28), Cs(ecp-46): T. Leininger, A. Nicklass, W. Kuechle, H. Stoll, M. Dolg, A. Bergner, Chem. Phys. Lett., 1996, 255, 274-280.
Sr(ecp-28), Ba(ecp-46): M. Kaupp, P. V. Schleyer, H. Stoll and H. Preuss, J. Chem. Phys., 1991, 94, 1360-1366.
La(ecp-46): M. Dolg, H. Stoll, A. Savin, H. Preuss, Theor. Chim. Acta, 1989, 75, 173-194.
Lu(ecp-28): X. Cao, M. Dolg, J. Chem. Phys., 2001, 115, 7348-7355.

ECP parameters for Bi [Def2-ECP] have been obtained from:
TURBOMOLE (7.0.2)

----- Orbital basis set information -----
Your calculation utilizes the basis: def2-mSVP

----- AuxJ basis set information -----
Your calculation utilizes the auxiliary basis: def2/J
   F. Weigend, Phys. Chem. Chem. Phys. 8, 1057 (2006).

================================================================================
                                        WARNINGS
                       Please study these warnings very carefully!
================================================================================


WARNING: No Hueckel Guess possible with ECP basis!
  ===> : Switching to HCORE guess!

INFO   : the flag for use of the SHARK integral package has been found!

================================================================================
                                       INPUT FILE
================================================================================
NAME = pbeh-3c.inp
|  1> ! PBEh-3c def2/J TightSCF DefGrid3
|  2> 
|  3> %maxcore 60000
|  4> 
|  5> %pal
|  6> nprocs 4
|  7> end
|  8> 
|  9> *xyzfile 0 1 bih3_nh3.xyz
| 10> 
| 11>                          ****END OF INPUT****
================================================================================

                       ****************************
                       * Single Point Calculation *
                       ****************************

---------------------------------
CARTESIAN COORDINATES (ANGSTROEM)
---------------------------------
  Bi     0.000000    0.000000    1.788439
  H     -1.431967    0.000000    2.824522
  H      0.715984   -1.240120    2.824522
  H      0.715984    1.240120    2.824522
  N      0.000000    0.000000   -2.280209
  H     -0.467841   -0.810324   -2.660599
  H     -0.467841    0.810324   -2.660599
  H      0.935682    0.000000   -2.660599

----------------------------
CARTESIAN COORDINATES (A.U.)
----------------------------
  NO LB      ZA    FRAG     MASS         X           Y           Z
   0 Bi   23.0000*   0   208.980    0.000000    0.000000    3.379659
   1 H     1.0000    0     1.008   -2.706026    0.000000    5.337574
   2 H     1.0000    0     1.008    1.353013   -2.343487    5.337574
   3 H     1.0000    0     1.008    1.353013    2.343487    5.337574
   4 N     7.0000    0    14.007    0.000000    0.000000   -4.308971
   5 H     1.0000    0     1.008   -0.884091   -1.531290   -5.027804
   6 H     1.0000    0     1.008   -0.884091    1.531290   -5.027804
   7 H     1.0000    0     1.008    1.768182    0.000000   -5.027804
* core charge reduced due to ECP

--------------------------------
INTERNAL COORDINATES (ANGSTROEM)
--------------------------------
 Bi     0   0   0     0.000000000000     0.00000000     0.00000000
 H      1   0   0     1.767484003463     0.00000000     0.00000000
 H      1   2   0     1.767484022698    89.11586731     0.00000000
 H      1   2   3     1.767484022698    89.11586731   270.87069517
 N      1   2   3     4.068647700000   125.88719672   135.43534759
 H      5   1   2     1.010047669958   112.12360749   299.99999884
 H      5   1   2     1.010047669958   112.12360749    60.00000116
 H      5   1   2     1.010047732309   112.12360605   180.00000000

---------------------------
INTERNAL COORDINATES (A.U.)
---------------------------
 Bi     0   0   0     0.000000000000     0.00000000     0.00000000
 H      1   0   0     3.340060712632     0.00000000     0.00000000
 H      1   2   0     3.340060748980    89.11586731     0.00000000
 H      1   2   3     3.340060748980    89.11586731   270.87069517
 N      1   2   3     7.688629888409   125.88719672   135.43534759
 H      5   1   2     1.908713478426   112.12360749   299.99999884
 H      5   1   2     1.908713478426   112.12360749    60.00000116
 H      5   1   2     1.908713596252   112.12360605   180.00000000

---------------------
BASIS SET INFORMATION
---------------------
There are 3 groups of distinct atoms

 Group   1 Type Bi  : 10s7p6d contracted to 4s4p2d pattern {6211/4111/51}
 Group   2 Type H   : 4s contracted to 2s pattern {31}
 Group   3 Type N   : 8s4p1d contracted to 4s2p1d pattern {5111/31/1}

Atom   0Bi   basis set group =>   1
Atom   1H    basis set group =>   2
Atom   2H    basis set group =>   2
Atom   3H    basis set group =>   2
Atom   4N    basis set group =>   3
Atom   5H    basis set group =>   2
Atom   6H    basis set group =>   2
Atom   7H    basis set group =>   2
---------------------------------
AUXILIARY/J BASIS SET INFORMATION
---------------------------------
There are 3 groups of distinct atoms

 Group   1 Type Bi  : 11s5p5d3f1g contracted to 8s4p3d2f1g pattern {41111111/2111/311/21/1}
 Group   2 Type H   : 5s2p1d contracted to 3s1p1d pattern {311/2/1}
 Group   3 Type N   : 12s5p4d2f1g contracted to 6s4p3d1f1g pattern {711111/2111/211/2/1}

Atom   0Bi   basis set group =>   1
Atom   1H    basis set group =>   2
Atom   2H    basis set group =>   2
Atom   3H    basis set group =>   2
Atom   4N    basis set group =>   3
Atom   5H    basis set group =>   2
Atom   6H    basis set group =>   2
Atom   7H    basis set group =>   2
-------------------------
ECP PARAMETER INFORMATION
-------------------------

 Group 1, Type Bi ECP Def2-ECP (replacing 60 core electrons, lmax=3)

Atom   0Bi   ECP group =>   1



           ************************************************************
           *        Program running with 4 parallel MPI-processes     *
           *              working on a common directory               *
           ************************************************************
------------------------------------------------------------------------------
                           ORCA GTO INTEGRAL CALCULATION
                           -- RI-GTO INTEGRALS CHOSEN --
------------------------------------------------------------------------------
------------------------------------------------------------------------------
                   ___                                                        
                  /   \      - P O W E R E D   B Y -                         
                 /     \                                                     
                 |  |  |   _    _      __       _____    __    __             
                 |  |  |  | |  | |    /  \     |  _  \  |  |  /  |          
                  \  \/   | |  | |   /    \    | | | |  |  | /  /          
                 / \  \   | |__| |  /  /\  \   | |_| |  |  |/  /          
                |  |  |   |  __  | /  /__\  \  |    /   |      \           
                |  |  |   | |  | | |   __   |  |    \   |  |\   \          
                \     /   | |  | | |  |  |  |  | |\  \  |  | \   \       
                 \___/    |_|  |_| |__|  |__|  |_| \__\ |__|  \__/        
                                                                              
                      - O R C A' S   B I G   F R I E N D -                    
                                      &                                       
                       - I N T E G R A L  F E E D E R -                       
                                                                              
 v1 FN, 2020, v2 2021                                                         
------------------------------------------------------------------------------


Reading SHARK input file pbeh-3c.SHARKINP.tmp ... ok
----------------------
SHARK INTEGRAL PACKAGE
----------------------

Number of atoms                             ...      8
Number of basis functions                   ...     53
Number of shells                            ...     29
Maximum angular momentum                    ...      2
Integral batch strategy                     ... SHARK/LIBINT Hybrid
RI-J (if used) integral strategy            ... SPLIT-RIJ (Revised 2003 algorithm where possible)
Printlevel                                  ...      1
Contraction scheme used                     ... SEGMENTED contraction
Coulomb Range Separation                    ... NOT USED
Exchange Range Separation                   ... NOT USED
Finite Nucleus Model                        ... NOT USED
Auxiliary Coulomb fitting basis             ... AVAILABLE
   # of basis functions in Aux-J            ...    173
   # of shells in Aux-J                     ...     63
   Maximum angular momentum in Aux-J        ...      4
Auxiliary J/K fitting basis                 ... NOT available
Auxiliary Correlation fitting basis         ... NOT available
Auxiliary 'external' fitting basis          ... NOT available
Integral threshold                          ...     2.500000e-11
Primitive cut-off                           ...     2.500000e-12
Primitive pair pre-selection threshold      ...     2.500000e-12

Calculating pre-screening integrals         ... done (  0.1 sec) Dimension = 29
Organizing shell pair data                  ... done (  0.2 sec)
Shell pair information
Total number of shell pairs                 ...       435
Shell pairs after pre-screening             ...       386
Total number of primitive shell pairs       ...      1893
Primitive shell pairs kept                  ...      1309
          la=0 lb=0:    180 shell pairs
          la=1 lb=0:    108 shell pairs
          la=1 lb=1:     20 shell pairs
          la=2 lb=0:     55 shell pairs
          la=2 lb=1:     17 shell pairs
          la=2 lb=2:      6 shell pairs

Calculating one electron integrals          ... done (  0.0 sec)
Calculating ECP integrals                   ... done (  0.0 sec)
Calculating RI/J V-Matrix + Cholesky decomp.... done (  0.7 sec)
Calculating Nuclear repulsion               ... done (  0.1 sec) ENN=     65.177366789899 Eh

SHARK setup successfully completed in   2.3 seconds

Maximum memory used throughout the entire GTOINT-calculation: 10.0 MB


           ************************************************************
           *        Program running with 4 parallel MPI-processes     *
           *              working on a common directory               *
           ************************************************************
-------------------------------------------------------------------------------
                                 ORCA SCF
-------------------------------------------------------------------------------

------------
SCF SETTINGS
------------
Hamiltonian:
 Density Functional     Method          .... DFT(GTOs)
 Exchange Functional    Exchange        .... PBE
   PBE kappa parameter   XKappa         ....  1.024500
   PBE mue parameter    XMuePBE         ....  0.123457
 Correlation Functional Correlation     .... PBE
   PBE beta parameter  CBetaPBE         ....  0.030000
 LDA part of GGA corr.  LDAOpt          .... PW91-LDA
 Gradients option       PostSCFGGA      .... off
 Hybrid DFT is turned on
   Fraction HF Exchange ScalHFX         ....  0.420000
   Scaling of DF-GGA-X  ScalDFX         ....  0.580000
   Scaling of DF-GGA-C  ScalDFC         ....  1.000000
   Scaling of DF-LDA-C  ScalLDAC        ....  1.000000
   Perturbative correction              ....  0.000000
   Density functional embedding theory  .... OFF
 RI-approximation to the Coulomb term is turned on
   Number of AuxJ basis functions       .... 173
   RIJ-ON(X) (HFX calculated with O(N)) .... on
   Number of AuxJ basis functions       .... 173
   RIJ-COSX (HFX calculated with COS-X)).... on


General Settings:
 Integral files         IntName         .... pbeh-3c
 Hartree-Fock type      HFTyp           .... RHF
 Total Charge           Charge          ....    0
 Multiplicity           Mult            ....    1
 Number of Electrons    NEL             ....   36
 Basis Dimension        Dim             ....   53
 Nuclear Repulsion      ENuc            ....     65.1773667899 Eh

Convergence Acceleration:
 DIIS                   CNVDIIS         .... on
   Start iteration      DIISMaxIt       ....    12
   Startup error        DIISStart       ....  0.200000
   # of expansion vecs  DIISMaxEq       ....     5
   Bias factor          DIISBfac        ....   1.050
   Max. coefficient     DIISMaxC        ....  10.000
 Trust-Rad. Augm. Hess. CNVTRAH         .... auto
   Auto Start mean grad. ratio tolernc. ....  1.125000
   Auto Start start iteration           ....    20
   Auto Start num. interpolation iter.  ....    10
   Max. Number of Micro iterations      ....    16
   Max. Number of Macro iterations      .... Maxiter - #DIIS iter
   Number of Davidson start vectors     ....     2
   Converg. threshold I  (grad. norm)   ....   1.000e-05
   Converg. threshold II (energy diff.) ....   1.000e-08
   Grad. Scal. Fac. for Micro threshold ....   0.100
   Minimum threshold for Micro iter.    ....   0.010
   NR start threshold (gradient norm)   ....   0.001
   Initial trust radius                 ....   0.400
   Minimum AH scaling param. (alpha)    ....   1.000
   Maximum AH scaling param. (alpha)    .... 1000.000
   Orbital update algorithm             .... Taylor
   White noise on init. David. guess    .... on
   Maximum white noise                  ....   0.010
   Quad. conv. algorithm                .... NR
   COSX micro iterations for RIJONX calc.... off
 SOSCF                  CNVSOSCF        .... on
   Start iteration      SOSCFMaxIt      ....   150
   Startup grad/error   SOSCFStart      ....  0.003300
 Level Shifting         CNVShift        .... on
   Level shift para.    LevelShift      ....    0.2500
   Turn off err/grad.   ShiftErr        ....    0.0010
 Zerner damping         CNVZerner       .... off
 Static damping         CNVDamp         .... on
   Fraction old density DampFac         ....    0.7000
   Max. Damping (<1)    DampMax         ....    0.9800
   Min. Damping (>=0)   DampMin         ....    0.0000
   Turn off err/grad.   DampErr         ....    0.1000
 Fernandez-Rico         CNVRico         .... off

SCF Procedure:
 Maximum # iterations   MaxIter         ....   125
 SCF integral mode      SCFMode         .... Direct
   Integral package                     .... SHARK and LIBINT hybrid scheme
 Reset frequency        DirectResetFreq ....    20
 Integral Threshold     Thresh          ....  2.500e-11 Eh
 Primitive CutOff       TCut            ....  2.500e-12 Eh

Convergence Tolerance:
 Convergence Check Mode ConvCheckMode   .... Total+1el-Energy
 Convergence forced     ConvForced      .... 0
 Energy Change          TolE            ....  1.000e-08 Eh
 1-El. energy change                    ....  1.000e-05 Eh
 Orbital Gradient       TolG            ....  1.000e-05
 Orbital Rotation angle TolX            ....  1.000e-05
 DIIS Error             TolErr          ....  5.000e-07


Diagonalization of the overlap matrix:
Smallest eigenvalue                        ... 2.464e-02
Time for diagonalization                   ...    0.002 sec
Threshold for overlap eigenvalues          ... 1.000e-08
Number of eigenvalues below threshold      ... 0
Time for construction of square roots      ...    0.323 sec
Total time needed                          ...    0.325 sec

--------------------
INITIAL GUESS: HCORE
--------------------
                      -----------------
                      INTIAL GUESS DONE 
                      -----------------
-------------------
DFT GRID GENERATION
-------------------

General Integration Accuracy     IntAcc      ... 4.959
Radial Grid Type                 RadialGrid  ... OptM3 with GC (2021)
Angular Grid (max. ang.)         AngularGrid ... 6 (Lebedev-590)
Angular grid pruning method      GridPruning ... 4 (adaptive)
Weight generation scheme         WeightScheme... Becke
Basis function cutoff            BFCut       ... 1.0000e-11
Integration weight cutoff        WCut        ... 1.0000e-14
Angular grids for H and He will be reduced by one unit
Partially contracted basis set               ... off
Rotationally invariant grid construction     ... off

Total number of grid points                  ...    91959
Total number of batches                      ...     1440
Average number of points per batch           ...       63
Average number of grid points per atom       ...    11495
Time for grid setup =    2.119 sec

--------------------
COSX GRID GENERATION
--------------------

GRIDX 1
-------
General Integration Accuracy     IntAcc      ... 4.020
Radial Grid Type                 RadialGrid  ... OptM3 with GC (2021)
Angular Grid (max. ang.)         AngularGrid ... 2 (Lebedev-110)
Angular grid pruning method      GridPruning ... 4 (adaptive)
Weight generation scheme         WeightScheme... Becke
Basis function cutoff            BFCut       ... 1.0000e-11
Integration weight cutoff        WCut        ... 1.0000e-14
Angular grids for H and He will be reduced by one unit
Partially contracted basis set               ... on
Rotationally invariant grid construction     ... off

Total number of grid points                  ...    10550
Total number of batches                      ...      169
Average number of points per batch           ...       62
Average number of grid points per atom       ...     1319
UseSFitting                                  ... on

GRIDX 2
-------
General Integration Accuracy     IntAcc      ... 4.338
Radial Grid Type                 RadialGrid  ... OptM3 with GC (2021)
Angular Grid (max. ang.)         AngularGrid ... 3 (Lebedev-194)
Angular grid pruning method      GridPruning ... 4 (adaptive)
Weight generation scheme         WeightScheme... Becke
Basis function cutoff            BFCut       ... 1.0000e-11
Integration weight cutoff        WCut        ... 1.0000e-14
Angular grids for H and He will be reduced by one unit
Partially contracted basis set               ... on
Rotationally invariant grid construction     ... off

Total number of grid points                  ...    21755
Total number of batches                      ...      344
Average number of points per batch           ...       63
Average number of grid points per atom       ...     2719
UseSFitting                                  ... on

GRIDX 3
-------
General Integration Accuracy     IntAcc      ... 4.871
Radial Grid Type                 RadialGrid  ... OptM3 with GC (2021)
Angular Grid (max. ang.)         AngularGrid ... 4 (Lebedev-302)
Angular grid pruning method      GridPruning ... 4 (adaptive)
Weight generation scheme         WeightScheme... Becke
Basis function cutoff            BFCut       ... 1.0000e-11
Integration weight cutoff        WCut        ... 1.0000e-14
Angular grids for H and He will be reduced by one unit
Partially contracted basis set               ... on
Rotationally invariant grid construction     ... off

Total number of grid points                  ...    43671
Total number of batches                      ...      686
Average number of points per batch           ...       63
Average number of grid points per atom       ...     5459
UseSFitting                                  ... on

Time for X-Grid setup             =    3.959 sec

--------------
SCF ITERATIONS
--------------
ITER       Energy         Delta-E        Max-DP      RMS-DP      [F,P]     Damp
               ***  Starting incremental Fock matrix formation  ***
  0   -257.8239901485   0.000000000000 2.05962755  0.08792986  2.4426523 0.7000
  1   -263.7529006388  -5.928910490278 1.44857645  0.05479684  1.6594919 0.7000
  2   -266.3658168214  -2.612916182656 0.91873571  0.03752004  1.1684797 0.7000
  3   -268.2889776481  -1.923160826690 0.54517087  0.02558114  0.8288496 0.7000
  4   -269.6419865793  -1.353008931163 0.32428373  0.01755016  0.5863552 0.7000
  5   -270.5942117664  -0.952225187157 0.20021655  0.01216404  0.4133314 0.7000
  6   -271.2633590426  -0.669147276148 0.14359200  0.00849064  0.2906666 0.7000
  7   -271.7331610308  -0.469801988169 0.10275189  0.00594958  0.2041335 0.7000
                               ***Turning on DIIS***
  8   -272.0628206071  -0.329659576315 0.07278820  0.00417874  0.1432649 0.7000
  9   -272.2940400122  -0.231219405156 0.05141954  0.00296060  0.1005126 0.7000
 10   -272.4561626056  -0.162122593381 0.12067501  0.00699151  0.0703952 0.0000
                      *** Initiating the SOSCF procedure ***
                           *** Shutting down DIIS ***
                      *** Re-Reading the Fockian *** 
                      *** Removing any level shift *** 
ITER      Energy       Delta-E        Grad      Rot      Max-DP    RMS-DP
 11   -272.83545868  -0.3792960770  0.000940  0.000940  0.004664  0.000205
               *** Restarting incremental Fock matrix formation ***
 12   -272.83543965   0.0000190358  0.000406  0.001024  0.002090  0.000125
 13   -272.83544362  -0.0000039706  0.000065  0.000183  0.000488  0.000030
 14   -272.83544374  -0.0000001253  0.000063  0.000046  0.000108  0.000006
 15   -272.83544377  -0.0000000234  0.000024  0.000018  0.000047  0.000003
 16   -272.83544377  -0.0000000027  0.000003  0.000007  0.000010  0.000001
                  ***Gradient check signals convergence***
              ***Rediagonalizing the Fockian in SOSCF/NRSCF***

               *****************************************************
               *                     SUCCESS                       *
               *           SCF CONVERGED AFTER  17 CYCLES          *
               *****************************************************

Old exchange energy                            =    -10.393989536 Eh
New exchange energy                            =    -10.393993365 Eh
Exchange energy change after final integration =     -0.000003829 Eh
Total energy after final integration           =   -272.835447599 Eh
Final COS-X integration done in                =     0.764 sec

----------------
TOTAL SCF ENERGY
----------------

Total Energy       :         -272.83544760 Eh           -7424.22997 eV

Components:
Nuclear Repulsion  :           65.17736679 Eh            1773.56632 eV
Electronic Energy  :         -338.01281439 Eh           -9197.79629 eV
One Electron Energy:         -581.25343827 Eh          -15816.71016 eV
Two Electron Energy:          243.24062389 Eh            6618.91388 eV
Max COSX asymmetry :            0.00000088 Eh               0.00002 eV

Virial components:
Potential Energy   :         -399.52657959 Eh          -10871.67094 eV
Kinetic Energy     :          126.69113199 Eh            3447.44097 eV
Virial Ratio       :            3.15354811


DFT components:
N(Alpha)           :       18.000000021886 electrons
N(Beta)            :       18.000000021886 electrons
N(Total)           :       36.000000043772 electrons
E(X)               :      -14.032375908211 Eh       
E(C)               :       -1.741091152482 Eh       
E(XC)              :      -15.773467060694 Eh       
DFET-embed. en.    :        0.000000000000 Eh       

---------------
SCF CONVERGENCE
---------------

  Last Energy change         ...   -7.3891e-10  Tolerance :   1.0000e-08
  Last MAX-Density change    ...    4.4409e-15  Tolerance :   1.0000e-07
  Last RMS-Density change    ...    1.4081e-16  Tolerance :   5.0000e-09
  Last Orbital Gradient      ...    1.3941e-06  Tolerance :   1.0000e-05
  Last Orbital Rotation      ...    2.4460e-06  Tolerance :   1.0000e-05

             **** THE GBW FILE WAS UPDATED (pbeh-3c.gbw) ****
             **** DENSITY pbeh-3c.scfp WAS UPDATED ****
             **** ENERGY FILE WAS UPDATED (pbeh-3c.en.tmp) ****
             **** THE GBW FILE WAS UPDATED (pbeh-3c.gbw) ****
             **** DENSITY pbeh-3c.scfp WAS UPDATED ****
----------------
ORBITAL ENERGIES
----------------

  NO   OCC          E(Eh)            E(eV) 
   0   2.0000     -14.603494      -397.3813 
   1   2.0000      -6.154120      -167.4621 
   2   2.0000      -3.844763      -104.6213 
   3   2.0000      -3.844763      -104.6213 
   4   2.0000      -3.840484      -104.5049 
   5   2.0000      -1.125558       -30.6280 
   6   2.0000      -1.125557       -30.6280 
   7   2.0000      -1.118881       -30.4463 
   8   2.0000      -1.118880       -30.4463 
   9   2.0000      -1.115069       -30.3426 
  10   2.0000      -0.943251       -25.6672 
  11   2.0000      -0.667682       -18.1685 
  12   2.0000      -0.518454       -14.1079 
  13   2.0000      -0.518453       -14.1078 
  14   2.0000      -0.354445        -9.6449 
  15   2.0000      -0.354442        -9.6449 
  16   2.0000      -0.318878        -8.6771 
  17   2.0000      -0.289346        -7.8735 
  18   0.0000       0.041948         1.1415 
  19   0.0000       0.041950         1.1415 
  20   0.0000       0.107151         2.9157 
  21   0.0000       0.143126         3.8947 
  22   0.0000       0.220908         6.0112 
  23   0.0000       0.220908         6.0112 
  24   0.0000       0.308771         8.4021 
  25   0.0000       0.308781         8.4024 
  26   0.0000       0.322701         8.7811 
  27   0.0000       0.365184         9.9372 
  28   0.0000       0.369967        10.0673 
  29   0.0000       0.369970        10.0674 
  30   0.0000       0.377732        10.2786 
  31   0.0000       0.569426        15.4949 
  32   0.0000       0.569429        15.4950 
  33   0.0000       0.757719        20.6186 
  34   0.0000       0.757720        20.6186 
  35   0.0000       0.856781        23.3142 
  36   0.0000       1.032198        28.0875 
  37   0.0000       1.043823        28.4039 
  38   0.0000       1.043825        28.4039 
  39   0.0000       1.068224        29.0679 
  40   0.0000       1.068225        29.0679 
  41   0.0000       1.084648        29.5148 
  42   0.0000       1.430508        38.9261 
  43   0.0000       1.729807        47.0704 
  44   0.0000       1.729810        47.0705 
  45   0.0000       2.037370        55.4397 
  46   0.0000       2.504182        68.1423 
  47   0.0000       2.504193        68.1426 
  48   0.0000      18.995983       516.9070 
  49   0.0000      21.157895       575.7356 
  50   0.0000      21.157896       575.7356 
  51   0.0000      21.185640       576.4906 
  52   0.0000      54.246484      1476.1219 

                    ********************************
                    * MULLIKEN POPULATION ANALYSIS *
                    ********************************

-----------------------
MULLIKEN ATOMIC CHARGES
-----------------------
   0 Bi:    0.038615
   1 H :   -0.018003
   2 H :   -0.018023
   3 H :   -0.018023
   4 N :   -0.937835
   5 H :    0.317757
   6 H :    0.317757
   7 H :    0.317755
Sum of atomic charges:    0.0000000

--------------------------------
MULLIKEN REDUCED ORBITAL CHARGES
--------------------------------
  0 Bis       :     3.873384  s :     3.873384
      pz      :     3.196321  p :     8.973666
      px      :     2.888679
      py      :     2.888667
      dz2     :     2.003179  d :    10.114335
      dxz     :     2.040748
      dyz     :     2.040748
      dx2y2   :     2.014829
      dxy     :     2.014830
  1 H s       :     1.018003  s :     1.018003
  2 H s       :     1.018023  s :     1.018023
  3 H s       :     1.018023  s :     1.018023
  4 N s       :     3.667135  s :     3.667135
      pz      :     1.806804  p :     4.237754
      px      :     1.215476
      py      :     1.215475
      dz2     :     0.001678  d :     0.032946
      dxz     :     0.010325
      dyz     :     0.010325
      dx2y2   :     0.005308
      dxy     :     0.005308
  5 H s       :     0.682243  s :     0.682243
  6 H s       :     0.682243  s :     0.682243
  7 H s       :     0.682245  s :     0.682245


                     *******************************
                     * LOEWDIN POPULATION ANALYSIS *
                     *******************************

----------------------
LOEWDIN ATOMIC CHARGES
----------------------
   0 Bi:    0.022402
   1 H :   -0.011878
   2 H :   -0.011891
   3 H :   -0.011891
   4 N :   -0.640659
   5 H :    0.217973
   6 H :    0.217973
   7 H :    0.217972

-------------------------------
LOEWDIN REDUCED ORBITAL CHARGES
-------------------------------
  0 Bis       :     3.747364  s :     3.747364
      pz      :     3.247628  p :     9.079326
      px      :     2.915853
      py      :     2.915845
      dz2     :     2.003201  d :    10.150908
      dxz     :     2.052520
      dyz     :     2.052522
      dx2y2   :     2.021332
      dxy     :     2.021332
  1 H s       :     1.011878  s :     1.011878
  2 H s       :     1.011891  s :     1.011891
  3 H s       :     1.011891  s :     1.011891
  4 N s       :     3.313426  s :     3.313426
      pz      :     1.810919  p :     4.279947
      px      :     1.234514
      py      :     1.234514
      dz2     :     0.001895  d :     0.047286
      dxz     :     0.012631
      dyz     :     0.012631
      dx2y2   :     0.010065
      dxy     :     0.010065
  5 H s       :     0.782027  s :     0.782027
  6 H s       :     0.782027  s :     0.782027
  7 H s       :     0.782028  s :     0.782028


                      *****************************
                      * MAYER POPULATION ANALYSIS *
                      *****************************

  NA   - Mulliken gross atomic population
  ZA   - Total nuclear charge
  QA   - Mulliken gross atomic charge
  VA   - Mayer's total valence
  BVA  - Mayer's bonded valence
  FA   - Mayer's free valence

  ATOM       NA         ZA         QA         VA         BVA        FA
  0 Bi    22.9614    23.0000     0.0386     2.9727     2.9727    -0.0000
  1 H      1.0180     1.0000    -0.0180     0.9837     0.9837     0.0000
  2 H      1.0180     1.0000    -0.0180     0.9837     0.9837     0.0000
  3 H      1.0180     1.0000    -0.0180     0.9837     0.9837     0.0000
  4 N      7.9378     7.0000    -0.9378     2.6628     2.6628     0.0000
  5 H      0.6822     1.0000     0.3178     0.8670     0.8670    -0.0000
  6 H      0.6822     1.0000     0.3178     0.8670     0.8670     0.0000
  7 H      0.6822     1.0000     0.3178     0.8670     0.8670     0.0000

  Mayer bond orders larger than 0.100000
B(  0-Bi,  1-H ) :   0.9826 B(  0-Bi,  2-H ) :   0.9826 B(  0-Bi,  3-H ) :   0.9826 
B(  4-N ,  5-H ) :   0.8780 B(  4-N ,  6-H ) :   0.8780 B(  4-N ,  7-H ) :   0.8780 


-------
TIMINGS
-------

Total SCF time: 0 days 0 hours 1 min 16 sec 

Total time                  ....      76.406 sec
Sum of individual times     ....      68.267 sec  ( 89.3%)

Fock matrix formation       ....      55.934 sec  ( 73.2%)
  Split-RI-J                ....       7.179 sec  ( 12.8% of F)
  Chain of spheres X        ....       8.882 sec  ( 15.9% of F)
  XC integration            ....      19.021 sec  ( 34.0% of F)
    Basis function eval.    ....       1.142 sec  (  6.0% of XC)
    Density eval.           ....       0.759 sec  (  4.0% of XC)
    XC-Functional eval.     ....       1.101 sec  (  5.8% of XC)
    XC-Potential eval.      ....       0.237 sec  (  1.2% of XC)
Diagonalization             ....       1.824 sec  (  2.4%)
Density matrix formation    ....       0.017 sec  (  0.0%)
Population analysis         ....       0.409 sec  (  0.5%)
Initial guess               ....       0.070 sec  (  0.1%)
Orbital Transformation      ....       0.000 sec  (  0.0%)
Orbital Orthonormalization  ....       0.000 sec  (  0.0%)
DIIS solution               ....       3.559 sec  (  4.7%)
SOSCF solution              ....       0.376 sec  (  0.5%)
Grid generation             ....       6.078 sec  (  8.0%)

Maximum memory used throughout the entire SCF-calculation: 46.5 MB


-------------------------------------------------------------------------------
                          DFT DISPERSION CORRECTION                            
                                                                               
                              DFTD3 V3.1  Rev 1                                
                          USING Becke-Johnson damping                          
-------------------------------------------------------------------------------
The PBEh-3c composite method is recognized
Using three-body term ABC
Active option DFTDOPT                   ...         4   

molecular C6(AA) [au] = 1403.379941 


            DFT-D V3
 parameters
 s6 scaling factor         :     1.0000 
 a1 scaling factor         :     0.4860 
 s8 scaling factor         :     0.0000 
 a2 scaling factor         :     4.5000 
 Damping factor alpha9(ATM):    16.0000 
 ad hoc parameters k1-k3   :    16.0000     1.3333    -4.0000 

 Edisp/kcal,au: -1.015825309066  -0.001618820500 
 E6   /kcal   :  -1.017197763 
 E8   /kcal   :  -0.000000000 
 E6(ABC)      :   0.001372454 
 % E8         :   0.000000000 
 % E6(ABC)    :  -0.135107319 

-------------------------   ----------------
Dispersion correction           -0.001618821
-------------------------   ----------------

 ** NOTE ** -> element bi will be treated as as
NOTIFICATION: Different basis set in ORCA and otool_gcp:
ORCA: 53  gCP: 59 
If you are NOT using ECPs, check your basis set inputs!
------------------   -----------------
gCP correction             0.011259197
------------------   -----------------

-------------------------   --------------------
FINAL SINGLE POINT ENERGY      -272.825807222022
-------------------------   --------------------


                            ***************************************
                            *     ORCA property calculations      *
                            ***************************************

                                    ---------------------
                                    Active property flags
                                    ---------------------
   (+) Dipole Moment


------------------------------------------------------------------------------
                       ORCA ELECTRIC PROPERTIES CALCULATION
------------------------------------------------------------------------------

Dipole Moment Calculation                       ... on
Quadrupole Moment Calculation                   ... off
Polarizability Calculation                      ... off
GBWName                                         ... pbeh-3c.gbw
Electron density                                ... pbeh-3c.scfp
The origin for moment calculation is the CENTER OF MASS  = ( 0.000000,  0.000000  2.824295)

-------------
DIPOLE MOMENT
-------------
                                X             Y             Z
Electronic contribution:     -0.00004      -0.00000      51.89978
Nuclear contribution   :      0.00000       0.00000     -53.17594
                        -----------------------------------------
Total Dipole Moment    :     -0.00004      -0.00000      -1.27616
                        -----------------------------------------
Magnitude (a.u.)       :      1.27616
Magnitude (Debye)      :      3.24374



--------------------
Rotational spectrum 
--------------------
 
Rotational constants in cm-1:     1.905181     0.060289     0.060289 
Rotational constants in MHz : 57115.904465  1807.405311  1807.405310 

 Dipole components along the rotational axes: 
x,y,z [a.u.] :     1.276158     0.000000    -0.000043 
x,y,z [Debye]:     3.243736     0.000000    -0.000109 

 

Timings for individual modules:

Sum of individual times         ...       80.093 sec (=   1.335 min)
GTO integral calculation        ...        3.056 sec (=   0.051 min)   3.8 %
SCF iterations                  ...       77.038 sec (=   1.284 min)  96.2 %
                             ****ORCA TERMINATED NORMALLY****
TOTAL RUN TIME: 0 days 0 hours 1 minutes 23 seconds 331 msec
