
                                 *****************
                                 * O   R   C   A *
                                 *****************

                                            #,                                       
                                            ###                                      
                                            ####                                     
                                            #####                                    
                                            ######                                   
                                           ########,                                 
                                     ,,################,,,,,                         
                               ,,#################################,,                 
                          ,,##########################################,,             
                       ,#########################################, ''#####,          
                    ,#############################################,,   '####,        
                  ,##################################################,,,,####,       
                ,###########''''           ''''###############################       
              ,#####''   ,,,,##########,,,,          '''####'''          '####       
            ,##' ,,,,###########################,,,                        '##       
           ' ,,###''''                  '''############,,,                           
         ,,##''                                '''############,,,,        ,,,,,,###''
      ,#''                                            '''#######################'''  
     '                                                          ''''####''''         
             ,#######,   #######,   ,#######,      ##                                
            ,#'     '#,  ##    ##  ,#'     '#,    #''#        ######   ,####,        
            ##       ##  ##   ,#'  ##            #'  '#       #        #'  '#        
            ##       ##  #######   ##           ,######,      #####,   #    #        
            '#,     ,#'  ##    ##  '#,     ,#' ,#      #,         ##   #,  ,#        
             '#######'   ##     ##  '#######'  #'      '#     #####' # '####'        



                  #######################################################
                  #                        -***-                        #
                  #          Department of theory and spectroscopy      #
                  #    Directorship and core code : Frank Neese         #
                  #        Max Planck Institute fuer Kohlenforschung    #
                  #                Kaiser Wilhelm Platz 1               #
                  #                 D-45470 Muelheim/Ruhr               #
                  #                      Germany                        #
                  #                                                     #
                  #                  All rights reserved                #
                  #                        -***-                        #
                  #######################################################


                         Program Version 5.0.3 -  RELEASE  -


 With contributions from (in alphabetic order):
   Daniel Aravena         : Magnetic Suceptibility
   Michael Atanasov       : Ab Initio Ligand Field Theory (pilot matlab implementation)
   Alexander A. Auer      : GIAO ZORA, VPT2 properties, NMR spectrum
   Ute Becker             : Parallelization
   Giovanni Bistoni       : ED, misc. LED, open-shell LED, HFLD
   Martin Brehm           : Molecular dynamics
   Dmytro Bykov           : SCF Hessian
   Vijay G. Chilkuri      : MRCI spin determinant printing, contributions to CSF-ICE
   Dipayan Datta          : RHF DLPNO-CCSD density
   Achintya Kumar Dutta   : EOM-CC, STEOM-CC
   Dmitry Ganyushin       : Spin-Orbit,Spin-Spin,Magnetic field MRCI
   Miquel Garcia          : C-PCM and meta-GGA Hessian, CC/C-PCM, Gaussian charge scheme
   Yang Guo               : DLPNO-NEVPT2, F12-NEVPT2, CIM, IAO-localization
   Andreas Hansen         : Spin unrestricted coupled pair/coupled cluster methods
   Benjamin Helmich-Paris : MC-RPA, TRAH-SCF, COSX integrals
   Lee Huntington         : MR-EOM, pCC
   Robert Izsak           : Overlap fitted RIJCOSX, COSX-SCS-MP3, EOM
   Marcus Kettner         : VPT2
   Christian Kollmar      : KDIIS, OOCD, Brueckner-CCSD(T), CCSD density, CASPT2, CASPT2-K
   Simone Kossmann        : Meta GGA functionals, TD-DFT gradient, OOMP2, MP2 Hessian
   Martin Krupicka        : Initial AUTO-CI
   Lucas Lang             : DCDCAS
   Marvin Lechner         : AUTO-CI (C++ implementation), FIC-MRCC
   Dagmar Lenk            : GEPOL surface, SMD
   Dimitrios Liakos       : Extrapolation schemes; Compound Job, initial MDCI parallelization
   Dimitrios Manganas     : Further ROCIS development; embedding schemes
   Dimitrios Pantazis     : SARC Basis sets
   Anastasios Papadopoulos: AUTO-CI, single reference methods and gradients
   Taras Petrenko         : DFT Hessian,TD-DFT gradient, ASA, ECA, R-Raman, ABS, FL, XAS/XES, NRVS
   Peter Pinski           : DLPNO-MP2, DLPNO-MP2 Gradient
   Christoph Reimann      : Effective Core Potentials
   Marius Retegan         : Local ZFS, SOC
   Christoph Riplinger    : Optimizer, TS searches, QM/MM, DLPNO-CCSD(T), (RO)-DLPNO pert. Triples
   Tobias Risthaus        : Range-separated hybrids, TD-DFT gradient, RPA, STAB
   Michael Roemelt        : Original ROCIS implementation
   Masaaki Saitow         : Open-shell DLPNO-CCSD energy and density
   Barbara Sandhoefer     : DKH picture change effects
   Avijit Sen             : IP-ROCIS
   Kantharuban Sivalingam : CASSCF convergence, NEVPT2, FIC-MRCI
   Bernardo de Souza      : ESD, SOC TD-DFT
   Georgi Stoychev        : AutoAux, RI-MP2 NMR, DLPNO-MP2 response
   Willem Van den Heuvel  : Paramagnetic NMR
   Boris Wezisla          : Elementary symmetry handling
   Frank Wennmohs         : Technical directorship


 We gratefully acknowledge several colleagues who have allowed us to
 interface, adapt or use parts of their codes:
   Stefan Grimme, W. Hujo, H. Kruse, P. Pracht,  : VdW corrections, initial TS optimization,
                  C. Bannwarth, S. Ehlert          DFT functionals, gCP, sTDA/sTD-DF
   Ed Valeev, F. Pavosevic, A. Kumar             : LibInt (2-el integral package), F12 methods
   Garnet Chan, S. Sharma, J. Yang, R. Olivares  : DMRG
   Ulf Ekstrom                                   : XCFun DFT Library
   Mihaly Kallay                                 : mrcc  (arbitrary order and MRCC methods)
   Jiri Pittner, Ondrej Demel                    : Mk-CCSD
   Frank Weinhold                                : gennbo (NPA and NBO analysis)
   Christopher J. Cramer and Donald G. Truhlar   : smd solvation model
   Lars Goerigk                                  : TD-DFT with DH, B97 family of functionals
   V. Asgeirsson, H. Jonsson                     : NEB implementation
   FAccTs GmbH                                   : IRC, NEB, NEB-TS, DLPNO-Multilevel, CI-OPT
                                                   MM, QMMM, 2- and 3-layer-ONIOM, Crystal-QMMM,
                                                   LR-CPCM, SF, NACMEs, symmetry and pop. for TD-DFT,
                                                   nearIR, NL-DFT gradient (VV10), updates on ESD,
                                                   ML-optimized integration grids
   S Lehtola, MJT Oliveira, MAL Marques          : LibXC Library
   Liviu Ungur et al                             : ANISO software


 Your calculation uses the libint2 library for the computation of 2-el integrals
 For citations please refer to: http://libint.valeyev.net

 Your ORCA version has been built with support for libXC version: 5.1.0
 For citations please refer to: https://tddft.org/programs/libxc/

 This ORCA versions uses:
   CBLAS   interface :  Fast vector & matrix operations
   LAPACKE interface :  Fast linear algebra routines
   SCALAPACK package :  Parallel linear algebra routines
   Shared memory     :  Shared parallel matrices
   BLAS/LAPACK       :  OpenBLAS 0.3.15  USE64BITINT DYNAMIC_ARCH NO_AFFINITY Haswell SINGLE_THREADED
        Core in use  :  Haswell
   Copyright (c) 2011-2014, The OpenBLAS Project




***************************************
The coordinates will be read from file: ISO_C8H8_1.xyz
***************************************


Your calculation utilizes the geometrical counterpoise correction gCP
Please cite in your paper:
H.Kruse, S. Grimme J.Chem.Phys., 136, (2012), 154101 
   

Your calculation utilizes the atom-pairwise dispersion correction
with the Becke-Johnson damping scheme (D3BJ)
Cite in your paper:
S.Grimme, S.Ehrlich, L.Goerigk, J Comput Chem, (2011), 32, 1456–1465 
S.Grimme, J.Antony, S.Ehrlich and H.Krieg, J.Chem.Phys., 132, (2010), 154104 
   

Your calculation employs the composite approach PBEh-3c.
Please cite in your paper:
S. Grimme, J. G. Brandenburg, C. Bannwarth, A. Hansen J.Chem.Phys., 143, (2015), 054107 
   

================================================================================

----- Orbital basis set information -----
Your calculation utilizes the basis: def2-mSVP

----- AuxJ basis set information -----
Your calculation utilizes the auxiliary basis: def2/J
   F. Weigend, Phys. Chem. Chem. Phys. 8, 1057 (2006).

================================================================================
                                        WARNINGS
                       Please study these warnings very carefully!
================================================================================


INFO   : the flag for use of the SHARK integral package has been found!

================================================================================
                                       INPUT FILE
================================================================================
NAME = pbeh-3c.inp
|  1> ! PBEh-3c def2/J TightSCF DefGrid3
|  2> 
|  3> %maxcore 60000
|  4> 
|  5> %pal
|  6> nprocs 4
|  7> end
|  8> 
|  9> *xyzfile 0 1 ISO_C8H8_1.xyz
| 10> 
| 11>                          ****END OF INPUT****
================================================================================

                       ****************************
                       * Single Point Calculation *
                       ****************************

---------------------------------
CARTESIAN COORDINATES (ANGSTROEM)
---------------------------------
  C      0.534304   -0.213620    0.000000
  C      0.023992    1.091716    0.000000
  C     -0.378933   -1.274140    0.000000
  C     -1.342460    1.321546    0.000000
  C     -1.749264   -1.046114    0.000000
  C     -2.237453    0.254032    0.000000
  C      1.971332   -0.515299    0.000000
  C      2.985262    0.349567    0.000000
  H      0.700627    1.935173    0.000000
  H     -0.004873   -2.290395    0.000000
  H     -1.714404    2.337592    0.000000
  H     -2.433978   -1.883712    0.000000
  H     -3.303408    0.437279    0.000000
  H      2.207805   -1.574756    0.000000
  H      4.008593    0.001931    0.000000
  H      2.842229    1.421960    0.000000

----------------------------
CARTESIAN COORDINATES (A.U.)
----------------------------
  NO LB      ZA    FRAG     MASS         X           Y           Z
   0 C     6.0000    0    12.011    1.009688   -0.403684    0.000000
   1 C     6.0000    0    12.011    0.045339    2.063044    0.000000
   2 C     6.0000    0    12.011   -0.716080   -2.407775    0.000000
   3 C     6.0000    0    12.011   -2.536883    2.497359    0.000000
   4 C     6.0000    0    12.011   -3.305631   -1.976870    0.000000
   5 C     6.0000    0    12.011   -4.228174    0.480051    0.000000
   6 C     6.0000    0    12.011    3.725278   -0.973774    0.000000
   7 C     6.0000    0    12.011    5.641327    0.660586    0.000000
   8 H     1.0000    0     1.008    1.323993    3.656946    0.000000
   9 H     1.0000    0     1.008   -0.009208   -4.328219    0.000000
  10 H     1.0000    0     1.008   -3.239755    4.417408    0.000000
  11 H     1.0000    0     1.008   -4.599552   -3.559700    0.000000
  12 H     1.0000    0     1.008   -6.242536    0.826337    0.000000
  13 H     1.0000    0     1.008    4.172148   -2.975857    0.000000
  14 H     1.0000    0     1.008    7.575144    0.003648    0.000000
  15 H     1.0000    0     1.008    5.371034    2.687116    0.000000

--------------------------------
INTERNAL COORDINATES (ANGSTROEM)
--------------------------------
 C      0   0   0     0.000000000000     0.00000000     0.00000000
 C      1   0   0     1.401542267736     0.00000000     0.00000000
 C      1   2   0     1.399537209294   117.91486492     0.00000000
 C      2   1   3     1.385645841855   120.90012501     0.00000000
 C      3   1   2     1.389173478108   121.28492557     0.00000000
 C      5   3   1     1.388779679705   120.02809891     0.00000000
 C      1   2   3     1.468353007298   123.20873313   180.00000000
 C      7   1   2     1.332683768244   127.68026057     0.00000000
 H      2   1   3     1.081320485644   119.91018201   180.00000000
 H      3   1   2     1.082910371606   119.05999454   180.00000000
 H      4   2   1     1.081985032264   119.65363546   180.00000000
 H      5   3   1     1.081851668159   119.81753398   180.00000085
 H      6   5   3     1.081590510636   120.33485533   180.00000000
 H      7   1   2     1.085526417189   114.43838405   180.00000000
 H      8   7   1     1.080767515047   120.77319367   180.00000000
 H      8   7   1     1.081890290681   122.86655837     0.00000000

---------------------------
INTERNAL COORDINATES (A.U.)
---------------------------
 C      0   0   0     0.000000000000     0.00000000     0.00000000
 C      1   0   0     2.648531051135     0.00000000     0.00000000
 C      1   2   0     2.644742039799   117.91486492     0.00000000
 C      2   1   3     2.618491159712   120.90012501     0.00000000
 C      3   1   2     2.625157426130   121.28492557     0.00000000
 C      5   3   1     2.624413254998   120.02809891     0.00000000
 C      1   2   3     2.774785051713   123.20873313   180.00000000
 C      7   1   2     2.518407345103   127.68026057     0.00000000
 H      2   1   3     2.043399580865   119.91018201   180.00000000
 H      3   1   2     2.046404029919   119.05999454   180.00000000
 H      4   2   1     2.044655391980   119.65363546   180.00000000
 H      5   3   1     2.044403370346   119.81753398   180.00000085
 H      6   5   3     2.043909854150   120.33485533   180.00000000
 H      7   1   2     2.051347639625   114.43838405   180.00000000
 H      8   7   1     2.042354617878   120.77319367   180.00000000
 H      8   7   1     2.044476356335   122.86655837     0.00000000

---------------------
BASIS SET INFORMATION
---------------------
There are 2 groups of distinct atoms

 Group   1 Type C   : 8s4p1d contracted to 4s2p1d pattern {5111/31/1}
 Group   2 Type H   : 4s contracted to 2s pattern {31}

Atom   0C    basis set group =>   1
Atom   1C    basis set group =>   1
Atom   2C    basis set group =>   1
Atom   3C    basis set group =>   1
Atom   4C    basis set group =>   1
Atom   5C    basis set group =>   1
Atom   6C    basis set group =>   1
Atom   7C    basis set group =>   1
Atom   8H    basis set group =>   2
Atom   9H    basis set group =>   2
Atom  10H    basis set group =>   2
Atom  11H    basis set group =>   2
Atom  12H    basis set group =>   2
Atom  13H    basis set group =>   2
Atom  14H    basis set group =>   2
Atom  15H    basis set group =>   2
---------------------------------
AUXILIARY/J BASIS SET INFORMATION
---------------------------------
There are 2 groups of distinct atoms

 Group   1 Type C   : 12s5p4d2f1g contracted to 6s4p3d1f1g pattern {711111/2111/211/2/1}
 Group   2 Type H   : 5s2p1d contracted to 3s1p1d pattern {311/2/1}

Atom   0C    basis set group =>   1
Atom   1C    basis set group =>   1
Atom   2C    basis set group =>   1
Atom   3C    basis set group =>   1
Atom   4C    basis set group =>   1
Atom   5C    basis set group =>   1
Atom   6C    basis set group =>   1
Atom   7C    basis set group =>   1
Atom   8H    basis set group =>   2
Atom   9H    basis set group =>   2
Atom  10H    basis set group =>   2
Atom  11H    basis set group =>   2
Atom  12H    basis set group =>   2
Atom  13H    basis set group =>   2
Atom  14H    basis set group =>   2
Atom  15H    basis set group =>   2


           ************************************************************
           *        Program running with 4 parallel MPI-processes     *
           *              working on a common directory               *
           ************************************************************
------------------------------------------------------------------------------
                           ORCA GTO INTEGRAL CALCULATION
                           -- RI-GTO INTEGRALS CHOSEN --
------------------------------------------------------------------------------
------------------------------------------------------------------------------
                   ___                                                        
                  /   \      - P O W E R E D   B Y -                         
                 /     \                                                     
                 |  |  |   _    _      __       _____    __    __             
                 |  |  |  | |  | |    /  \     |  _  \  |  |  /  |          
                  \  \/   | |  | |   /    \    | | | |  |  | /  /          
                 / \  \   | |__| |  /  /\  \   | |_| |  |  |/  /          
                |  |  |   |  __  | /  /__\  \  |    /   |      \           
                |  |  |   | |  | | |   __   |  |    \   |  |\   \          
                \     /   | |  | | |  |  |  |  | |\  \  |  | \   \       
                 \___/    |_|  |_| |__|  |__|  |_| \__\ |__|  \__/        
                                                                              
                      - O R C A' S   B I G   F R I E N D -                    
                                      &                                       
                       - I N T E G R A L  F E E D E R -                       
                                                                              
 v1 FN, 2020, v2 2021                                                         
------------------------------------------------------------------------------


Reading SHARK input file pbeh-3c.SHARKINP.tmp ... ok
----------------------
SHARK INTEGRAL PACKAGE
----------------------

Number of atoms                             ...     16
Number of basis functions                   ...    136
Number of shells                            ...     72
Maximum angular momentum                    ...      2
Integral batch strategy                     ... SHARK/LIBINT Hybrid
RI-J (if used) integral strategy            ... SPLIT-RIJ (Revised 2003 algorithm where possible)
Printlevel                                  ...      1
Contraction scheme used                     ... SEGMENTED contraction
Coulomb Range Separation                    ... NOT USED
Exchange Range Separation                   ... NOT USED
Finite Nucleus Model                        ... NOT USED
Auxiliary Coulomb fitting basis             ... AVAILABLE
   # of basis functions in Aux-J            ...    480
   # of shells in Aux-J                     ...    160
   Maximum angular momentum in Aux-J        ...      4
Auxiliary J/K fitting basis                 ... NOT available
Auxiliary Correlation fitting basis         ... NOT available
Auxiliary 'external' fitting basis          ... NOT available
Integral threshold                          ...     2.500000e-11
Primitive cut-off                           ...     2.500000e-12
Primitive pair pre-selection threshold      ...     2.500000e-12

Calculating pre-screening integrals         ... done (  0.1 sec) Dimension = 72
Organizing shell pair data                  ... done (  0.3 sec)
Shell pair information
Total number of shell pairs                 ...      2628
Shell pairs after pre-screening             ...      2382
Total number of primitive shell pairs       ...      9444
Primitive shell pairs kept                  ...      6160
          la=0 lb=0:    995 shell pairs
          la=1 lb=0:    744 shell pairs
          la=1 lb=1:    136 shell pairs
          la=2 lb=0:    345 shell pairs
          la=2 lb=1:    128 shell pairs
          la=2 lb=2:     34 shell pairs

Calculating one electron integrals          ... done (  0.0 sec)
Calculating RI/J V-Matrix + Cholesky decomp.... done (  0.1 sec)
Calculating Nuclear repulsion               ... done (  0.0 sec) ENN=    320.723663682286 Eh

SHARK setup successfully completed in   1.3 seconds

Maximum memory used throughout the entire GTOINT-calculation: 11.1 MB


           ************************************************************
           *        Program running with 4 parallel MPI-processes     *
           *              working on a common directory               *
           ************************************************************
-------------------------------------------------------------------------------
                                 ORCA SCF
-------------------------------------------------------------------------------

------------
SCF SETTINGS
------------
Hamiltonian:
 Density Functional     Method          .... DFT(GTOs)
 Exchange Functional    Exchange        .... PBE
   PBE kappa parameter   XKappa         ....  1.024500
   PBE mue parameter    XMuePBE         ....  0.123457
 Correlation Functional Correlation     .... PBE
   PBE beta parameter  CBetaPBE         ....  0.030000
 LDA part of GGA corr.  LDAOpt          .... PW91-LDA
 Gradients option       PostSCFGGA      .... off
 Hybrid DFT is turned on
   Fraction HF Exchange ScalHFX         ....  0.420000
   Scaling of DF-GGA-X  ScalDFX         ....  0.580000
   Scaling of DF-GGA-C  ScalDFC         ....  1.000000
   Scaling of DF-LDA-C  ScalLDAC        ....  1.000000
   Perturbative correction              ....  0.000000
   Density functional embedding theory  .... OFF
 RI-approximation to the Coulomb term is turned on
   Number of AuxJ basis functions       .... 480
   RIJ-ON(X) (HFX calculated with O(N)) .... on
   Number of AuxJ basis functions       .... 480
   RIJ-COSX (HFX calculated with COS-X)).... on


General Settings:
 Integral files         IntName         .... pbeh-3c
 Hartree-Fock type      HFTyp           .... RHF
 Total Charge           Charge          ....    0
 Multiplicity           Mult            ....    1
 Number of Electrons    NEL             ....   56
 Basis Dimension        Dim             ....  136
 Nuclear Repulsion      ENuc            ....    320.7236636823 Eh

Convergence Acceleration:
 DIIS                   CNVDIIS         .... on
   Start iteration      DIISMaxIt       ....    12
   Startup error        DIISStart       ....  0.200000
   # of expansion vecs  DIISMaxEq       ....     5
   Bias factor          DIISBfac        ....   1.050
   Max. coefficient     DIISMaxC        ....  10.000
 Trust-Rad. Augm. Hess. CNVTRAH         .... auto
   Auto Start mean grad. ratio tolernc. ....  1.125000
   Auto Start start iteration           ....    20
   Auto Start num. interpolation iter.  ....    10
   Max. Number of Micro iterations      ....    16
   Max. Number of Macro iterations      .... Maxiter - #DIIS iter
   Number of Davidson start vectors     ....     2
   Converg. threshold I  (grad. norm)   ....   1.000e-05
   Converg. threshold II (energy diff.) ....   1.000e-08
   Grad. Scal. Fac. for Micro threshold ....   0.100
   Minimum threshold for Micro iter.    ....   0.010
   NR start threshold (gradient norm)   ....   0.001
   Initial trust radius                 ....   0.400
   Minimum AH scaling param. (alpha)    ....   1.000
   Maximum AH scaling param. (alpha)    .... 1000.000
   Orbital update algorithm             .... Taylor
   White noise on init. David. guess    .... on
   Maximum white noise                  ....   0.010
   Quad. conv. algorithm                .... NR
   COSX micro iterations for RIJONX calc.... off
 SOSCF                  CNVSOSCF        .... on
   Start iteration      SOSCFMaxIt      ....   150
   Startup grad/error   SOSCFStart      ....  0.003300
 Level Shifting         CNVShift        .... on
   Level shift para.    LevelShift      ....    0.2500
   Turn off err/grad.   ShiftErr        ....    0.0010
 Zerner damping         CNVZerner       .... off
 Static damping         CNVDamp         .... on
   Fraction old density DampFac         ....    0.7000
   Max. Damping (<1)    DampMax         ....    0.9800
   Min. Damping (>=0)   DampMin         ....    0.0000
   Turn off err/grad.   DampErr         ....    0.1000
 Fernandez-Rico         CNVRico         .... off

SCF Procedure:
 Maximum # iterations   MaxIter         ....   125
 SCF integral mode      SCFMode         .... Direct
   Integral package                     .... SHARK and LIBINT hybrid scheme
 Reset frequency        DirectResetFreq ....    20
 Integral Threshold     Thresh          ....  2.500e-11 Eh
 Primitive CutOff       TCut            ....  2.500e-12 Eh

Convergence Tolerance:
 Convergence Check Mode ConvCheckMode   .... Total+1el-Energy
 Convergence forced     ConvForced      .... 0
 Energy Change          TolE            ....  1.000e-08 Eh
 1-El. energy change                    ....  1.000e-05 Eh
 Orbital Gradient       TolG            ....  1.000e-05
 Orbital Rotation angle TolX            ....  1.000e-05
 DIIS Error             TolErr          ....  5.000e-07


Diagonalization of the overlap matrix:
Smallest eigenvalue                        ... 4.351e-04
Time for diagonalization                   ...    0.004 sec
Threshold for overlap eigenvalues          ... 1.000e-08
Number of eigenvalues below threshold      ... 0
Time for construction of square roots      ...    0.100 sec
Total time needed                          ...    0.104 sec

--------------------------------
INITIAL GUESS: MINIMAL BASIS EHT
--------------------------------
The minimal basis has 48 functions
EHT matrix was diagonalized
Basis set overlap was calculated now projecting the orbitals
Using GuessMode=FMatrix for the initial guess
C*T matrix was formed
Effective Fockian was calculated
Effective Fockian was diagonalized
Initial density was built
                      ------------------
                      INITIAL GUESS DONE
                      ------------------
-------------------
DFT GRID GENERATION
-------------------

General Integration Accuracy     IntAcc      ... 4.959
Radial Grid Type                 RadialGrid  ... OptM3 with GC (2021)
Angular Grid (max. ang.)         AngularGrid ... 6 (Lebedev-590)
Angular grid pruning method      GridPruning ... 4 (adaptive)
Weight generation scheme         WeightScheme... Becke
Basis function cutoff            BFCut       ... 1.0000e-11
Integration weight cutoff        WCut        ... 1.0000e-14
Angular grids for H and He will be reduced by one unit
Partially contracted basis set               ... off
Rotationally invariant grid construction     ... off

Total number of grid points                  ...   184122
Total number of batches                      ...     2883
Average number of points per batch           ...       63
Average number of grid points per atom       ...    11508
Time for grid setup =    3.699 sec

--------------------
COSX GRID GENERATION
--------------------

GRIDX 1
-------
General Integration Accuracy     IntAcc      ... 4.020
Radial Grid Type                 RadialGrid  ... OptM3 with GC (2021)
Angular Grid (max. ang.)         AngularGrid ... 2 (Lebedev-110)
Angular grid pruning method      GridPruning ... 4 (adaptive)
Weight generation scheme         WeightScheme... Becke
Basis function cutoff            BFCut       ... 1.0000e-11
Integration weight cutoff        WCut        ... 1.0000e-14
Angular grids for H and He will be reduced by one unit
Partially contracted basis set               ... on
Rotationally invariant grid construction     ... off

Total number of grid points                  ...    20521
Total number of batches                      ...      328
Average number of points per batch           ...       62
Average number of grid points per atom       ...     1283
UseSFitting                                  ... on

GRIDX 2
-------
General Integration Accuracy     IntAcc      ... 4.338
Radial Grid Type                 RadialGrid  ... OptM3 with GC (2021)
Angular Grid (max. ang.)         AngularGrid ... 3 (Lebedev-194)
Angular grid pruning method      GridPruning ... 4 (adaptive)
Weight generation scheme         WeightScheme... Becke
Basis function cutoff            BFCut       ... 1.0000e-11
Integration weight cutoff        WCut        ... 1.0000e-14
Angular grids for H and He will be reduced by one unit
Partially contracted basis set               ... on
Rotationally invariant grid construction     ... off

Total number of grid points                  ...    45031
Total number of batches                      ...      712
Average number of points per batch           ...       63
Average number of grid points per atom       ...     2814
UseSFitting                                  ... on

GRIDX 3
-------
General Integration Accuracy     IntAcc      ... 4.871
Radial Grid Type                 RadialGrid  ... OptM3 with GC (2021)
Angular Grid (max. ang.)         AngularGrid ... 4 (Lebedev-302)
Angular grid pruning method      GridPruning ... 4 (adaptive)
Weight generation scheme         WeightScheme... Becke
Basis function cutoff            BFCut       ... 1.0000e-11
Integration weight cutoff        WCut        ... 1.0000e-14
Angular grids for H and He will be reduced by one unit
Partially contracted basis set               ... on
Rotationally invariant grid construction     ... off

Total number of grid points                  ...    86065
Total number of batches                      ...     1351
Average number of points per batch           ...       63
Average number of grid points per atom       ...     5379
UseSFitting                                  ... on

Time for X-Grid setup             =    3.210 sec

--------------
SCF ITERATIONS
--------------
ITER       Energy         Delta-E        Max-DP      RMS-DP      [F,P]     Damp
               ***  Starting incremental Fock matrix formation  ***
  0   -308.1936387058   0.000000000000 0.11982464  0.00479030  0.4121613 0.7000
  1   -308.4140233109  -0.220384605087 0.08591484  0.00350988  0.2910288 0.7000
  2   -308.5731269163  -0.159103605453 0.06173556  0.00257376  0.2043560 0.7000
                               ***Turning on DIIS***
  3   -308.6868982344  -0.113771318053 0.04431327  0.00188684  0.1434896 0.7000
  4   -308.7678886705  -0.080990436084 0.03257752  0.00145861  0.1007499 0.7000
  5   -308.8253661288  -0.057477458389 0.07770702  0.00358604  0.0706218 0.0000
                      *** Initiating the SOSCF procedure ***
                           *** Shutting down DIIS ***
                      *** Re-Reading the Fockian *** 
                      *** Removing any level shift *** 
ITER      Energy       Delta-E        Grad      Rot      Max-DP    RMS-DP
  6   -308.96256321  -0.1371970849  0.001923  0.001923  0.002687  0.000097
               *** Restarting incremental Fock matrix formation ***
  7   -308.96261909  -0.0000558812  0.000658  0.000738  0.001271  0.000038
  8   -308.96262582  -0.0000067292  0.000111  0.000312  0.000786  0.000017
  9   -308.96262585  -0.0000000288  0.000145  0.000177  0.000388  0.000008
 10   -308.96262626  -0.0000004105  0.000018  0.000052  0.000042  0.000002
 11   -308.96262626   0.0000000015  0.000023  0.000032  0.000022  0.000001
                  ***Gradient check signals convergence***
              ***Rediagonalizing the Fockian in SOSCF/NRSCF***

               *****************************************************
               *                     SUCCESS                       *
               *           SCF CONVERGED AFTER  12 CYCLES          *
               *****************************************************

Old exchange energy                            =    -18.593353872 Eh
New exchange energy                            =    -18.593359726 Eh
Exchange energy change after final integration =     -0.000005853 Eh
Total energy after final integration           =   -308.962632124 Eh
Final COS-X integration done in                =     5.336 sec

----------------
TOTAL SCF ENERGY
----------------

Total Energy       :         -308.96263212 Eh           -8407.30064 eV

Components:
Nuclear Repulsion  :          320.72366368 Eh            8727.33458 eV
Electronic Energy  :         -629.68629581 Eh          -17134.63522 eV
One Electron Energy:        -1050.61826084 Eh          -28588.77630 eV
Two Electron Energy:          420.93196503 Eh           11454.14109 eV
Max COSX asymmetry :            0.00000095 Eh               0.00003 eV

Virial components:
Potential Energy   :         -615.41744417 Eh          -16746.36002 eV
Kinetic Energy     :          306.45481204 Eh            8339.05939 eV
Virial Ratio       :            2.00818333


DFT components:
N(Alpha)           :       27.999997577865 electrons
N(Beta)            :       27.999997577865 electrons
N(Total)           :       55.999995155731 electrons
E(X)               :      -24.679478303545 Eh       
E(C)               :       -2.403059651044 Eh       
E(XC)              :      -27.082537954589 Eh       
DFET-embed. en.    :        0.000000000000 Eh       

---------------
SCF CONVERGENCE
---------------

  Last Energy change         ...   -9.2174e-09  Tolerance :   1.0000e-08
  Last MAX-Density change    ...    1.1102e-15  Tolerance :   1.0000e-07
  Last RMS-Density change    ...    4.1782e-17  Tolerance :   5.0000e-09
  Last Orbital Gradient      ...    2.0788e-06  Tolerance :   1.0000e-05
  Last Orbital Rotation      ...    6.7090e-06  Tolerance :   1.0000e-05

             **** THE GBW FILE WAS UPDATED (pbeh-3c.gbw) ****
             **** DENSITY pbeh-3c.scfp WAS UPDATED ****
             **** ENERGY FILE WAS UPDATED (pbeh-3c.en.tmp) ****
             **** THE GBW FILE WAS UPDATED (pbeh-3c.gbw) ****
             **** DENSITY pbeh-3c.scfp WAS UPDATED ****
----------------
ORBITAL ENERGIES
----------------

  NO   OCC          E(Eh)            E(eV) 
   0   2.0000     -10.460447      -284.6432 
   1   2.0000     -10.453227      -284.4468 
   2   2.0000     -10.450363      -284.3688 
   3   2.0000     -10.450211      -284.3647 
   4   2.0000     -10.449753      -284.3522 
   5   2.0000     -10.449526      -284.3461 
   6   2.0000     -10.449229      -284.3380 
   7   2.0000     -10.440697      -284.1058 
   8   2.0000      -0.962465       -26.1900 
   9   2.0000      -0.885893       -24.1064 
  10   2.0000      -0.839930       -22.8556 
  11   2.0000      -0.816372       -22.2146 
  12   2.0000      -0.704831       -19.1794 
  13   2.0000      -0.683647       -18.6030 
  14   2.0000      -0.633661       -17.2428 
  15   2.0000      -0.584069       -15.8933 
  16   2.0000      -0.541014       -14.7217 
  17   2.0000      -0.520952       -14.1758 
  18   2.0000      -0.503062       -13.6890 
  19   2.0000      -0.482677       -13.1343 
  20   2.0000      -0.473470       -12.8838 
  21   2.0000      -0.433391       -11.7932 
  22   2.0000      -0.428499       -11.6600 
  23   2.0000      -0.400523       -10.8988 
  24   2.0000      -0.393407       -10.7052 
  25   2.0000      -0.350479        -9.5370 
  26   2.0000      -0.296082        -8.0568 
  27   2.0000      -0.265715        -7.2305 
  28   0.0000      -0.015985        -0.4350 
  29   0.0000       0.018398         0.5006 
  30   0.0000       0.086039         2.3412 
  31   0.0000       0.140612         3.8263 
  32   0.0000       0.162233         4.4146 
  33   0.0000       0.171264         4.6603 
  34   0.0000       0.209622         5.7041 
  35   0.0000       0.209837         5.7100 
  36   0.0000       0.213982         5.8227 
  37   0.0000       0.239022         6.5041 
  38   0.0000       0.253521         6.8986 
  39   0.0000       0.268804         7.3145 
  40   0.0000       0.297296         8.0898 
  41   0.0000       0.312594         8.5061 
  42   0.0000       0.323850         8.8124 
  43   0.0000       0.352086         9.5807 
  44   0.0000       0.363813         9.8998 
  45   0.0000       0.425986        11.5917 
  46   0.0000       0.457100        12.4383 
  47   0.0000       0.507823        13.8186 
  48   0.0000       0.525757        14.3066 
  49   0.0000       0.541992        14.7483 
  50   0.0000       0.578513        15.7421 
  51   0.0000       0.579305        15.7637 
  52   0.0000       0.586126        15.9493 
  53   0.0000       0.606853        16.5133 
  54   0.0000       0.612924        16.6785 
  55   0.0000       0.624139        16.9837 
  56   0.0000       0.628550        17.1037 
  57   0.0000       0.634807        17.2740 
  58   0.0000       0.641839        17.4653 
  59   0.0000       0.651427        17.7262 
  60   0.0000       0.676329        18.4039 
  61   0.0000       0.706302        19.2195 
  62   0.0000       0.712042        19.3757 
  63   0.0000       0.739544        20.1240 
  64   0.0000       0.759621        20.6703 
  65   0.0000       0.759689        20.6722 
  66   0.0000       0.891903        24.2699 
  67   0.0000       0.916310        24.9341 
  68   0.0000       0.931716        25.3533 
  69   0.0000       0.952837        25.9280 
  70   0.0000       0.979471        26.6528 
  71   0.0000       1.001189        27.2437 
  72   0.0000       1.007508        27.4157 
  73   0.0000       1.023662        27.8553 
  74   0.0000       1.050221        28.5780 
  75   0.0000       1.056159        28.7396 
  76   0.0000       1.065167        28.9847 
  77   0.0000       1.082308        29.4511 
  78   0.0000       1.093056        29.7436 
  79   0.0000       1.126163        30.6445 
  80   0.0000       1.159173        31.5427 
  81   0.0000       1.165209        31.7069 
  82   0.0000       1.185996        32.2726 
  83   0.0000       1.273903        34.6647 
  84   0.0000       1.299383        35.3580 
  85   0.0000       1.335995        36.3543 
  86   0.0000       1.359601        36.9966 
  87   0.0000       1.363662        37.1071 
  88   0.0000       1.413533        38.4642 
  89   0.0000       1.480713        40.2922 
  90   0.0000       1.513627        41.1879 
  91   0.0000       1.545589        42.0576 
  92   0.0000       1.560242        42.4564 
  93   0.0000       1.574179        42.8356 
  94   0.0000       1.584757        43.1234 
  95   0.0000       1.731171        47.1076 
  96   0.0000       1.803158        49.0664 
  97   0.0000       1.841694        50.1151 
  98   0.0000       1.859675        50.6043 
  99   0.0000       1.971300        53.6418 
 100   0.0000       1.995272        54.2941 
 101   0.0000       2.051619        55.8274 
 102   0.0000       2.060390        56.0661 
 103   0.0000       2.078658        56.5632 
 104   0.0000       2.127505        57.8924 
 105   0.0000       2.178012        59.2667 
 106   0.0000       2.194293        59.7097 
 107   0.0000       2.197590        59.7995 
 108   0.0000       2.222436        60.4756 
 109   0.0000       2.251669        61.2710 
 110   0.0000       2.296028        62.4781 
 111   0.0000       2.330057        63.4041 
 112   0.0000       2.377742        64.7016 
 113   0.0000       2.396812        65.2206 
 114   0.0000       2.436473        66.2998 
 115   0.0000       2.578699        70.1700 
 116   0.0000       2.587510        70.4097 
 117   0.0000       2.641012        71.8656 
 118   0.0000       2.675139        72.7942 
 119   0.0000       2.700079        73.4729 
 120   0.0000       2.739941        74.5576 
 121   0.0000       2.776266        75.5460 
 122   0.0000       2.803999        76.3007 
 123   0.0000       2.846503        77.4573 
 124   0.0000       2.912124        79.2429 
 125   0.0000       2.990343        81.3714 
 126   0.0000       3.226115        87.7871 
 127   0.0000       3.481677        94.7413 
 128   0.0000      13.203587       359.2879 
 129   0.0000      13.493448       367.1754 
 130   0.0000      13.659542       371.6950 
 131   0.0000      13.716470       373.2441 
 132   0.0000      14.060634       382.6093 
 133   0.0000      14.143616       384.8673 
 134   0.0000      14.223604       387.0439 
 135   0.0000      14.550255       395.9326 

                    ********************************
                    * MULLIKEN POPULATION ANALYSIS *
                    ********************************

-----------------------
MULLIKEN ATOMIC CHARGES
-----------------------
   0 C :    0.163068
   1 C :   -0.286147
   2 C :   -0.286040
   3 C :   -0.198474
   4 C :   -0.202925
   5 C :   -0.236354
   6 C :   -0.192161
   7 C :   -0.499283
   8 H :    0.209484
   9 H :    0.215007
  10 H :    0.220859
  11 H :    0.220237
  12 H :    0.221251
  13 H :    0.212763
  14 H :    0.224910
  15 H :    0.213805
Sum of atomic charges:    0.0000000

--------------------------------
MULLIKEN REDUCED ORBITAL CHARGES
--------------------------------
  0 C s       :     3.176164  s :     3.176164
      pz      :     0.971574  p :     2.614756
      px      :     0.827839
      py      :     0.815343
      dz2     :     0.003599  d :     0.046013
      dxz     :     0.006388
      dyz     :     0.006695
      dx2y2   :     0.014510
      dxy     :     0.014821
  1 C s       :     3.287944  s :     3.287944
      pz      :     0.989451  p :     2.958861
      px      :     0.972941
      py      :     0.996469
      dz2     :     0.003954  d :     0.039343
      dxz     :     0.005102
      dyz     :     0.003872
      dx2y2   :     0.011004
      dxy     :     0.015411
  2 C s       :     3.276625  s :     3.276625
      pz      :     0.998174  p :     2.970055
      px      :     0.937483
      py      :     1.034398
      dz2     :     0.003933  d :     0.039361
      dxz     :     0.006427
      dyz     :     0.002604
      dx2y2   :     0.013272
      dxy     :     0.013124
  3 C s       :     3.239666  s :     3.239666
      pz      :     0.989288  p :     2.918699
      px      :     0.912169
      py      :     1.017242
      dz2     :     0.003844  d :     0.040109
      dxz     :     0.006638
      dyz     :     0.002816
      dx2y2   :     0.013752
      dxy     :     0.013059
  4 C s       :     3.241338  s :     3.241338
      pz      :     0.988989  p :     2.921601
      px      :     0.953717
      py      :     0.978896
      dz2     :     0.003846  d :     0.039985
      dxz     :     0.005152
      dyz     :     0.004239
      dx2y2   :     0.011346
      dxy     :     0.015401
  5 C s       :     3.252408  s :     3.252408
      pz      :     0.990360  p :     2.944105
      px      :     1.045047
      py      :     0.908697
      dz2     :     0.003857  d :     0.039842
      dxz     :     0.002463
      dyz     :     0.006696
      dx2y2   :     0.015066
      dxy     :     0.011760
  6 C s       :     3.240034  s :     3.240034
      pz      :     0.983719  p :     2.911460
      px      :     0.894333
      py      :     1.033407
      dz2     :     0.003763  d :     0.040668
      dxz     :     0.007501
      dyz     :     0.002502
      dx2y2   :     0.017032
      dxy     :     0.009870
  7 C s       :     3.334662  s :     3.334662
      pz      :     1.013849  p :     3.132128
      px      :     1.060185
      py      :     1.058094
      dz2     :     0.004158  d :     0.032493
      dxz     :     0.003185
      dyz     :     0.002316
      dx2y2   :     0.014784
      dxy     :     0.008049
  8 H s       :     0.790516  s :     0.790516
  9 H s       :     0.784993  s :     0.784993
 10 H s       :     0.779141  s :     0.779141
 11 H s       :     0.779763  s :     0.779763
 12 H s       :     0.778749  s :     0.778749
 13 H s       :     0.787237  s :     0.787237
 14 H s       :     0.775090  s :     0.775090
 15 H s       :     0.786195  s :     0.786195


                     *******************************
                     * LOEWDIN POPULATION ANALYSIS *
                     *******************************

----------------------
LOEWDIN ATOMIC CHARGES
----------------------
   0 C :   -0.050428
   1 C :   -0.119035
   2 C :   -0.126045
   3 C :   -0.130938
   4 C :   -0.132757
   5 C :   -0.134894
   6 C :   -0.128893
   7 C :   -0.257718
   8 H :    0.135184
   9 H :    0.135432
  10 H :    0.136662
  11 H :    0.136977
  12 H :    0.136584
  13 H :    0.133899
  14 H :    0.137146
  15 H :    0.128823

-------------------------------
LOEWDIN REDUCED ORBITAL CHARGES
-------------------------------
  0 C s       :     2.843393  s :     2.843393
      pz      :     0.957161  p :     3.096056
      px      :     1.048419
      py      :     1.090476
      dz2     :     0.006849  d :     0.110980
      dxz     :     0.012090
      dyz     :     0.013679
      dx2y2   :     0.038725
      dxy     :     0.039637
  1 C s       :     2.887686  s :     2.887686
      pz      :     0.984245  p :     3.142762
      px      :     1.082613
      py      :     1.075904
      dz2     :     0.006313  d :     0.088586
      dxz     :     0.009860
      dyz     :     0.007227
      dx2y2   :     0.028531
      dxy     :     0.036656
  2 C s       :     2.890387  s :     2.890387
      pz      :     0.989489  p :     3.146805
      px      :     1.083192
      py      :     1.074124
      dz2     :     0.006290  d :     0.088853
      dxz     :     0.013013
      dyz     :     0.004281
      dx2y2   :     0.032590
      dxy     :     0.032680
  3 C s       :     2.890652  s :     2.890652
      pz      :     0.979717  p :     3.149259
      px      :     1.089446
      py      :     1.080097
      dz2     :     0.006329  d :     0.091026
      dxz     :     0.013621
      dyz     :     0.004665
      dx2y2   :     0.033741
      dxy     :     0.032671
  4 C s       :     2.890881  s :     2.890881
      pz      :     0.980723  p :     3.151049
      px      :     1.085759
      py      :     1.084567
      dz2     :     0.006344  d :     0.090826
      dxz     :     0.010290
      dyz     :     0.007973
      dx2y2   :     0.029582
      dxy     :     0.036636
  5 C s       :     2.892902  s :     2.892902
      pz      :     0.982099  p :     3.151927
      px      :     1.079176
      py      :     1.090651
      dz2     :     0.006323  d :     0.090066
      dxz     :     0.003769
      dyz     :     0.013853
      dx2y2   :     0.035900
      dxy     :     0.030221
  6 C s       :     2.899411  s :     2.899411
      pz      :     0.968583  p :     3.138250
      px      :     1.069962
      py      :     1.099705
      dz2     :     0.006198  d :     0.091232
      dxz     :     0.015089
      dyz     :     0.004125
      dx2y2   :     0.039952
      dxy     :     0.025867
  7 C s       :     2.959300  s :     2.959300
      pz      :     1.015046  p :     3.232407
      px      :     1.107124
      py      :     1.110237
      dz2     :     0.005695  d :     0.066011
      dxz     :     0.005421
      dyz     :     0.003978
      dx2y2   :     0.031653
      dxy     :     0.019263
  8 H s       :     0.864816  s :     0.864816
  9 H s       :     0.864568  s :     0.864568
 10 H s       :     0.863338  s :     0.863338
 11 H s       :     0.863023  s :     0.863023
 12 H s       :     0.863416  s :     0.863416
 13 H s       :     0.866101  s :     0.866101
 14 H s       :     0.862854  s :     0.862854
 15 H s       :     0.871177  s :     0.871177


                      *****************************
                      * MAYER POPULATION ANALYSIS *
                      *****************************

  NA   - Mulliken gross atomic population
  ZA   - Total nuclear charge
  QA   - Mulliken gross atomic charge
  VA   - Mayer's total valence
  BVA  - Mayer's bonded valence
  FA   - Mayer's free valence

  ATOM       NA         ZA         QA         VA         BVA        FA
  0 C      5.8369     6.0000     0.1631     3.7388     3.7388     0.0000
  1 C      6.2861     6.0000    -0.2861     3.8025     3.8025     0.0000
  2 C      6.2860     6.0000    -0.2860     3.8049     3.8049     0.0000
  3 C      6.1985     6.0000    -0.1985     3.8137     3.8137     0.0000
  4 C      6.2029     6.0000    -0.2029     3.8152     3.8152     0.0000
  5 C      6.2364     6.0000    -0.2364     3.8236     3.8236     0.0000
  6 C      6.1922     6.0000    -0.1922     3.8055     3.8055     0.0000
  7 C      6.4993     6.0000    -0.4993     3.7963     3.7963    -0.0000
  8 H      0.7905     1.0000     0.2095     0.9216     0.9216     0.0000
  9 H      0.7850     1.0000     0.2150     0.9159     0.9159     0.0000
 10 H      0.7791     1.0000     0.2209     0.9107     0.9107     0.0000
 11 H      0.7798     1.0000     0.2202     0.9112     0.9112     0.0000
 12 H      0.7787     1.0000     0.2213     0.9113     0.9113    -0.0000
 13 H      0.7872     1.0000     0.2128     0.9138     0.9138     0.0000
 14 H      0.7751     1.0000     0.2249     0.9202     0.9202     0.0000
 15 H      0.7862     1.0000     0.2138     0.9235     0.9235     0.0000

  Mayer bond orders larger than 0.100000
B(  0-C ,  1-C ) :   1.3508 B(  0-C ,  2-C ) :   1.3548 B(  0-C ,  6-C ) :   1.0480 
B(  1-C ,  3-C ) :   1.4525 B(  1-C ,  8-H ) :   0.9211 B(  2-C ,  4-C ) :   1.4256 
B(  2-C ,  9-H ) :   0.9215 B(  3-C ,  5-C ) :   1.4031 B(  3-C , 10-H ) :   0.9198 
B(  4-C ,  5-C ) :   1.4309 B(  4-C , 11-H ) :   0.9197 B(  5-C , 12-H ) :   0.9188 
B(  6-C ,  7-C ) :   1.8696 B(  6-C , 13-H ) :   0.9215 B(  7-C , 14-H ) :   0.9255 
B(  7-C , 15-H ) :   0.9241 

-------
TIMINGS
-------

Total SCF time: 0 days 0 hours 1 min 7 sec 

Total time                  ....      67.872 sec
Sum of individual times     ....      63.809 sec  ( 94.0%)

Fock matrix formation       ....      54.899 sec  ( 80.9%)
  Split-RI-J                ....       5.132 sec  (  9.3% of F)
  Chain of spheres X        ....      27.442 sec  ( 50.0% of F)
  XC integration            ....      14.028 sec  ( 25.6% of F)
    Basis function eval.    ....       2.827 sec  ( 20.2% of XC)
    Density eval.           ....       1.706 sec  ( 12.2% of XC)
    XC-Functional eval.     ....       1.266 sec  (  9.0% of XC)
    XC-Potential eval.      ....       1.098 sec  (  7.8% of XC)
Diagonalization             ....       0.249 sec  (  0.4%)
Density matrix formation    ....       0.027 sec  (  0.0%)
Population analysis         ....       0.289 sec  (  0.4%)
Initial guess               ....       0.029 sec  (  0.0%)
Orbital Transformation      ....       0.000 sec  (  0.0%)
Orbital Orthonormalization  ....       0.000 sec  (  0.0%)
DIIS solution               ....       1.118 sec  (  1.6%)
SOSCF solution              ....       0.288 sec  (  0.4%)
Grid generation             ....       6.909 sec  ( 10.2%)

Maximum memory used throughout the entire SCF-calculation: 55.0 MB


-------------------------------------------------------------------------------
                          DFT DISPERSION CORRECTION                            
                                                                               
                              DFTD3 V3.1  Rev 1                                
                          USING Becke-Johnson damping                          
-------------------------------------------------------------------------------
The PBEh-3c composite method is recognized
Using three-body term ABC
Active option DFTDOPT                   ...         4   

molecular C6(AA) [au] = 2948.229081 


            DFT-D V3
 parameters
 s6 scaling factor         :     1.0000 
 a1 scaling factor         :     0.4860 
 s8 scaling factor         :     0.0000 
 a2 scaling factor         :     4.5000 
 Damping factor alpha9(ATM):    16.0000 
 ad hoc parameters k1-k3   :    16.0000     1.3333    -4.0000 

 Edisp/kcal,au: -5.516089887902  -0.008790447838 
 E6   /kcal   :  -5.518703127 
 E8   /kcal   :  -0.000000000 
 E6(ABC)      :   0.002613239 
 % E8         :   0.000000000 
 % E6(ABC)    :  -0.047374844 

-------------------------   ----------------
Dispersion correction           -0.008790448
-------------------------   ----------------

------------------   -----------------
gCP correction             0.019899077
------------------   -----------------

-------------------------   --------------------
FINAL SINGLE POINT ENERGY      -308.951523495109
-------------------------   --------------------


                            ***************************************
                            *     ORCA property calculations      *
                            ***************************************

                                    ---------------------
                                    Active property flags
                                    ---------------------
   (+) Dipole Moment


------------------------------------------------------------------------------
                       ORCA ELECTRIC PROPERTIES CALCULATION
------------------------------------------------------------------------------

Dipole Moment Calculation                       ... on
Quadrupole Moment Calculation                   ... off
Polarizability Calculation                      ... off
GBWName                                         ... pbeh-3c.gbw
Electron density                                ... pbeh-3c.scfp
The origin for moment calculation is the CENTER OF MASS  = ( 0.000004,  0.000001  0.000000)

-------------
DIPOLE MOMENT
-------------
                                X             Y             Z
Electronic contribution:     -2.22376      -0.36236      -0.00000
Nuclear contribution   :      2.16022       0.36126       0.00000
                        -----------------------------------------
Total Dipole Moment    :     -0.06354      -0.00110      -0.00000
                        -----------------------------------------
Magnitude (a.u.)       :      0.06355
Magnitude (Debye)      :      0.16152



--------------------
Rotational spectrum 
--------------------
 
Rotational constants in cm-1:     0.174160     0.051539     0.039770 
Rotational constants in MHz :  5221.188979  1545.089072  1192.265818 

 Dipole components along the rotational axes: 
x,y,z [a.u.] :     0.063537    -0.001101    -0.000000 
x,y,z [Debye]:     0.161498    -0.002799    -0.000000 

 

Timings for individual modules:

Sum of individual times         ...       70.458 sec (=   1.174 min)
GTO integral calculation        ...        1.972 sec (=   0.033 min)   2.8 %
SCF iterations                  ...       68.486 sec (=   1.141 min)  97.2 %
                             ****ORCA TERMINATED NORMALLY****
TOTAL RUN TIME: 0 days 0 hours 1 minutes 12 seconds 379 msec
