
                                 *****************
                                 * O   R   C   A *
                                 *****************

                                            #,                                       
                                            ###                                      
                                            ####                                     
                                            #####                                    
                                            ######                                   
                                           ########,                                 
                                     ,,################,,,,,                         
                               ,,#################################,,                 
                          ,,##########################################,,             
                       ,#########################################, ''#####,          
                    ,#############################################,,   '####,        
                  ,##################################################,,,,####,       
                ,###########''''           ''''###############################       
              ,#####''   ,,,,##########,,,,          '''####'''          '####       
            ,##' ,,,,###########################,,,                        '##       
           ' ,,###''''                  '''############,,,                           
         ,,##''                                '''############,,,,        ,,,,,,###''
      ,#''                                            '''#######################'''  
     '                                                          ''''####''''         
             ,#######,   #######,   ,#######,      ##                                
            ,#'     '#,  ##    ##  ,#'     '#,    #''#        ######   ,####,        
            ##       ##  ##   ,#'  ##            #'  '#       #        #'  '#        
            ##       ##  #######   ##           ,######,      #####,   #    #        
            '#,     ,#'  ##    ##  '#,     ,#' ,#      #,         ##   #,  ,#        
             '#######'   ##     ##  '#######'  #'      '#     #####' # '####'        



                  #######################################################
                  #                        -***-                        #
                  #          Department of theory and spectroscopy      #
                  #    Directorship and core code : Frank Neese         #
                  #        Max Planck Institute fuer Kohlenforschung    #
                  #                Kaiser Wilhelm Platz 1               #
                  #                 D-45470 Muelheim/Ruhr               #
                  #                      Germany                        #
                  #                                                     #
                  #                  All rights reserved                #
                  #                        -***-                        #
                  #######################################################


                         Program Version 5.0.3 -  RELEASE  -


 With contributions from (in alphabetic order):
   Daniel Aravena         : Magnetic Suceptibility
   Michael Atanasov       : Ab Initio Ligand Field Theory (pilot matlab implementation)
   Alexander A. Auer      : GIAO ZORA, VPT2 properties, NMR spectrum
   Ute Becker             : Parallelization
   Giovanni Bistoni       : ED, misc. LED, open-shell LED, HFLD
   Martin Brehm           : Molecular dynamics
   Dmytro Bykov           : SCF Hessian
   Vijay G. Chilkuri      : MRCI spin determinant printing, contributions to CSF-ICE
   Dipayan Datta          : RHF DLPNO-CCSD density
   Achintya Kumar Dutta   : EOM-CC, STEOM-CC
   Dmitry Ganyushin       : Spin-Orbit,Spin-Spin,Magnetic field MRCI
   Miquel Garcia          : C-PCM and meta-GGA Hessian, CC/C-PCM, Gaussian charge scheme
   Yang Guo               : DLPNO-NEVPT2, F12-NEVPT2, CIM, IAO-localization
   Andreas Hansen         : Spin unrestricted coupled pair/coupled cluster methods
   Benjamin Helmich-Paris : MC-RPA, TRAH-SCF, COSX integrals
   Lee Huntington         : MR-EOM, pCC
   Robert Izsak           : Overlap fitted RIJCOSX, COSX-SCS-MP3, EOM
   Marcus Kettner         : VPT2
   Christian Kollmar      : KDIIS, OOCD, Brueckner-CCSD(T), CCSD density, CASPT2, CASPT2-K
   Simone Kossmann        : Meta GGA functionals, TD-DFT gradient, OOMP2, MP2 Hessian
   Martin Krupicka        : Initial AUTO-CI
   Lucas Lang             : DCDCAS
   Marvin Lechner         : AUTO-CI (C++ implementation), FIC-MRCC
   Dagmar Lenk            : GEPOL surface, SMD
   Dimitrios Liakos       : Extrapolation schemes; Compound Job, initial MDCI parallelization
   Dimitrios Manganas     : Further ROCIS development; embedding schemes
   Dimitrios Pantazis     : SARC Basis sets
   Anastasios Papadopoulos: AUTO-CI, single reference methods and gradients
   Taras Petrenko         : DFT Hessian,TD-DFT gradient, ASA, ECA, R-Raman, ABS, FL, XAS/XES, NRVS
   Peter Pinski           : DLPNO-MP2, DLPNO-MP2 Gradient
   Christoph Reimann      : Effective Core Potentials
   Marius Retegan         : Local ZFS, SOC
   Christoph Riplinger    : Optimizer, TS searches, QM/MM, DLPNO-CCSD(T), (RO)-DLPNO pert. Triples
   Tobias Risthaus        : Range-separated hybrids, TD-DFT gradient, RPA, STAB
   Michael Roemelt        : Original ROCIS implementation
   Masaaki Saitow         : Open-shell DLPNO-CCSD energy and density
   Barbara Sandhoefer     : DKH picture change effects
   Avijit Sen             : IP-ROCIS
   Kantharuban Sivalingam : CASSCF convergence, NEVPT2, FIC-MRCI
   Bernardo de Souza      : ESD, SOC TD-DFT
   Georgi Stoychev        : AutoAux, RI-MP2 NMR, DLPNO-MP2 response
   Willem Van den Heuvel  : Paramagnetic NMR
   Boris Wezisla          : Elementary symmetry handling
   Frank Wennmohs         : Technical directorship


 We gratefully acknowledge several colleagues who have allowed us to
 interface, adapt or use parts of their codes:
   Stefan Grimme, W. Hujo, H. Kruse, P. Pracht,  : VdW corrections, initial TS optimization,
                  C. Bannwarth, S. Ehlert          DFT functionals, gCP, sTDA/sTD-DF
   Ed Valeev, F. Pavosevic, A. Kumar             : LibInt (2-el integral package), F12 methods
   Garnet Chan, S. Sharma, J. Yang, R. Olivares  : DMRG
   Ulf Ekstrom                                   : XCFun DFT Library
   Mihaly Kallay                                 : mrcc  (arbitrary order and MRCC methods)
   Jiri Pittner, Ondrej Demel                    : Mk-CCSD
   Frank Weinhold                                : gennbo (NPA and NBO analysis)
   Christopher J. Cramer and Donald G. Truhlar   : smd solvation model
   Lars Goerigk                                  : TD-DFT with DH, B97 family of functionals
   V. Asgeirsson, H. Jonsson                     : NEB implementation
   FAccTs GmbH                                   : IRC, NEB, NEB-TS, DLPNO-Multilevel, CI-OPT
                                                   MM, QMMM, 2- and 3-layer-ONIOM, Crystal-QMMM,
                                                   LR-CPCM, SF, NACMEs, symmetry and pop. for TD-DFT,
                                                   nearIR, NL-DFT gradient (VV10), updates on ESD,
                                                   ML-optimized integration grids
   S Lehtola, MJT Oliveira, MAL Marques          : LibXC Library
   Liviu Ungur et al                             : ANISO software


 Your calculation uses the libint2 library for the computation of 2-el integrals
 For citations please refer to: http://libint.valeyev.net

 Your ORCA version has been built with support for libXC version: 5.1.0
 For citations please refer to: https://tddft.org/programs/libxc/

 This ORCA versions uses:
   CBLAS   interface :  Fast vector & matrix operations
   LAPACKE interface :  Fast linear algebra routines
   SCALAPACK package :  Parallel linear algebra routines
   Shared memory     :  Shared parallel matrices
   BLAS/LAPACK       :  OpenBLAS 0.3.15  USE64BITINT DYNAMIC_ARCH NO_AFFINITY Haswell SINGLE_THREADED
        Core in use  :  Haswell
   Copyright (c) 2011-2014, The OpenBLAS Project




***************************************
The coordinates will be read from file: N4H6_3.xyz
***************************************


Your calculation utilizes the geometrical counterpoise correction gCP
Please cite in your paper:
H.Kruse, S. Grimme J.Chem.Phys., 136, (2012), 154101 
   

Your calculation utilizes the atom-pairwise dispersion correction
with the Becke-Johnson damping scheme (D3BJ)
Cite in your paper:
S.Grimme, S.Ehrlich, L.Goerigk, J Comput Chem, (2011), 32, 1456–1465 
S.Grimme, J.Antony, S.Ehrlich and H.Krieg, J.Chem.Phys., 132, (2010), 154104 
   

Your calculation employs the composite approach PBEh-3c.
Please cite in your paper:
S. Grimme, J. G. Brandenburg, C. Bannwarth, A. Hansen J.Chem.Phys., 143, (2015), 054107 
   

================================================================================

----- Orbital basis set information -----
Your calculation utilizes the basis: def2-mSVP

----- AuxJ basis set information -----
Your calculation utilizes the auxiliary basis: def2/J
   F. Weigend, Phys. Chem. Chem. Phys. 8, 1057 (2006).

================================================================================
                                        WARNINGS
                       Please study these warnings very carefully!
================================================================================


INFO   : the flag for use of the SHARK integral package has been found!

================================================================================
                                       INPUT FILE
================================================================================
NAME = pbeh-3c.inp
|  1> ! PBEh-3c def2/J TightSCF DefGrid3
|  2> 
|  3> %maxcore 60000
|  4> 
|  5> %pal
|  6> nprocs 4
|  7> end
|  8> 
|  9> *xyzfile 0 1 N4H6_3.xyz
| 10> 
| 11>                          ****END OF INPUT****
================================================================================

                       ****************************
                       * Single Point Calculation *
                       ****************************

---------------------------------
CARTESIAN COORDINATES (ANGSTROEM)
---------------------------------
  N     -0.012346   -0.598962    0.855291
  N      1.400578   -0.672792    0.691675
  H      1.791100    0.278967    0.698667
  H      1.544418   -1.033809   -0.250619
  H     -0.157051   -0.360559    1.840259
  N     -0.535926    0.612370    0.149494
  N     -0.567647    0.256084   -1.241064
  H     -1.497416    0.679039    0.507969
  H     -0.562433    1.123342   -1.771497
  H     -1.403277   -0.283680   -1.480175

----------------------------
CARTESIAN COORDINATES (A.U.)
----------------------------
  NO LB      ZA    FRAG     MASS         X           Y           Z
   0 N     7.0000    0    14.007   -0.023331   -1.131874    1.616266
   1 N     7.0000    0    14.007    2.646708   -1.271392    1.307077
   2 H     1.0000    0     1.008    3.384688    0.527172    1.320289
   3 H     1.0000    0     1.008    2.918526   -1.953615   -0.473602
   4 H     1.0000    0     1.008   -0.296784   -0.681359    3.477586
   5 N     7.0000    0    14.007   -1.012753    1.157211    0.282503
   6 N     7.0000    0    14.007   -1.072696    0.483928   -2.345271
   7 H     1.0000    0     1.008   -2.829705    1.283198    0.959923
   8 H     1.0000    0     1.008   -1.062844    2.122809   -3.347645
   9 H     1.0000    0     1.008   -2.651810   -0.536078   -2.797125

--------------------------------
INTERNAL COORDINATES (ANGSTROEM)
--------------------------------
 N      0   0   0     0.000000000000     0.00000000     0.00000000
 N      1   0   0     1.424280643288     0.00000000     0.00000000
 H      2   1   0     1.028786330823   109.13724229     0.00000000
 H      2   1   3     1.019285342299   105.34032073   246.23779126
 H      1   2   3     1.023688351519   105.23817737   286.21232287
 N      1   2   3     1.496532291974   109.56354397    35.73613077
 N      6   1   2     1.435826331489   105.28562273    77.90335027
 H      6   1   2     1.028305307847   102.42706252   192.34521613
 H      7   6   1     1.016623503978   107.06845953   201.59645145
 H      7   6   1     1.023131465937   112.04217455    81.64029301

---------------------------
INTERNAL COORDINATES (A.U.)
---------------------------
 N      0   0   0     0.000000000000     0.00000000     0.00000000
 N      1   0   0     2.691500353660     0.00000000     0.00000000
 H      2   1   0     1.944124415578   109.13724229     0.00000000
 H      2   1   3     1.926170149264   105.34032073   246.23779126
 H      1   2   3     1.934490630857   105.23817737   286.21232287
 N      1   2   3     2.828036182401   109.56354397    35.73613077
 N      6   1   2     2.713318542387   105.28562273    77.90335027
 H      6   1   2     1.943215413889   102.42706252   192.34521613
 H      7   6   1     1.921140003825   107.06845953   201.59645145
 H      7   6   1     1.933438269618   112.04217455    81.64029301

---------------------
BASIS SET INFORMATION
---------------------
There are 2 groups of distinct atoms

 Group   1 Type N   : 8s4p1d contracted to 4s2p1d pattern {5111/31/1}
 Group   2 Type H   : 4s contracted to 2s pattern {31}

Atom   0N    basis set group =>   1
Atom   1N    basis set group =>   1
Atom   2H    basis set group =>   2
Atom   3H    basis set group =>   2
Atom   4H    basis set group =>   2
Atom   5N    basis set group =>   1
Atom   6N    basis set group =>   1
Atom   7H    basis set group =>   2
Atom   8H    basis set group =>   2
Atom   9H    basis set group =>   2
---------------------------------
AUXILIARY/J BASIS SET INFORMATION
---------------------------------
There are 2 groups of distinct atoms

 Group   1 Type N   : 12s5p4d2f1g contracted to 6s4p3d1f1g pattern {711111/2111/211/2/1}
 Group   2 Type H   : 5s2p1d contracted to 3s1p1d pattern {311/2/1}

Atom   0N    basis set group =>   1
Atom   1N    basis set group =>   1
Atom   2H    basis set group =>   2
Atom   3H    basis set group =>   2
Atom   4H    basis set group =>   2
Atom   5N    basis set group =>   1
Atom   6N    basis set group =>   1
Atom   7H    basis set group =>   2
Atom   8H    basis set group =>   2
Atom   9H    basis set group =>   2


           ************************************************************
           *        Program running with 4 parallel MPI-processes     *
           *              working on a common directory               *
           ************************************************************
------------------------------------------------------------------------------
                           ORCA GTO INTEGRAL CALCULATION
                           -- RI-GTO INTEGRALS CHOSEN --
------------------------------------------------------------------------------
------------------------------------------------------------------------------
                   ___                                                        
                  /   \      - P O W E R E D   B Y -                         
                 /     \                                                     
                 |  |  |   _    _      __       _____    __    __             
                 |  |  |  | |  | |    /  \     |  _  \  |  |  /  |          
                  \  \/   | |  | |   /    \    | | | |  |  | /  /          
                 / \  \   | |__| |  /  /\  \   | |_| |  |  |/  /          
                |  |  |   |  __  | /  /__\  \  |    /   |      \           
                |  |  |   | |  | | |   __   |  |    \   |  |\   \          
                \     /   | |  | | |  |  |  |  | |\  \  |  | \   \       
                 \___/    |_|  |_| |__|  |__|  |_| \__\ |__|  \__/        
                                                                              
                      - O R C A' S   B I G   F R I E N D -                    
                                      &                                       
                       - I N T E G R A L  F E E D E R -                       
                                                                              
 v1 FN, 2020, v2 2021                                                         
------------------------------------------------------------------------------


Reading SHARK input file pbeh-3c.SHARKINP.tmp ... ok
----------------------
SHARK INTEGRAL PACKAGE
----------------------

Number of atoms                             ...     10
Number of basis functions                   ...     72
Number of shells                            ...     40
Maximum angular momentum                    ...      2
Integral batch strategy                     ... SHARK/LIBINT Hybrid
RI-J (if used) integral strategy            ... SPLIT-RIJ (Revised 2003 algorithm where possible)
Printlevel                                  ...      1
Contraction scheme used                     ... SEGMENTED contraction
Coulomb Range Separation                    ... NOT USED
Exchange Range Separation                   ... NOT USED
Finite Nucleus Model                        ... NOT USED
Auxiliary Coulomb fitting basis             ... AVAILABLE
   # of basis functions in Aux-J            ...    262
   # of shells in Aux-J                     ...     90
   Maximum angular momentum in Aux-J        ...      4
Auxiliary J/K fitting basis                 ... NOT available
Auxiliary Correlation fitting basis         ... NOT available
Auxiliary 'external' fitting basis          ... NOT available
Integral threshold                          ...     2.500000e-11
Primitive cut-off                           ...     2.500000e-12
Primitive pair pre-selection threshold      ...     2.500000e-12

Calculating pre-screening integrals         ... done (  0.1 sec) Dimension = 40
Organizing shell pair data                  ... done (  0.3 sec)
Shell pair information
Total number of shell pairs                 ...       820
Shell pairs after pre-screening             ...       796
Total number of primitive shell pairs       ...      2996
Primitive shell pairs kept                  ...      2266
          la=0 lb=0:    382 shell pairs
          la=1 lb=0:    224 shell pairs
          la=1 lb=1:     36 shell pairs
          la=2 lb=0:    112 shell pairs
          la=2 lb=1:     32 shell pairs
          la=2 lb=2:     10 shell pairs

Calculating one electron integrals          ... done (  0.0 sec)
Calculating RI/J V-Matrix + Cholesky decomp.... done (  0.1 sec)
Calculating Nuclear repulsion               ... done (  0.0 sec) ENN=    136.418798141165 Eh

SHARK setup successfully completed in   1.6 seconds

Maximum memory used throughout the entire GTOINT-calculation: 9.5 MB


           ************************************************************
           *        Program running with 4 parallel MPI-processes     *
           *              working on a common directory               *
           ************************************************************
-------------------------------------------------------------------------------
                                 ORCA SCF
-------------------------------------------------------------------------------

------------
SCF SETTINGS
------------
Hamiltonian:
 Density Functional     Method          .... DFT(GTOs)
 Exchange Functional    Exchange        .... PBE
   PBE kappa parameter   XKappa         ....  1.024500
   PBE mue parameter    XMuePBE         ....  0.123457
 Correlation Functional Correlation     .... PBE
   PBE beta parameter  CBetaPBE         ....  0.030000
 LDA part of GGA corr.  LDAOpt          .... PW91-LDA
 Gradients option       PostSCFGGA      .... off
 Hybrid DFT is turned on
   Fraction HF Exchange ScalHFX         ....  0.420000
   Scaling of DF-GGA-X  ScalDFX         ....  0.580000
   Scaling of DF-GGA-C  ScalDFC         ....  1.000000
   Scaling of DF-LDA-C  ScalLDAC        ....  1.000000
   Perturbative correction              ....  0.000000
   Density functional embedding theory  .... OFF
 RI-approximation to the Coulomb term is turned on
   Number of AuxJ basis functions       .... 262
   RIJ-ON(X) (HFX calculated with O(N)) .... on
   Number of AuxJ basis functions       .... 262
   RIJ-COSX (HFX calculated with COS-X)).... on


General Settings:
 Integral files         IntName         .... pbeh-3c
 Hartree-Fock type      HFTyp           .... RHF
 Total Charge           Charge          ....    0
 Multiplicity           Mult            ....    1
 Number of Electrons    NEL             ....   34
 Basis Dimension        Dim             ....   72
 Nuclear Repulsion      ENuc            ....    136.4187981412 Eh

Convergence Acceleration:
 DIIS                   CNVDIIS         .... on
   Start iteration      DIISMaxIt       ....    12
   Startup error        DIISStart       ....  0.200000
   # of expansion vecs  DIISMaxEq       ....     5
   Bias factor          DIISBfac        ....   1.050
   Max. coefficient     DIISMaxC        ....  10.000
 Trust-Rad. Augm. Hess. CNVTRAH         .... auto
   Auto Start mean grad. ratio tolernc. ....  1.125000
   Auto Start start iteration           ....    20
   Auto Start num. interpolation iter.  ....    10
   Max. Number of Micro iterations      ....    16
   Max. Number of Macro iterations      .... Maxiter - #DIIS iter
   Number of Davidson start vectors     ....     2
   Converg. threshold I  (grad. norm)   ....   1.000e-05
   Converg. threshold II (energy diff.) ....   1.000e-08
   Grad. Scal. Fac. for Micro threshold ....   0.100
   Minimum threshold for Micro iter.    ....   0.010
   NR start threshold (gradient norm)   ....   0.001
   Initial trust radius                 ....   0.400
   Minimum AH scaling param. (alpha)    ....   1.000
   Maximum AH scaling param. (alpha)    .... 1000.000
   Orbital update algorithm             .... Taylor
   White noise on init. David. guess    .... on
   Maximum white noise                  ....   0.010
   Quad. conv. algorithm                .... NR
   COSX micro iterations for RIJONX calc.... off
 SOSCF                  CNVSOSCF        .... on
   Start iteration      SOSCFMaxIt      ....   150
   Startup grad/error   SOSCFStart      ....  0.003300
 Level Shifting         CNVShift        .... on
   Level shift para.    LevelShift      ....    0.2500
   Turn off err/grad.   ShiftErr        ....    0.0010
 Zerner damping         CNVZerner       .... off
 Static damping         CNVDamp         .... on
   Fraction old density DampFac         ....    0.7000
   Max. Damping (<1)    DampMax         ....    0.9800
   Min. Damping (>=0)   DampMin         ....    0.0000
   Turn off err/grad.   DampErr         ....    0.1000
 Fernandez-Rico         CNVRico         .... off

SCF Procedure:
 Maximum # iterations   MaxIter         ....   125
 SCF integral mode      SCFMode         .... Direct
   Integral package                     .... SHARK and LIBINT hybrid scheme
 Reset frequency        DirectResetFreq ....    20
 Integral Threshold     Thresh          ....  2.500e-11 Eh
 Primitive CutOff       TCut            ....  2.500e-12 Eh

Convergence Tolerance:
 Convergence Check Mode ConvCheckMode   .... Total+1el-Energy
 Convergence forced     ConvForced      .... 0
 Energy Change          TolE            ....  1.000e-08 Eh
 1-El. energy change                    ....  1.000e-05 Eh
 Orbital Gradient       TolG            ....  1.000e-05
 Orbital Rotation angle TolX            ....  1.000e-05
 DIIS Error             TolErr          ....  5.000e-07


Diagonalization of the overlap matrix:
Smallest eigenvalue                        ... 1.260e-02
Time for diagonalization                   ...    0.002 sec
Threshold for overlap eigenvalues          ... 1.000e-08
Number of eigenvalues below threshold      ... 0
Time for construction of square roots      ...    0.171 sec
Total time needed                          ...    0.183 sec

--------------------------------
INITIAL GUESS: MINIMAL BASIS EHT
--------------------------------
The minimal basis has 26 functions
EHT matrix was diagonalized
Basis set overlap was calculated now projecting the orbitals
Using GuessMode=FMatrix for the initial guess
C*T matrix was formed
Effective Fockian was calculated
Effective Fockian was diagonalized
Initial density was built
                      ------------------
                      INITIAL GUESS DONE
                      ------------------
-------------------
DFT GRID GENERATION
-------------------

General Integration Accuracy     IntAcc      ... 4.959
Radial Grid Type                 RadialGrid  ... OptM3 with GC (2021)
Angular Grid (max. ang.)         AngularGrid ... 6 (Lebedev-590)
Angular grid pruning method      GridPruning ... 4 (adaptive)
Weight generation scheme         WeightScheme... Becke
Basis function cutoff            BFCut       ... 1.0000e-11
Integration weight cutoff        WCut        ... 1.0000e-14
Angular grids for H and He will be reduced by one unit
Partially contracted basis set               ... off
Rotationally invariant grid construction     ... off

Total number of grid points                  ...   110981
Total number of batches                      ...     1740
Average number of points per batch           ...       63
Average number of grid points per atom       ...    11098
Time for grid setup =    1.731 sec

--------------------
COSX GRID GENERATION
--------------------

GRIDX 1
-------
General Integration Accuracy     IntAcc      ... 4.020
Radial Grid Type                 RadialGrid  ... OptM3 with GC (2021)
Angular Grid (max. ang.)         AngularGrid ... 2 (Lebedev-110)
Angular grid pruning method      GridPruning ... 4 (adaptive)
Weight generation scheme         WeightScheme... Becke
Basis function cutoff            BFCut       ... 1.0000e-11
Integration weight cutoff        WCut        ... 1.0000e-14
Angular grids for H and He will be reduced by one unit
Partially contracted basis set               ... on
Rotationally invariant grid construction     ... off

Total number of grid points                  ...    12057
Total number of batches                      ...      192
Average number of points per batch           ...       62
Average number of grid points per atom       ...     1206
UseSFitting                                  ... on

GRIDX 2
-------
General Integration Accuracy     IntAcc      ... 4.338
Radial Grid Type                 RadialGrid  ... OptM3 with GC (2021)
Angular Grid (max. ang.)         AngularGrid ... 3 (Lebedev-194)
Angular grid pruning method      GridPruning ... 4 (adaptive)
Weight generation scheme         WeightScheme... Becke
Basis function cutoff            BFCut       ... 1.0000e-11
Integration weight cutoff        WCut        ... 1.0000e-14
Angular grids for H and He will be reduced by one unit
Partially contracted basis set               ... on
Rotationally invariant grid construction     ... off

Total number of grid points                  ...    26495
Total number of batches                      ...      418
Average number of points per batch           ...       63
Average number of grid points per atom       ...     2650
UseSFitting                                  ... on

GRIDX 3
-------
General Integration Accuracy     IntAcc      ... 4.871
Radial Grid Type                 RadialGrid  ... OptM3 with GC (2021)
Angular Grid (max. ang.)         AngularGrid ... 4 (Lebedev-302)
Angular grid pruning method      GridPruning ... 4 (adaptive)
Weight generation scheme         WeightScheme... Becke
Basis function cutoff            BFCut       ... 1.0000e-11
Integration weight cutoff        WCut        ... 1.0000e-14
Angular grids for H and He will be reduced by one unit
Partially contracted basis set               ... on
Rotationally invariant grid construction     ... off

Total number of grid points                  ...    52138
Total number of batches                      ...      820
Average number of points per batch           ...       63
Average number of grid points per atom       ...     5214
UseSFitting                                  ... on

Time for X-Grid setup             =    2.357 sec

--------------
SCF ITERATIONS
--------------
ITER       Energy         Delta-E        Max-DP      RMS-DP      [F,P]     Damp
               ***  Starting incremental Fock matrix formation  ***
  0   -221.5402240492   0.000000000000 0.10308628  0.00527225  0.3041314 0.7000
  1   -221.6892620015  -0.149037952290 0.06704406  0.00363957  0.2089700 0.7000
                               ***Turning on DIIS***
  2   -221.7886475490  -0.099385547543 0.04134241  0.00251528  0.1438627 0.7000
  3   -221.8589077370  -0.070260188051 0.08055297  0.00624927  0.0996282 0.0000
  4   -222.0338121042  -0.174904367186 0.02028010  0.00117090  0.0142045 0.0000
  5   -222.0354140399  -0.001601935637 0.01029000  0.00054627  0.0045783 0.0000
                      *** Initiating the SOSCF procedure ***
                           *** Shutting down DIIS ***
                      *** Re-Reading the Fockian *** 
                      *** Removing any level shift *** 
ITER      Energy       Delta-E        Grad      Rot      Max-DP    RMS-DP
  6   -222.03577553  -0.0003614950  0.001917  0.001917  0.006951  0.000362
               *** Restarting incremental Fock matrix formation ***
  7   -222.03586122  -0.0000856830  0.000835  0.001984  0.004474  0.000236
  8   -222.03587895  -0.0000177343  0.000329  0.001009  0.002287  0.000129
  9   -222.03588085  -0.0000018966  0.000249  0.000343  0.000891  0.000049
 10   -222.03588210  -0.0000012536  0.000032  0.000034  0.000097  0.000006
 11   -222.03588211  -0.0000000031  0.000026  0.000016  0.000048  0.000003
                  ***Gradient check signals convergence***
              ***Rediagonalizing the Fockian in SOSCF/NRSCF***

               *****************************************************
               *                     SUCCESS                       *
               *           SCF CONVERGED AFTER  12 CYCLES          *
               *****************************************************

Old exchange energy                            =    -11.963424081 Eh
New exchange energy                            =    -11.963427037 Eh
Exchange energy change after final integration =     -0.000002956 Eh
Total energy after final integration           =   -222.035885081 Eh
Final COS-X integration done in                =     1.803 sec

----------------
TOTAL SCF ENERGY
----------------

Total Energy       :         -222.03588508 Eh           -6041.90360 eV

Components:
Nuclear Repulsion  :          136.41879814 Eh            3712.14422 eV
Electronic Energy  :         -358.45468322 Eh           -9754.04782 eV
One Electron Energy:         -572.08539539 Eh          -15567.23503 eV
Two Electron Energy:          213.63071217 Eh            5813.18721 eV
Max COSX asymmetry :            0.00000106 Eh               0.00003 eV

Virial components:
Potential Energy   :         -442.42074827 Eh          -12038.88061 eV
Kinetic Energy     :          220.38486318 Eh            5996.97701 eV
Virial Ratio       :            2.00749154


DFT components:
N(Alpha)           :       17.000000252077 electrons
N(Beta)            :       17.000000252077 electrons
N(Total)           :       34.000000504155 electrons
E(X)               :      -15.932382793985 Eh       
E(C)               :       -1.494493839464 Eh       
E(XC)              :      -17.426876633449 Eh       
DFET-embed. en.    :        0.000000000000 Eh       

---------------
SCF CONVERGENCE
---------------

  Last Energy change         ...   -1.9413e-08  Tolerance :   1.0000e-08
  Last MAX-Density change    ...    8.8818e-16  Tolerance :   1.0000e-07
  Last RMS-Density change    ...    5.7000e-17  Tolerance :   5.0000e-09
  Last Orbital Gradient      ...    1.5225e-06  Tolerance :   1.0000e-05
  Last Orbital Rotation      ...    1.8516e-06  Tolerance :   1.0000e-05

             **** THE GBW FILE WAS UPDATED (pbeh-3c.gbw) ****
             **** DENSITY pbeh-3c.scfp WAS UPDATED ****
             **** ENERGY FILE WAS UPDATED (pbeh-3c.en.tmp) ****
             **** THE GBW FILE WAS UPDATED (pbeh-3c.gbw) ****
             **** DENSITY pbeh-3c.scfp WAS UPDATED ****
----------------
ORBITAL ENERGIES
----------------

  NO   OCC          E(Eh)            E(eV) 
   0   2.0000     -14.673608      -399.2892 
   1   2.0000     -14.665325      -399.0638 
   2   2.0000     -14.641819      -398.4242 
   3   2.0000     -14.624619      -397.9561 
   4   2.0000      -1.102484       -30.0001 
   5   2.0000      -1.005071       -27.3494 
   6   2.0000      -0.867903       -23.6168 
   7   2.0000      -0.751470       -20.4485 
   8   2.0000      -0.588460       -16.0128 
   9   2.0000      -0.567419       -15.4403 
  10   2.0000      -0.539159       -14.6712 
  11   2.0000      -0.508352       -13.8330 
  12   2.0000      -0.476057       -12.9542 
  13   2.0000      -0.376658       -10.2494 
  14   2.0000      -0.315705        -8.5908 
  15   2.0000      -0.295999        -8.0546 
  16   2.0000      -0.260732        -7.0949 
  17   0.0000       0.122499         3.3334 
  18   0.0000       0.159612         4.3433 
  19   0.0000       0.163081         4.4377 
  20   0.0000       0.187154         5.0927 
  21   0.0000       0.203115         5.5270 
  22   0.0000       0.224683         6.1139 
  23   0.0000       0.247165         6.7257 
  24   0.0000       0.262133         7.1330 
  25   0.0000       0.293702         7.9920 
  26   0.0000       0.710327        19.3290 
  27   0.0000       0.716478        19.4964 
  28   0.0000       0.751444        20.4478 
  29   0.0000       0.779336        21.2068 
  30   0.0000       0.786608        21.4047 
  31   0.0000       0.793253        21.5855 
  32   0.0000       0.814176        22.1549 
  33   0.0000       0.835751        22.7419 
  34   0.0000       0.856732        23.3129 
  35   0.0000       0.947649        25.7868 
  36   0.0000       0.962886        26.2015 
  37   0.0000       1.001506        27.2524 
  38   0.0000       1.034594        28.1527 
  39   0.0000       1.049279        28.5523 
  40   0.0000       1.060228        28.8503 
  41   0.0000       1.083888        29.4941 
  42   0.0000       1.134465        30.8704 
  43   0.0000       1.163889        31.6710 
  44   0.0000       1.342270        36.5250 
  45   0.0000       1.424124        38.7524 
  46   0.0000       1.486833        40.4588 
  47   0.0000       1.529062        41.6079 
  48   0.0000       1.544151        42.0185 
  49   0.0000       1.566421        42.6245 
  50   0.0000       1.793011        48.7903 
  51   0.0000       1.851864        50.3918 
  52   0.0000       1.966036        53.4986 
  53   0.0000       2.023465        55.0613 
  54   0.0000       2.076549        56.5058 
  55   0.0000       2.154574        58.6290 
  56   0.0000       2.195354        59.7386 
  57   0.0000       2.246603        61.1332 
  58   0.0000       2.287955        62.2584 
  59   0.0000       2.347762        63.8859 
  60   0.0000       2.409124        65.5556 
  61   0.0000       2.471465        67.2520 
  62   0.0000       2.521802        68.6217 
  63   0.0000       2.566116        69.8276 
  64   0.0000       2.627642        71.5018 
  65   0.0000       2.716280        73.9137 
  66   0.0000       2.812207        76.5240 
  67   0.0000       2.913964        79.2930 
  68   0.0000      18.888140       513.9724 
  69   0.0000      19.040302       518.1130 
  70   0.0000      19.219455       522.9880 
  71   0.0000      19.270538       524.3780 

                    ********************************
                    * MULLIKEN POPULATION ANALYSIS *
                    ********************************

-----------------------
MULLIKEN ATOMIC CHARGES
-----------------------
   0 N :   -0.332637
   1 N :   -0.611178
   2 H :    0.305575
   3 H :    0.342972
   4 H :    0.325930
   5 N :   -0.368643
   6 N :   -0.621691
   7 H :    0.310047
   8 H :    0.333833
   9 H :    0.315792
Sum of atomic charges:   -0.0000000

--------------------------------
MULLIKEN REDUCED ORBITAL CHARGES
--------------------------------
  0 N s       :     3.628930  s :     3.628930
      pz      :     1.162528  p :     3.640649
      px      :     1.080198
      py      :     1.397923
      dz2     :     0.016218  d :     0.063058
      dxz     :     0.008569
      dyz     :     0.009770
      dx2y2   :     0.018353
      dxy     :     0.010149
  1 N s       :     3.613758  s :     3.613758
      pz      :     1.504356  p :     3.949070
      px      :     1.042986
      py      :     1.401728
      dz2     :     0.016387  d :     0.048351
      dxz     :     0.004429
      dyz     :     0.002547
      dx2y2   :     0.014867
      dxy     :     0.010120
  2 H s       :     0.694425  s :     0.694425
  3 H s       :     0.657028  s :     0.657028
  4 H s       :     0.674070  s :     0.674070
  5 N s       :     3.628666  s :     3.628666
      pz      :     0.951119  p :     3.678297
      px      :     1.316614
      py      :     1.410564
      dz2     :     0.015243  d :     0.061680
      dxz     :     0.012722
      dyz     :     0.014849
      dx2y2   :     0.015466
      dxy     :     0.003400
  6 N s       :     3.610209  s :     3.610209
      pz      :     0.998196  p :     3.965181
      px      :     1.608709
      py      :     1.358276
      dz2     :     0.011879  d :     0.046301
      dxz     :     0.006481
      dyz     :     0.014408
      dx2y2   :     0.007948
      dxy     :     0.005584
  7 H s       :     0.689953  s :     0.689953
  8 H s       :     0.666167  s :     0.666167
  9 H s       :     0.684208  s :     0.684208


                     *******************************
                     * LOEWDIN POPULATION ANALYSIS *
                     *******************************

----------------------
LOEWDIN ATOMIC CHARGES
----------------------
   0 N :   -0.223270
   1 N :   -0.397058
   2 H :    0.201202
   3 H :    0.226276
   4 H :    0.214684
   5 N :   -0.244725
   6 N :   -0.408288
   7 H :    0.200924
   8 H :    0.221882
   9 H :    0.208373

-------------------------------
LOEWDIN REDUCED ORBITAL CHARGES
-------------------------------
  0 N s       :     3.278287  s :     3.278287
      pz      :     1.187292  p :     3.817150
      px      :     1.176211
      py      :     1.453647
      dz2     :     0.029613  d :     0.127834
      dxz     :     0.020565
      dyz     :     0.017127
      dx2y2   :     0.037693
      dxy     :     0.022835
  1 N s       :     3.272053  s :     3.272053
      pz      :     1.485778  p :     4.035241
      px      :     1.148780
      py      :     1.400683
      dz2     :     0.025652  d :     0.089765
      dxz     :     0.009593
      dyz     :     0.004248
      dx2y2   :     0.028283
      dxy     :     0.021988
  2 H s       :     0.798798  s :     0.798798
  3 H s       :     0.773724  s :     0.773724
  4 H s       :     0.785316  s :     0.785316
  5 N s       :     3.285419  s :     3.285419
      pz      :     1.052671  p :     3.834377
      px      :     1.324501
      py      :     1.457204
      dz2     :     0.034189  d :     0.124930
      dxz     :     0.027483
      dyz     :     0.030726
      dx2y2   :     0.025246
      dxy     :     0.007287
  6 N s       :     3.264345  s :     3.264345
      pz      :     1.096565  p :     4.057046
      px      :     1.595448
      py      :     1.365033
      dz2     :     0.025833  d :     0.086896
      dxz     :     0.013273
      dyz     :     0.029065
      dx2y2   :     0.010216
      dxy     :     0.008510
  7 H s       :     0.799076  s :     0.799076
  8 H s       :     0.778118  s :     0.778118
  9 H s       :     0.791627  s :     0.791627


                      *****************************
                      * MAYER POPULATION ANALYSIS *
                      *****************************

  NA   - Mulliken gross atomic population
  ZA   - Total nuclear charge
  QA   - Mulliken gross atomic charge
  VA   - Mayer's total valence
  BVA  - Mayer's bonded valence
  FA   - Mayer's free valence

  ATOM       NA         ZA         QA         VA         BVA        FA
  0 N      7.3326     7.0000    -0.3326     2.8491     2.8491    -0.0000
  1 N      7.6112     7.0000    -0.6112     2.7796     2.7796    -0.0000
  2 H      0.6944     1.0000     0.3056     0.8761     0.8761    -0.0000
  3 H      0.6570     1.0000     0.3430     0.8559     0.8559     0.0000
  4 H      0.6741     1.0000     0.3259     0.8570     0.8570     0.0000
  5 N      7.3686     7.0000    -0.3686     2.8373     2.8373    -0.0000
  6 N      7.6217     7.0000    -0.6217     2.7574     2.7574    -0.0000
  7 H      0.6900     1.0000     0.3100     0.8630     0.8630    -0.0000
  8 H      0.6662     1.0000     0.3338     0.8569     0.8569    -0.0000
  9 H      0.6842     1.0000     0.3158     0.8643     0.8643    -0.0000

  Mayer bond orders larger than 0.100000
B(  0-N ,  1-N ) :   1.0551 B(  0-N ,  4-H ) :   0.8433 B(  0-N ,  5-N ) :   0.9319 
B(  1-N ,  2-H ) :   0.8488 B(  1-N ,  3-H ) :   0.8460 B(  5-N ,  6-N ) :   1.0161 
B(  5-N ,  7-H ) :   0.8462 B(  6-N ,  8-H ) :   0.8522 B(  6-N ,  9-H ) :   0.8532 


-------
TIMINGS
-------

Total SCF time: 0 days 0 hours 0 min 52 sec 

Total time                  ....      52.992 sec
Sum of individual times     ....      45.845 sec  ( 86.5%)

Fock matrix formation       ....      37.126 sec  ( 70.1%)
  Split-RI-J                ....       3.698 sec  ( 10.0% of F)
  Chain of spheres X        ....       8.804 sec  ( 23.7% of F)
  XC integration            ....      11.373 sec  ( 30.6% of F)
    Basis function eval.    ....       1.173 sec  ( 10.3% of XC)
    Density eval.           ....       0.767 sec  (  6.7% of XC)
    XC-Functional eval.     ....       0.756 sec  (  6.6% of XC)
    XC-Potential eval.      ....       0.416 sec  (  3.7% of XC)
Diagonalization             ....       0.248 sec  (  0.5%)
Density matrix formation    ....       0.316 sec  (  0.6%)
Population analysis         ....       0.744 sec  (  1.4%)
Initial guess               ....       0.006 sec  (  0.0%)
Orbital Transformation      ....       0.000 sec  (  0.0%)
Orbital Orthonormalization  ....       0.000 sec  (  0.0%)
DIIS solution               ....       1.447 sec  (  2.7%)
SOSCF solution              ....       1.870 sec  (  3.5%)
Grid generation             ....       4.088 sec  (  7.7%)

Maximum memory used throughout the entire SCF-calculation: 47.9 MB


-------------------------------------------------------------------------------
                          DFT DISPERSION CORRECTION                            
                                                                               
                              DFTD3 V3.1  Rev 1                                
                          USING Becke-Johnson damping                          
-------------------------------------------------------------------------------
The PBEh-3c composite method is recognized
Using three-body term ABC
Active option DFTDOPT                   ...         4   

molecular C6(AA) [au] = 690.314078 


            DFT-D V3
 parameters
 s6 scaling factor         :     1.0000 
 a1 scaling factor         :     0.4860 
 s8 scaling factor         :     0.0000 
 a2 scaling factor         :     4.5000 
 Damping factor alpha9(ATM):    16.0000 
 ad hoc parameters k1-k3   :    16.0000     1.3333    -4.0000 

 Edisp/kcal,au: -2.082338413002  -0.003318417135 
 E6   /kcal   :  -2.086283935 
 E8   /kcal   :  -0.000000000 
 E6(ABC)      :   0.003945522 
 % E8         :   0.000000000 
 % E6(ABC)    :  -0.189475558 

-------------------------   ----------------
Dispersion correction           -0.003318417
-------------------------   ----------------

------------------   -----------------
gCP correction             0.022909815
------------------   -----------------

-------------------------   --------------------
FINAL SINGLE POINT ENERGY      -222.016293683552
-------------------------   --------------------


                            ***************************************
                            *     ORCA property calculations      *
                            ***************************************

                                    ---------------------
                                    Active property flags
                                    ---------------------
   (+) Dipole Moment


------------------------------------------------------------------------------
                       ORCA ELECTRIC PROPERTIES CALCULATION
------------------------------------------------------------------------------

Dipole Moment Calculation                       ... on
Quadrupole Moment Calculation                   ... off
Polarizability Calculation                      ... off
GBWName                                         ... pbeh-3c.gbw
Electron density                                ... pbeh-3c.scfp
The origin for moment calculation is the CENTER OF MASS  = ( 0.112645, -0.159593  0.180208)

-------------
DIPOLE MOMENT
-------------
                                X             Y             Z
Electronic contribution:     -0.20298      -0.14812       0.62728
Nuclear contribution   :     -0.60235       0.85340      -0.96363
                        -----------------------------------------
Total Dipole Moment    :     -0.80533       0.70528      -0.33635
                        -----------------------------------------
Magnitude (a.u.)       :      1.12210
Magnitude (Debye)      :      2.85216



--------------------
Rotational spectrum 
--------------------
 
Rotational constants in cm-1:     0.559001     0.184636     0.157957 
Rotational constants in MHz : 16758.414348  5535.255575  4735.438821 

 Dipole components along the rotational axes: 
x,y,z [a.u.] :    -1.024069     0.382868     0.252605 
x,y,z [Debye]:    -2.602976     0.973172     0.642070 

 

Timings for individual modules:

Sum of individual times         ...       56.610 sec (=   0.943 min)
GTO integral calculation        ...        2.743 sec (=   0.046 min)   4.8 %
SCF iterations                  ...       53.867 sec (=   0.898 min)  95.2 %
                             ****ORCA TERMINATED NORMALLY****
TOTAL RUN TIME: 0 days 0 hours 0 minutes 59 seconds 556 msec
