
                                 *****************
                                 * O   R   C   A *
                                 *****************

                                            #,                                       
                                            ###                                      
                                            ####                                     
                                            #####                                    
                                            ######                                   
                                           ########,                                 
                                     ,,################,,,,,                         
                               ,,#################################,,                 
                          ,,##########################################,,             
                       ,#########################################, ''#####,          
                    ,#############################################,,   '####,        
                  ,##################################################,,,,####,       
                ,###########''''           ''''###############################       
              ,#####''   ,,,,##########,,,,          '''####'''          '####       
            ,##' ,,,,###########################,,,                        '##       
           ' ,,###''''                  '''############,,,                           
         ,,##''                                '''############,,,,        ,,,,,,###''
      ,#''                                            '''#######################'''  
     '                                                          ''''####''''         
             ,#######,   #######,   ,#######,      ##                                
            ,#'     '#,  ##    ##  ,#'     '#,    #''#        ######   ,####,        
            ##       ##  ##   ,#'  ##            #'  '#       #        #'  '#        
            ##       ##  #######   ##           ,######,      #####,   #    #        
            '#,     ,#'  ##    ##  '#,     ,#' ,#      #,         ##   #,  ,#        
             '#######'   ##     ##  '#######'  #'      '#     #####' # '####'        



                  #######################################################
                  #                        -***-                        #
                  #          Department of theory and spectroscopy      #
                  #    Directorship and core code : Frank Neese         #
                  #        Max Planck Institute fuer Kohlenforschung    #
                  #                Kaiser Wilhelm Platz 1               #
                  #                 D-45470 Muelheim/Ruhr               #
                  #                      Germany                        #
                  #                                                     #
                  #                  All rights reserved                #
                  #                        -***-                        #
                  #######################################################


                         Program Version 5.0.3 -  RELEASE  -


 With contributions from (in alphabetic order):
   Daniel Aravena         : Magnetic Suceptibility
   Michael Atanasov       : Ab Initio Ligand Field Theory (pilot matlab implementation)
   Alexander A. Auer      : GIAO ZORA, VPT2 properties, NMR spectrum
   Ute Becker             : Parallelization
   Giovanni Bistoni       : ED, misc. LED, open-shell LED, HFLD
   Martin Brehm           : Molecular dynamics
   Dmytro Bykov           : SCF Hessian
   Vijay G. Chilkuri      : MRCI spin determinant printing, contributions to CSF-ICE
   Dipayan Datta          : RHF DLPNO-CCSD density
   Achintya Kumar Dutta   : EOM-CC, STEOM-CC
   Dmitry Ganyushin       : Spin-Orbit,Spin-Spin,Magnetic field MRCI
   Miquel Garcia          : C-PCM and meta-GGA Hessian, CC/C-PCM, Gaussian charge scheme
   Yang Guo               : DLPNO-NEVPT2, F12-NEVPT2, CIM, IAO-localization
   Andreas Hansen         : Spin unrestricted coupled pair/coupled cluster methods
   Benjamin Helmich-Paris : MC-RPA, TRAH-SCF, COSX integrals
   Lee Huntington         : MR-EOM, pCC
   Robert Izsak           : Overlap fitted RIJCOSX, COSX-SCS-MP3, EOM
   Marcus Kettner         : VPT2
   Christian Kollmar      : KDIIS, OOCD, Brueckner-CCSD(T), CCSD density, CASPT2, CASPT2-K
   Simone Kossmann        : Meta GGA functionals, TD-DFT gradient, OOMP2, MP2 Hessian
   Martin Krupicka        : Initial AUTO-CI
   Lucas Lang             : DCDCAS
   Marvin Lechner         : AUTO-CI (C++ implementation), FIC-MRCC
   Dagmar Lenk            : GEPOL surface, SMD
   Dimitrios Liakos       : Extrapolation schemes; Compound Job, initial MDCI parallelization
   Dimitrios Manganas     : Further ROCIS development; embedding schemes
   Dimitrios Pantazis     : SARC Basis sets
   Anastasios Papadopoulos: AUTO-CI, single reference methods and gradients
   Taras Petrenko         : DFT Hessian,TD-DFT gradient, ASA, ECA, R-Raman, ABS, FL, XAS/XES, NRVS
   Peter Pinski           : DLPNO-MP2, DLPNO-MP2 Gradient
   Christoph Reimann      : Effective Core Potentials
   Marius Retegan         : Local ZFS, SOC
   Christoph Riplinger    : Optimizer, TS searches, QM/MM, DLPNO-CCSD(T), (RO)-DLPNO pert. Triples
   Tobias Risthaus        : Range-separated hybrids, TD-DFT gradient, RPA, STAB
   Michael Roemelt        : Original ROCIS implementation
   Masaaki Saitow         : Open-shell DLPNO-CCSD energy and density
   Barbara Sandhoefer     : DKH picture change effects
   Avijit Sen             : IP-ROCIS
   Kantharuban Sivalingam : CASSCF convergence, NEVPT2, FIC-MRCI
   Bernardo de Souza      : ESD, SOC TD-DFT
   Georgi Stoychev        : AutoAux, RI-MP2 NMR, DLPNO-MP2 response
   Willem Van den Heuvel  : Paramagnetic NMR
   Boris Wezisla          : Elementary symmetry handling
   Frank Wennmohs         : Technical directorship


 We gratefully acknowledge several colleagues who have allowed us to
 interface, adapt or use parts of their codes:
   Stefan Grimme, W. Hujo, H. Kruse, P. Pracht,  : VdW corrections, initial TS optimization,
                  C. Bannwarth, S. Ehlert          DFT functionals, gCP, sTDA/sTD-DF
   Ed Valeev, F. Pavosevic, A. Kumar             : LibInt (2-el integral package), F12 methods
   Garnet Chan, S. Sharma, J. Yang, R. Olivares  : DMRG
   Ulf Ekstrom                                   : XCFun DFT Library
   Mihaly Kallay                                 : mrcc  (arbitrary order and MRCC methods)
   Jiri Pittner, Ondrej Demel                    : Mk-CCSD
   Frank Weinhold                                : gennbo (NPA and NBO analysis)
   Christopher J. Cramer and Donald G. Truhlar   : smd solvation model
   Lars Goerigk                                  : TD-DFT with DH, B97 family of functionals
   V. Asgeirsson, H. Jonsson                     : NEB implementation
   FAccTs GmbH                                   : IRC, NEB, NEB-TS, DLPNO-Multilevel, CI-OPT
                                                   MM, QMMM, 2- and 3-layer-ONIOM, Crystal-QMMM,
                                                   LR-CPCM, SF, NACMEs, symmetry and pop. for TD-DFT,
                                                   nearIR, NL-DFT gradient (VV10), updates on ESD,
                                                   ML-optimized integration grids
   S Lehtola, MJT Oliveira, MAL Marques          : LibXC Library
   Liviu Ungur et al                             : ANISO software


 Your calculation uses the libint2 library for the computation of 2-el integrals
 For citations please refer to: http://libint.valeyev.net

 Your ORCA version has been built with support for libXC version: 5.1.0
 For citations please refer to: https://tddft.org/programs/libxc/

 This ORCA versions uses:
   CBLAS   interface :  Fast vector & matrix operations
   LAPACKE interface :  Fast linear algebra routines
   SCALAPACK package :  Parallel linear algebra routines
   Shared memory     :  Shared parallel matrices
   BLAS/LAPACK       :  OpenBLAS 0.3.15  USE64BITINT DYNAMIC_ARCH NO_AFFINITY Haswell SINGLE_THREADED
        Core in use  :  Haswell
   Copyright (c) 2011-2014, The OpenBLAS Project




***************************************
The coordinates will be read from file: 29_CF3Br-benA.xyz
***************************************


Your calculation utilizes the geometrical counterpoise correction gCP
Please cite in your paper:
H.Kruse, S. Grimme J.Chem.Phys., 136, (2012), 154101 
   

Your calculation utilizes the atom-pairwise dispersion correction
with the Becke-Johnson damping scheme (D3BJ)
Cite in your paper:
S.Grimme, S.Ehrlich, L.Goerigk, J Comput Chem, (2011), 32, 1456–1465 
S.Grimme, J.Antony, S.Ehrlich and H.Krieg, J.Chem.Phys., 132, (2010), 154104 
   

Your calculation employs the composite approach PBEh-3c.
Please cite in your paper:
S. Grimme, J. G. Brandenburg, C. Bannwarth, A. Hansen J.Chem.Phys., 143, (2015), 054107 
   

================================================================================

----- Orbital basis set information -----
Your calculation utilizes the basis: def2-mSVP

----- AuxJ basis set information -----
Your calculation utilizes the auxiliary basis: def2/J
   F. Weigend, Phys. Chem. Chem. Phys. 8, 1057 (2006).

================================================================================
                                        WARNINGS
                       Please study these warnings very carefully!
================================================================================


INFO   : the flag for use of the SHARK integral package has been found!

================================================================================
                                       INPUT FILE
================================================================================
NAME = pbeh-3c.inp
|  1> ! PBEh-3c def2/J TightSCF DefGrid3
|  2> 
|  3> %maxcore 60000
|  4> 
|  5> %pal
|  6> nprocs 4
|  7> end
|  8> 
|  9> *xyzfile 0 1 29_CF3Br-benA.xyz
| 10> 
| 11>                          ****END OF INPUT****
================================================================================

                       ****************************
                       * Single Point Calculation *
                       ****************************

---------------------------------
CARTESIAN COORDINATES (ANGSTROEM)
---------------------------------
  H      0.002144    0.361044    0.029800
  C      0.015021    0.274790    1.107648
  C      1.227633    0.296655    1.794629
  C      1.243959    0.183703    3.183704
  C      0.047958    0.048915    3.886485
  C     -1.165136    0.026954    3.200213
  C     -1.181832    0.139829    1.810377
  H      2.155808    0.399177    1.249442
  H      2.184979    0.198599    3.716171
  H      0.060935   -0.040673    4.964014
  H     -2.093221   -0.078629    3.745125
  H     -2.122845    0.123257    1.277646

----------------------------
CARTESIAN COORDINATES (A.U.)
----------------------------
  NO LB      ZA    FRAG     MASS         X           Y           Z
   0 H     1.0000    0     1.008    0.004052    0.682273    0.056313
   1 C     6.0000    0    12.011    0.028385    0.519277    2.093151
   2 C     6.0000    0    12.011    2.319890    0.560597    3.391358
   3 C     6.0000    0    12.011    2.350741    0.347148    6.016328
   4 C     6.0000    0    12.011    0.090628    0.092436    7.344392
   5 C     6.0000    0    12.011   -2.201787    0.050936    6.047527
   6 C     6.0000    0    12.011   -2.233339    0.264238    3.421116
   7 H     1.0000    0     1.008    4.073887    0.754335    2.361102
   8 H     1.0000    0     1.008    4.129013    0.375297    7.022545
   9 H     1.0000    0     1.008    0.115150   -0.076860    9.380628
  10 H     1.0000    0     1.008   -3.955614   -0.148587    7.077261
  11 H     1.0000    0     1.008   -4.011596    0.232922    2.414401

--------------------------------
INTERNAL COORDINATES (ANGSTROEM)
--------------------------------
 H      0   0   0     0.000000000000     0.00000000     0.00000000
 C      1   0   0     1.081370647606     0.00000000     0.00000000
 C      2   1   0     1.393861413612   120.02411954     0.00000000
 C      3   2   1     1.393754895086   120.00835255   180.08385364
 C      4   3   2     1.393730927590   120.02226494     0.00000000
 C      5   4   3     1.393932344042   120.00475179     0.00000000
 C      2   1   3     1.394452713170   119.98703430   180.08644124
 H      3   2   1     1.081318500557   119.98333028   359.95504822
 H      4   3   2     1.081324490649   119.98973816   179.87066401
 H      5   4   3     1.081325398686   120.01247659   179.87895408
 H      6   5   4     1.081396451181   120.02277009   179.93759713
 H      7   2   1     1.081472491864   120.00414682   359.88756000

---------------------------
INTERNAL COORDINATES (A.U.)
---------------------------
 H      0   0   0     0.000000000000     0.00000000     0.00000000
 C      1   0   0     2.043494373237     0.00000000     0.00000000
 C      2   1   0     2.634016340367   120.02411954     0.00000000
 C      3   2   1     2.633815049525   120.00835255   180.08385364
 C      4   3   2     2.633769757522   120.02226494     0.00000000
 C      5   4   3     2.634150379454   120.00475179     0.00000000
 C      2   1   3     2.635133734596   119.98703430   180.08644124
 H      3   2   1     2.043395829596   119.98333028   359.95504822
 H      4   3   2     2.043407149229   119.98973816   179.87066401
 H      5   4   3     2.043408865170   120.01247659   179.87895408
 H      6   5   4     2.043543134926   120.02277009   179.93759713
 H      7   2   1     2.043686830992   120.00414682   359.88756000

---------------------
BASIS SET INFORMATION
---------------------
There are 2 groups of distinct atoms

 Group   1 Type H   : 4s contracted to 2s pattern {31}
 Group   2 Type C   : 8s4p1d contracted to 4s2p1d pattern {5111/31/1}

Atom   0H    basis set group =>   1
Atom   1C    basis set group =>   2
Atom   2C    basis set group =>   2
Atom   3C    basis set group =>   2
Atom   4C    basis set group =>   2
Atom   5C    basis set group =>   2
Atom   6C    basis set group =>   2
Atom   7H    basis set group =>   1
Atom   8H    basis set group =>   1
Atom   9H    basis set group =>   1
Atom  10H    basis set group =>   1
Atom  11H    basis set group =>   1
---------------------------------
AUXILIARY/J BASIS SET INFORMATION
---------------------------------
There are 2 groups of distinct atoms

 Group   1 Type H   : 5s2p1d contracted to 3s1p1d pattern {311/2/1}
 Group   2 Type C   : 12s5p4d2f1g contracted to 6s4p3d1f1g pattern {711111/2111/211/2/1}

Atom   0H    basis set group =>   1
Atom   1C    basis set group =>   2
Atom   2C    basis set group =>   2
Atom   3C    basis set group =>   2
Atom   4C    basis set group =>   2
Atom   5C    basis set group =>   2
Atom   6C    basis set group =>   2
Atom   7H    basis set group =>   1
Atom   8H    basis set group =>   1
Atom   9H    basis set group =>   1
Atom  10H    basis set group =>   1
Atom  11H    basis set group =>   1


           ************************************************************
           *        Program running with 4 parallel MPI-processes     *
           *              working on a common directory               *
           ************************************************************
------------------------------------------------------------------------------
                           ORCA GTO INTEGRAL CALCULATION
                           -- RI-GTO INTEGRALS CHOSEN --
------------------------------------------------------------------------------
------------------------------------------------------------------------------
                   ___                                                        
                  /   \      - P O W E R E D   B Y -                         
                 /     \                                                     
                 |  |  |   _    _      __       _____    __    __             
                 |  |  |  | |  | |    /  \     |  _  \  |  |  /  |          
                  \  \/   | |  | |   /    \    | | | |  |  | /  /          
                 / \  \   | |__| |  /  /\  \   | |_| |  |  |/  /          
                |  |  |   |  __  | /  /__\  \  |    /   |      \           
                |  |  |   | |  | | |   __   |  |    \   |  |\   \          
                \     /   | |  | | |  |  |  |  | |\  \  |  | \   \       
                 \___/    |_|  |_| |__|  |__|  |_| \__\ |__|  \__/        
                                                                              
                      - O R C A' S   B I G   F R I E N D -                    
                                      &                                       
                       - I N T E G R A L  F E E D E R -                       
                                                                              
 v1 FN, 2020, v2 2021                                                         
------------------------------------------------------------------------------


Reading SHARK input file pbeh-3c.SHARKINP.tmp ... ok
----------------------
SHARK INTEGRAL PACKAGE
----------------------

Number of atoms                             ...     12
Number of basis functions                   ...    102
Number of shells                            ...     54
Maximum angular momentum                    ...      2
Integral batch strategy                     ... SHARK/LIBINT Hybrid
RI-J (if used) integral strategy            ... SPLIT-RIJ (Revised 2003 algorithm where possible)
Printlevel                                  ...      1
Contraction scheme used                     ... SEGMENTED contraction
Coulomb Range Separation                    ... NOT USED
Exchange Range Separation                   ... NOT USED
Finite Nucleus Model                        ... NOT USED
Auxiliary Coulomb fitting basis             ... AVAILABLE
   # of basis functions in Aux-J            ...    360
   # of shells in Aux-J                     ...    120
   Maximum angular momentum in Aux-J        ...      4
Auxiliary J/K fitting basis                 ... NOT available
Auxiliary Correlation fitting basis         ... NOT available
Auxiliary 'external' fitting basis          ... NOT available
Integral threshold                          ...     2.500000e-11
Primitive cut-off                           ...     2.500000e-12
Primitive pair pre-selection threshold      ...     2.500000e-12

Calculating pre-screening integrals         ... done (  0.1 sec) Dimension = 54
Organizing shell pair data                  ... done (  0.3 sec)
Shell pair information
Total number of shell pairs                 ...      1485
Shell pairs after pre-screening             ...      1428
Total number of primitive shell pairs       ...      5349
Primitive shell pairs kept                  ...      3915
          la=0 lb=0:    609 shell pairs
          la=1 lb=0:    432 shell pairs
          la=1 lb=1:     78 shell pairs
          la=2 lb=0:    216 shell pairs
          la=2 lb=1:     72 shell pairs
          la=2 lb=2:     21 shell pairs

Calculating one electron integrals          ... done (  0.0 sec)
Calculating RI/J V-Matrix + Cholesky decomp.... done (  0.2 sec)
Calculating Nuclear repulsion               ... done (  0.1 sec) ENN=    203.665282598264 Eh

SHARK setup successfully completed in   2.2 seconds

Maximum memory used throughout the entire GTOINT-calculation: 10.2 MB


           ************************************************************
           *        Program running with 4 parallel MPI-processes     *
           *              working on a common directory               *
           ************************************************************
-------------------------------------------------------------------------------
                                 ORCA SCF
-------------------------------------------------------------------------------

------------
SCF SETTINGS
------------
Hamiltonian:
 Density Functional     Method          .... DFT(GTOs)
 Exchange Functional    Exchange        .... PBE
   PBE kappa parameter   XKappa         ....  1.024500
   PBE mue parameter    XMuePBE         ....  0.123457
 Correlation Functional Correlation     .... PBE
   PBE beta parameter  CBetaPBE         ....  0.030000
 LDA part of GGA corr.  LDAOpt          .... PW91-LDA
 Gradients option       PostSCFGGA      .... off
 Hybrid DFT is turned on
   Fraction HF Exchange ScalHFX         ....  0.420000
   Scaling of DF-GGA-X  ScalDFX         ....  0.580000
   Scaling of DF-GGA-C  ScalDFC         ....  1.000000
   Scaling of DF-LDA-C  ScalLDAC        ....  1.000000
   Perturbative correction              ....  0.000000
   Density functional embedding theory  .... OFF
 RI-approximation to the Coulomb term is turned on
   Number of AuxJ basis functions       .... 360
   RIJ-ON(X) (HFX calculated with O(N)) .... on
   Number of AuxJ basis functions       .... 360
   RIJ-COSX (HFX calculated with COS-X)).... on


General Settings:
 Integral files         IntName         .... pbeh-3c
 Hartree-Fock type      HFTyp           .... RHF
 Total Charge           Charge          ....    0
 Multiplicity           Mult            ....    1
 Number of Electrons    NEL             ....   42
 Basis Dimension        Dim             ....  102
 Nuclear Repulsion      ENuc            ....    203.6652825983 Eh

Convergence Acceleration:
 DIIS                   CNVDIIS         .... on
   Start iteration      DIISMaxIt       ....    12
   Startup error        DIISStart       ....  0.200000
   # of expansion vecs  DIISMaxEq       ....     5
   Bias factor          DIISBfac        ....   1.050
   Max. coefficient     DIISMaxC        ....  10.000
 Trust-Rad. Augm. Hess. CNVTRAH         .... auto
   Auto Start mean grad. ratio tolernc. ....  1.125000
   Auto Start start iteration           ....    20
   Auto Start num. interpolation iter.  ....    10
   Max. Number of Micro iterations      ....    16
   Max. Number of Macro iterations      .... Maxiter - #DIIS iter
   Number of Davidson start vectors     ....     2
   Converg. threshold I  (grad. norm)   ....   1.000e-05
   Converg. threshold II (energy diff.) ....   1.000e-08
   Grad. Scal. Fac. for Micro threshold ....   0.100
   Minimum threshold for Micro iter.    ....   0.010
   NR start threshold (gradient norm)   ....   0.001
   Initial trust radius                 ....   0.400
   Minimum AH scaling param. (alpha)    ....   1.000
   Maximum AH scaling param. (alpha)    .... 1000.000
   Orbital update algorithm             .... Taylor
   White noise on init. David. guess    .... on
   Maximum white noise                  ....   0.010
   Quad. conv. algorithm                .... NR
   COSX micro iterations for RIJONX calc.... off
 SOSCF                  CNVSOSCF        .... on
   Start iteration      SOSCFMaxIt      ....   150
   Startup grad/error   SOSCFStart      ....  0.003300
 Level Shifting         CNVShift        .... on
   Level shift para.    LevelShift      ....    0.2500
   Turn off err/grad.   ShiftErr        ....    0.0010
 Zerner damping         CNVZerner       .... off
 Static damping         CNVDamp         .... on
   Fraction old density DampFac         ....    0.7000
   Max. Damping (<1)    DampMax         ....    0.9800
   Min. Damping (>=0)   DampMin         ....    0.0000
   Turn off err/grad.   DampErr         ....    0.1000
 Fernandez-Rico         CNVRico         .... off

SCF Procedure:
 Maximum # iterations   MaxIter         ....   125
 SCF integral mode      SCFMode         .... Direct
   Integral package                     .... SHARK and LIBINT hybrid scheme
 Reset frequency        DirectResetFreq ....    20
 Integral Threshold     Thresh          ....  2.500e-11 Eh
 Primitive CutOff       TCut            ....  2.500e-12 Eh

Convergence Tolerance:
 Convergence Check Mode ConvCheckMode   .... Total+1el-Energy
 Convergence forced     ConvForced      .... 0
 Energy Change          TolE            ....  1.000e-08 Eh
 1-El. energy change                    ....  1.000e-05 Eh
 Orbital Gradient       TolG            ....  1.000e-05
 Orbital Rotation angle TolX            ....  1.000e-05
 DIIS Error             TolErr          ....  5.000e-07


Diagonalization of the overlap matrix:
Smallest eigenvalue                        ... 4.888e-04
Time for diagonalization                   ...    0.004 sec
Threshold for overlap eigenvalues          ... 1.000e-08
Number of eigenvalues below threshold      ... 0
Time for construction of square roots      ...    0.211 sec
Total time needed                          ...    0.222 sec

--------------------------------
INITIAL GUESS: MINIMAL BASIS EHT
--------------------------------
The minimal basis has 36 functions
EHT matrix was diagonalized
Basis set overlap was calculated now projecting the orbitals
Using GuessMode=FMatrix for the initial guess
C*T matrix was formed
Effective Fockian was calculated
Effective Fockian was diagonalized
Initial density was built
                      ------------------
                      INITIAL GUESS DONE
                      ------------------
-------------------
DFT GRID GENERATION
-------------------

General Integration Accuracy     IntAcc      ... 4.959
Radial Grid Type                 RadialGrid  ... OptM3 with GC (2021)
Angular Grid (max. ang.)         AngularGrid ... 6 (Lebedev-590)
Angular grid pruning method      GridPruning ... 4 (adaptive)
Weight generation scheme         WeightScheme... Becke
Basis function cutoff            BFCut       ... 1.0000e-11
Integration weight cutoff        WCut        ... 1.0000e-14
Angular grids for H and He will be reduced by one unit
Partially contracted basis set               ... off
Rotationally invariant grid construction     ... off

Total number of grid points                  ...   138557
Total number of batches                      ...     2171
Average number of points per batch           ...       63
Average number of grid points per atom       ...    11546
Time for grid setup =    3.154 sec

--------------------
COSX GRID GENERATION
--------------------

GRIDX 1
-------
General Integration Accuracy     IntAcc      ... 4.020
Radial Grid Type                 RadialGrid  ... OptM3 with GC (2021)
Angular Grid (max. ang.)         AngularGrid ... 2 (Lebedev-110)
Angular grid pruning method      GridPruning ... 4 (adaptive)
Weight generation scheme         WeightScheme... Becke
Basis function cutoff            BFCut       ... 1.0000e-11
Integration weight cutoff        WCut        ... 1.0000e-14
Angular grids for H and He will be reduced by one unit
Partially contracted basis set               ... on
Rotationally invariant grid construction     ... off

Total number of grid points                  ...    15462
Total number of batches                      ...      248
Average number of points per batch           ...       62
Average number of grid points per atom       ...     1288
UseSFitting                                  ... on

GRIDX 2
-------
General Integration Accuracy     IntAcc      ... 4.338
Radial Grid Type                 RadialGrid  ... OptM3 with GC (2021)
Angular Grid (max. ang.)         AngularGrid ... 3 (Lebedev-194)
Angular grid pruning method      GridPruning ... 4 (adaptive)
Weight generation scheme         WeightScheme... Becke
Basis function cutoff            BFCut       ... 1.0000e-11
Integration weight cutoff        WCut        ... 1.0000e-14
Angular grids for H and He will be reduced by one unit
Partially contracted basis set               ... on
Rotationally invariant grid construction     ... off

Total number of grid points                  ...    34041
Total number of batches                      ...      536
Average number of points per batch           ...       63
Average number of grid points per atom       ...     2837
UseSFitting                                  ... on

GRIDX 3
-------
General Integration Accuracy     IntAcc      ... 4.871
Radial Grid Type                 RadialGrid  ... OptM3 with GC (2021)
Angular Grid (max. ang.)         AngularGrid ... 4 (Lebedev-302)
Angular grid pruning method      GridPruning ... 4 (adaptive)
Weight generation scheme         WeightScheme... Becke
Basis function cutoff            BFCut       ... 1.0000e-11
Integration weight cutoff        WCut        ... 1.0000e-14
Angular grids for H and He will be reduced by one unit
Partially contracted basis set               ... on
Rotationally invariant grid construction     ... off

Total number of grid points                  ...    65286
Total number of batches                      ...     1026
Average number of points per batch           ...       63
Average number of grid points per atom       ...     5440
UseSFitting                                  ... on

Time for X-Grid setup             =    3.843 sec

--------------
SCF ITERATIONS
--------------
ITER       Energy         Delta-E        Max-DP      RMS-DP      [F,P]     Damp
               ***  Starting incremental Fock matrix formation  ***
  0   -231.1706526289   0.000000000000 0.05720408  0.00411896  0.4071033 0.7000
  1   -231.3323815833  -0.161728954434 0.04115672  0.00303619  0.2872953 0.7000
  2   -231.4491826267  -0.116801043415 0.03011042  0.00224397  0.2016401 0.7000
                               ***Turning on DIIS***
  3   -231.5327031730  -0.083520546324 0.02221598  0.00165926  0.1415234 0.7000
  4   -231.5921510074  -0.059447834341 0.05814933  0.00435451  0.0993323 0.0000
  5   -231.7348506850  -0.142699677672 0.00403060  0.00026398  0.0043546 0.0000
                      *** Initiating the SOSCF procedure ***
                           *** Shutting down DIIS ***
                      *** Re-Reading the Fockian *** 
                      *** Removing any level shift *** 
ITER      Energy       Delta-E        Grad      Rot      Max-DP    RMS-DP
  6   -231.73504013  -0.0001894410  0.001621  0.001621  0.001593  0.000073
               *** Restarting incremental Fock matrix formation ***
  7   -231.73505759  -0.0000174610  0.000324  0.000368  0.000418  0.000024
  8   -231.73505901  -0.0000014230  0.000086  0.000128  0.000153  0.000006
  9   -231.73505905  -0.0000000409  0.000038  0.000028  0.000041  0.000002
 10   -231.73505907  -0.0000000196  0.000005  0.000013  0.000018  0.000001
 11   -231.73505907   0.0000000021  0.000005  0.000007  0.000008  0.000000
                  ***Gradient check signals convergence***
              ***Rediagonalizing the Fockian in SOSCF/NRSCF***

               *****************************************************
               *                     SUCCESS                       *
               *           SCF CONVERGED AFTER  12 CYCLES          *
               *****************************************************

Old exchange energy                            =    -13.945063632 Eh
New exchange energy                            =    -13.945057859 Eh
Exchange energy change after final integration =      0.000005772 Eh
Total energy after final integration           =   -231.735053293 Eh
Final COS-X integration done in                =     2.532 sec

----------------
TOTAL SCF ENERGY
----------------

Total Energy       :         -231.73505329 Eh           -6305.83138 eV

Components:
Nuclear Repulsion  :          203.66528260 Eh            5542.01409 eV
Electronic Energy  :         -435.40033589 Eh          -11847.84547 eV
One Electron Energy:         -714.31578030 Eh          -19437.52057 eV
Two Electron Energy:          278.91544441 Eh            7589.67509 eV
Max COSX asymmetry :            0.00000047 Eh               0.00001 eV

Virial components:
Potential Energy   :         -461.55027095 Eh          -12559.42138 eV
Kinetic Energy     :          229.81521766 Eh            6253.59000 eV
Virial Ratio       :            2.00835382


DFT components:
N(Alpha)           :       21.000000559863 electrons
N(Beta)            :       21.000000559863 electrons
N(Total)           :       42.000001119725 electrons
E(X)               :      -18.509130320976 Eh       
E(C)               :       -1.801024132938 Eh       
E(XC)              :      -20.310154453914 Eh       
DFET-embed. en.    :        0.000000000000 Eh       

---------------
SCF CONVERGENCE
---------------

  Last Energy change         ...    2.6390e-09  Tolerance :   1.0000e-08
  Last MAX-Density change    ...    6.6613e-16  Tolerance :   1.0000e-07
  Last RMS-Density change    ...    3.7297e-17  Tolerance :   5.0000e-09
  Last Orbital Gradient      ...    7.0475e-07  Tolerance :   1.0000e-05
  Last Orbital Rotation      ...    9.4252e-07  Tolerance :   1.0000e-05

             **** THE GBW FILE WAS UPDATED (pbeh-3c.gbw) ****
             **** DENSITY pbeh-3c.scfp WAS UPDATED ****
             **** ENERGY FILE WAS UPDATED (pbeh-3c.en.tmp) ****
             **** THE GBW FILE WAS UPDATED (pbeh-3c.gbw) ****
             **** DENSITY pbeh-3c.scfp WAS UPDATED ****
----------------
ORBITAL ENERGIES
----------------

  NO   OCC          E(Eh)            E(eV) 
   0   2.0000     -10.448789      -284.3260 
   1   2.0000     -10.448552      -284.3196 
   2   2.0000     -10.448548      -284.3195 
   3   2.0000     -10.447959      -284.3034 
   4   2.0000     -10.447933      -284.3027 
   5   2.0000     -10.447699      -284.2963 
   6   2.0000      -0.952005       -25.9054 
   7   2.0000      -0.835481       -22.7346 
   8   2.0000      -0.835400       -22.7324 
   9   2.0000      -0.679011       -18.4768 
  10   2.0000      -0.678977       -18.4759 
  11   2.0000      -0.591993       -16.1089 
  12   2.0000      -0.526033       -14.3141 
  13   2.0000      -0.508397       -13.8342 
  14   2.0000      -0.481833       -13.1114 
  15   2.0000      -0.481750       -13.1091 
  16   2.0000      -0.420797       -11.4505 
  17   2.0000      -0.398354       -10.8398 
  18   2.0000      -0.398332       -10.8392 
  19   2.0000      -0.292477        -7.9587 
  20   2.0000      -0.292407        -7.9568 
  21   0.0000       0.019116         0.5202 
  22   0.0000       0.019164         0.5215 
  23   0.0000       0.140856         3.8329 
  24   0.0000       0.196144         5.3374 
  25   0.0000       0.201847         5.4925 
  26   0.0000       0.201869         5.4931 
  27   0.0000       0.223427         6.0798 
  28   0.0000       0.223470         6.0809 
  29   0.0000       0.254224         6.9178 
  30   0.0000       0.326862         8.8944 
  31   0.0000       0.326906         8.8956 
  32   0.0000       0.328479         8.9384 
  33   0.0000       0.328524         8.9396 
  34   0.0000       0.449709        12.2372 
  35   0.0000       0.519807        14.1447 
  36   0.0000       0.565205        15.3800 
  37   0.0000       0.588337        16.0095 
  38   0.0000       0.588379        16.0106 
  39   0.0000       0.589127        16.0310 
  40   0.0000       0.618710        16.8360 
  41   0.0000       0.618876        16.8405 
  42   0.0000       0.634146        17.2560 
  43   0.0000       0.634251        17.2588 
  44   0.0000       0.640333        17.4243 
  45   0.0000       0.656807        17.8726 
  46   0.0000       0.656829        17.8732 
  47   0.0000       0.676507        18.4087 
  48   0.0000       0.732072        19.9207 
  49   0.0000       0.749664        20.3994 
  50   0.0000       0.942747        25.6534 
  51   0.0000       0.942788        25.6546 
  52   0.0000       0.968189        26.3458 
  53   0.0000       0.968689        26.3594 
  54   0.0000       0.968697        26.3596 
  55   0.0000       1.040383        28.3102 
  56   0.0000       1.040453        28.3122 
  57   0.0000       1.044403        28.4196 
  58   0.0000       1.088507        29.6198 
  59   0.0000       1.088581        29.6218 
  60   0.0000       1.096477        29.8366 
  61   0.0000       1.096564        29.8390 
  62   0.0000       1.170204        31.8429 
  63   0.0000       1.301148        35.4060 
  64   0.0000       1.301160        35.4064 
  65   0.0000       1.306244        35.5447 
  66   0.0000       1.441189        39.2167 
  67   0.0000       1.537509        41.8378 
  68   0.0000       1.537515        41.8379 
  69   0.0000       1.567158        42.6445 
  70   0.0000       1.567229        42.6465 
  71   0.0000       1.581016        43.0216 
  72   0.0000       1.815405        49.3997 
  73   0.0000       1.816819        49.4382 
  74   0.0000       1.902328        51.7650 
  75   0.0000       2.060524        56.0697 
  76   0.0000       2.060599        56.0718 
  77   0.0000       2.135495        58.1098 
  78   0.0000       2.135604        58.1127 
  79   0.0000       2.195309        59.7374 
  80   0.0000       2.195343        59.7383 
  81   0.0000       2.203481        59.9598 
  82   0.0000       2.203703        59.9658 
  83   0.0000       2.372505        64.5591 
  84   0.0000       2.373037        64.5736 
  85   0.0000       2.373204        64.5782 
  86   0.0000       2.582590        70.2758 
  87   0.0000       2.582703        70.2789 
  88   0.0000       2.730045        74.2883 
  89   0.0000       2.742504        74.6273 
  90   0.0000       2.742632        74.6308 
  91   0.0000       2.790015        75.9202 
  92   0.0000       2.790177        75.9246 
  93   0.0000       2.839423        77.2646 
  94   0.0000       3.059283        83.2473 
  95   0.0000       3.450900        93.9038 
  96   0.0000      13.215070       359.6003 
  97   0.0000      13.631897       370.9428 
  98   0.0000      13.632076       370.9476 
  99   0.0000      14.104466       383.8020 
 100   0.0000      14.104801       383.8111 
 101   0.0000      14.542859       395.7313 

                    ********************************
                    * MULLIKEN POPULATION ANALYSIS *
                    ********************************

-----------------------
MULLIKEN ATOMIC CHARGES
-----------------------
   0 H :    0.219895
   1 C :   -0.219904
   2 C :   -0.219766
   3 C :   -0.219779
   4 C :   -0.219770
   5 C :   -0.219941
   6 C :   -0.220101
   7 H :    0.219871
   8 H :    0.219845
   9 H :    0.219877
  10 H :    0.219892
  11 H :    0.219881
Sum of atomic charges:    0.0000000

--------------------------------
MULLIKEN REDUCED ORBITAL CHARGES
--------------------------------
  0 H s       :     0.780105  s :     0.780105
  1 C s       :     3.246207  s :     3.246207
      pz      :     1.043591  p :     2.934125
      px      :     0.899656
      py      :     0.990878
      dz2     :     0.013139  d :     0.039571
      dxz     :     0.010969
      dyz     :     0.002419
      dx2y2   :     0.006196
      dxy     :     0.006848
  2 C s       :     3.246029  s :     3.246029
      pz      :     0.936612  p :     2.934141
      px      :     1.006244
      py      :     0.991285
      dz2     :     0.009711  d :     0.039595
      dxz     :     0.014411
      dyz     :     0.005713
      dx2y2   :     0.006149
      dxy     :     0.003611
  3 C s       :     3.246024  s :     3.246024
      pz      :     0.934951  p :     2.934155
      px      :     1.009241
      py      :     0.989964
      dz2     :     0.009780  d :     0.039599
      dxz     :     0.014322
      dyz     :     0.005742
      dx2y2   :     0.006334
      dxy     :     0.003422
  4 C s       :     3.246044  s :     3.246044
      pz      :     1.043609  p :     2.934132
      px      :     0.899635
      py      :     0.990888
      dz2     :     0.013132  d :     0.039594
      dxz     :     0.010974
      dyz     :     0.002432
      dx2y2   :     0.006200
      dxy     :     0.006855
  5 C s       :     3.246248  s :     3.246248
      pz      :     0.936638  p :     2.934126
      px      :     1.006213
      py      :     0.991276
      dz2     :     0.009710  d :     0.039566
      dxz     :     0.014388
      dyz     :     0.005702
      dx2y2   :     0.006144
      dxy     :     0.003622
  6 C s       :     3.246412  s :     3.246412
      pz      :     0.934995  p :     2.934141
      px      :     1.009207
      py      :     0.989939
      dz2     :     0.009769  d :     0.039548
      dxz     :     0.014308
      dyz     :     0.005728
      dx2y2   :     0.006329
      dxy     :     0.003415
  7 H s       :     0.780129  s :     0.780129
  8 H s       :     0.780155  s :     0.780155
  9 H s       :     0.780123  s :     0.780123
 10 H s       :     0.780108  s :     0.780108
 11 H s       :     0.780119  s :     0.780119


                     *******************************
                     * LOEWDIN POPULATION ANALYSIS *
                     *******************************

----------------------
LOEWDIN ATOMIC CHARGES
----------------------
   0 H :    0.135683
   1 C :   -0.135692
   2 C :   -0.135694
   3 C :   -0.135673
   4 C :   -0.135701
   5 C :   -0.135680
   6 C :   -0.135644
   7 H :    0.135682
   8 H :    0.135678
   9 H :    0.135683
  10 H :    0.135683
  11 H :    0.135677

-------------------------------
LOEWDIN REDUCED ORBITAL CHARGES
-------------------------------
  0 H s       :     0.864317  s :     0.864317
  1 C s       :     2.894515  s :     2.894515
      pz      :     1.078510  p :     3.151838
      px      :     1.089729
      py      :     0.983599
      dz2     :     0.027077  d :     0.089339
      dxz     :     0.028656
      dyz     :     0.003655
      dx2y2   :     0.015686
      dxy     :     0.014267
  2 C s       :     2.894327  s :     2.894327
      pz      :     1.086739  p :     3.151946
      px      :     1.081641
      py      :     0.983565
      dz2     :     0.025319  d :     0.089422
      dxz     :     0.034638
      dyz     :     0.011523
      dx2y2   :     0.011474
      dxy     :     0.006467
  3 C s       :     2.894285  s :     2.894285
      pz      :     1.086854  p :     3.151952
      px      :     1.081416
      py      :     0.983682
      dz2     :     0.025508  d :     0.089436
      dxz     :     0.034409
      dyz     :     0.011680
      dx2y2   :     0.011681
      dxy     :     0.006158
  4 C s       :     2.894342  s :     2.894342
      pz      :     1.078503  p :     3.151943
      px      :     1.089828
      py      :     0.983612
      dz2     :     0.027077  d :     0.089416
      dxz     :     0.028672
      dyz     :     0.003675
      dx2y2   :     0.015707
      dxy     :     0.014285
  5 C s       :     2.894548  s :     2.894548
      pz      :     1.086568  p :     3.151809
      px      :     1.081652
      py      :     0.983590
      dz2     :     0.025313  d :     0.089323
      dxz     :     0.034566
      dyz     :     0.011492
      dx2y2   :     0.011467
      dxy     :     0.006485
  6 C s       :     2.894683  s :     2.894683
      pz      :     1.086674  p :     3.151701
      px      :     1.081339
      py      :     0.983688
      dz2     :     0.025463  d :     0.089261
      dxz     :     0.034346
      dyz     :     0.011646
      dx2y2   :     0.011664
      dxy     :     0.006142
  7 H s       :     0.864318  s :     0.864318
  8 H s       :     0.864322  s :     0.864322
  9 H s       :     0.864317  s :     0.864317
 10 H s       :     0.864317  s :     0.864317
 11 H s       :     0.864323  s :     0.864323


                      *****************************
                      * MAYER POPULATION ANALYSIS *
                      *****************************

  NA   - Mulliken gross atomic population
  ZA   - Total nuclear charge
  QA   - Mulliken gross atomic charge
  VA   - Mayer's total valence
  BVA  - Mayer's bonded valence
  FA   - Mayer's free valence

  ATOM       NA         ZA         QA         VA         BVA        FA
  0 H      0.7801     1.0000     0.2199     0.9117     0.9117     0.0000
  1 C      6.2199     6.0000    -0.2199     3.8193     3.8193    -0.0000
  2 C      6.2198     6.0000    -0.2198     3.8193     3.8193     0.0000
  3 C      6.2198     6.0000    -0.2198     3.8194     3.8194     0.0000
  4 C      6.2198     6.0000    -0.2198     3.8193     3.8193    -0.0000
  5 C      6.2199     6.0000    -0.2199     3.8193     3.8193     0.0000
  6 C      6.2201     6.0000    -0.2201     3.8194     3.8194    -0.0000
  7 H      0.7801     1.0000     0.2199     0.9117     0.9117    -0.0000
  8 H      0.7802     1.0000     0.2198     0.9117     0.9117     0.0000
  9 H      0.7801     1.0000     0.2199     0.9117     0.9117    -0.0000
 10 H      0.7801     1.0000     0.2199     0.9117     0.9117     0.0000
 11 H      0.7801     1.0000     0.2199     0.9118     0.9118     0.0000

  Mayer bond orders larger than 0.100000
B(  0-H ,  1-C ) :   0.9200 B(  1-C ,  2-C ) :   1.4265 B(  1-C ,  6-C ) :   1.4264 
B(  2-C ,  3-C ) :   1.4265 B(  2-C ,  7-H ) :   0.9200 B(  3-C ,  4-C ) :   1.4265 
B(  3-C ,  8-H ) :   0.9200 B(  4-C ,  5-C ) :   1.4265 B(  4-C ,  9-H ) :   0.9200 
B(  5-C ,  6-C ) :   1.4265 B(  5-C , 10-H ) :   0.9200 B(  6-C , 11-H ) :   0.9200 


-------
TIMINGS
-------

Total SCF time: 0 days 0 hours 1 min 18 sec 

Total time                  ....      78.864 sec
Sum of individual times     ....      70.625 sec  ( 89.6%)

Fock matrix formation       ....      59.224 sec  ( 75.1%)
  Split-RI-J                ....       6.363 sec  ( 10.7% of F)
  Chain of spheres X        ....      18.529 sec  ( 31.3% of F)
  XC integration            ....      16.957 sec  ( 28.6% of F)
    Basis function eval.    ....       2.346 sec  ( 13.8% of XC)
    Density eval.           ....       1.582 sec  (  9.3% of XC)
    XC-Functional eval.     ....       1.272 sec  (  7.5% of XC)
    XC-Potential eval.      ....       1.033 sec  (  6.1% of XC)
Diagonalization             ....       0.798 sec  (  1.0%)
Density matrix formation    ....       0.022 sec  (  0.0%)
Population analysis         ....       0.796 sec  (  1.0%)
Initial guess               ....       0.017 sec  (  0.0%)
Orbital Transformation      ....       0.000 sec  (  0.0%)
Orbital Orthonormalization  ....       0.000 sec  (  0.0%)
DIIS solution               ....       1.382 sec  (  1.8%)
SOSCF solution              ....       1.389 sec  (  1.8%)
Grid generation             ....       6.997 sec  (  8.9%)

Maximum memory used throughout the entire SCF-calculation: 50.8 MB


-------------------------------------------------------------------------------
                          DFT DISPERSION CORRECTION                            
                                                                               
                              DFTD3 V3.1  Rev 1                                
                          USING Becke-Johnson damping                          
-------------------------------------------------------------------------------
The PBEh-3c composite method is recognized
Using three-body term ABC
Active option DFTDOPT                   ...         4   

molecular C6(AA) [au] = 1659.178695 


            DFT-D V3
 parameters
 s6 scaling factor         :     1.0000 
 a1 scaling factor         :     0.4860 
 s8 scaling factor         :     0.0000 
 a2 scaling factor         :     4.5000 
 Damping factor alpha9(ATM):    16.0000 
 ad hoc parameters k1-k3   :    16.0000     1.3333    -4.0000 

 Edisp/kcal,au: -3.690055313363  -0.005880476825 
 E6   /kcal   :  -3.695991052 
 E8   /kcal   :  -0.000000000 
 E6(ABC)      :   0.005935738 
 % E8         :   0.000000000 
 % E6(ABC)    :  -0.160857704 

-------------------------   ----------------
Dispersion correction           -0.005880477
-------------------------   ----------------

------------------   -----------------
gCP correction             0.015150495
------------------   -----------------

-------------------------   --------------------
FINAL SINGLE POINT ENERGY      -231.725783275014
-------------------------   --------------------


                            ***************************************
                            *     ORCA property calculations      *
                            ***************************************

                                    ---------------------
                                    Active property flags
                                    ---------------------
   (+) Dipole Moment


------------------------------------------------------------------------------
                       ORCA ELECTRIC PROPERTIES CALCULATION
------------------------------------------------------------------------------

Dipole Moment Calculation                       ... on
Quadrupole Moment Calculation                   ... off
Polarizability Calculation                      ... off
GBWName                                         ... pbeh-3c.gbw
Electron density                                ... pbeh-3c.scfp
The origin for moment calculation is the CENTER OF MASS  = ( 0.059091,  0.305575  4.718958)

-------------
DIPOLE MOMENT
-------------
                                X             Y             Z
Electronic contribution:     -0.00004       0.00478       0.00054
Nuclear contribution   :      0.00017      -0.00699      -0.00074
                        -----------------------------------------
Total Dipole Moment    :      0.00013      -0.00220      -0.00020
                        -----------------------------------------
Magnitude (a.u.)       :      0.00222
Magnitude (Debye)      :      0.00563



--------------------
Rotational spectrum 
--------------------
 
Rotational constants in cm-1:     0.190389     0.190339     0.095182 
Rotational constants in MHz :  5707.731906  5706.215084  2853.487156 

 Dipole components along the rotational axes: 
x,y,z [a.u.] :     0.000010    -0.000021    -0.002215 
x,y,z [Debye]:     0.000025    -0.000052    -0.005630 

 

Timings for individual modules:

Sum of individual times         ...       82.935 sec (=   1.382 min)
GTO integral calculation        ...        2.987 sec (=   0.050 min)   3.6 %
SCF iterations                  ...       79.948 sec (=   1.332 min)  96.4 %
                             ****ORCA TERMINATED NORMALLY****
TOTAL RUN TIME: 0 days 0 hours 1 minutes 25 seconds 44 msec
