
                                 *****************
                                 * O   R   C   A *
                                 *****************

                                            #,                                       
                                            ###                                      
                                            ####                                     
                                            #####                                    
                                            ######                                   
                                           ########,                                 
                                     ,,################,,,,,                         
                               ,,#################################,,                 
                          ,,##########################################,,             
                       ,#########################################, ''#####,          
                    ,#############################################,,   '####,        
                  ,##################################################,,,,####,       
                ,###########''''           ''''###############################       
              ,#####''   ,,,,##########,,,,          '''####'''          '####       
            ,##' ,,,,###########################,,,                        '##       
           ' ,,###''''                  '''############,,,                           
         ,,##''                                '''############,,,,        ,,,,,,###''
      ,#''                                            '''#######################'''  
     '                                                          ''''####''''         
             ,#######,   #######,   ,#######,      ##                                
            ,#'     '#,  ##    ##  ,#'     '#,    #''#        ######   ,####,        
            ##       ##  ##   ,#'  ##            #'  '#       #        #'  '#        
            ##       ##  #######   ##           ,######,      #####,   #    #        
            '#,     ,#'  ##    ##  '#,     ,#' ,#      #,         ##   #,  ,#        
             '#######'   ##     ##  '#######'  #'      '#     #####' # '####'        



                  #######################################################
                  #                        -***-                        #
                  #          Department of theory and spectroscopy      #
                  #    Directorship and core code : Frank Neese         #
                  #        Max Planck Institute fuer Kohlenforschung    #
                  #                Kaiser Wilhelm Platz 1               #
                  #                 D-45470 Muelheim/Ruhr               #
                  #                      Germany                        #
                  #                                                     #
                  #                  All rights reserved                #
                  #                        -***-                        #
                  #######################################################


                         Program Version 5.0.3 -  RELEASE  -


 With contributions from (in alphabetic order):
   Daniel Aravena         : Magnetic Suceptibility
   Michael Atanasov       : Ab Initio Ligand Field Theory (pilot matlab implementation)
   Alexander A. Auer      : GIAO ZORA, VPT2 properties, NMR spectrum
   Ute Becker             : Parallelization
   Giovanni Bistoni       : ED, misc. LED, open-shell LED, HFLD
   Martin Brehm           : Molecular dynamics
   Dmytro Bykov           : SCF Hessian
   Vijay G. Chilkuri      : MRCI spin determinant printing, contributions to CSF-ICE
   Dipayan Datta          : RHF DLPNO-CCSD density
   Achintya Kumar Dutta   : EOM-CC, STEOM-CC
   Dmitry Ganyushin       : Spin-Orbit,Spin-Spin,Magnetic field MRCI
   Miquel Garcia          : C-PCM and meta-GGA Hessian, CC/C-PCM, Gaussian charge scheme
   Yang Guo               : DLPNO-NEVPT2, F12-NEVPT2, CIM, IAO-localization
   Andreas Hansen         : Spin unrestricted coupled pair/coupled cluster methods
   Benjamin Helmich-Paris : MC-RPA, TRAH-SCF, COSX integrals
   Lee Huntington         : MR-EOM, pCC
   Robert Izsak           : Overlap fitted RIJCOSX, COSX-SCS-MP3, EOM
   Marcus Kettner         : VPT2
   Christian Kollmar      : KDIIS, OOCD, Brueckner-CCSD(T), CCSD density, CASPT2, CASPT2-K
   Simone Kossmann        : Meta GGA functionals, TD-DFT gradient, OOMP2, MP2 Hessian
   Martin Krupicka        : Initial AUTO-CI
   Lucas Lang             : DCDCAS
   Marvin Lechner         : AUTO-CI (C++ implementation), FIC-MRCC
   Dagmar Lenk            : GEPOL surface, SMD
   Dimitrios Liakos       : Extrapolation schemes; Compound Job, initial MDCI parallelization
   Dimitrios Manganas     : Further ROCIS development; embedding schemes
   Dimitrios Pantazis     : SARC Basis sets
   Anastasios Papadopoulos: AUTO-CI, single reference methods and gradients
   Taras Petrenko         : DFT Hessian,TD-DFT gradient, ASA, ECA, R-Raman, ABS, FL, XAS/XES, NRVS
   Peter Pinski           : DLPNO-MP2, DLPNO-MP2 Gradient
   Christoph Reimann      : Effective Core Potentials
   Marius Retegan         : Local ZFS, SOC
   Christoph Riplinger    : Optimizer, TS searches, QM/MM, DLPNO-CCSD(T), (RO)-DLPNO pert. Triples
   Tobias Risthaus        : Range-separated hybrids, TD-DFT gradient, RPA, STAB
   Michael Roemelt        : Original ROCIS implementation
   Masaaki Saitow         : Open-shell DLPNO-CCSD energy and density
   Barbara Sandhoefer     : DKH picture change effects
   Avijit Sen             : IP-ROCIS
   Kantharuban Sivalingam : CASSCF convergence, NEVPT2, FIC-MRCI
   Bernardo de Souza      : ESD, SOC TD-DFT
   Georgi Stoychev        : AutoAux, RI-MP2 NMR, DLPNO-MP2 response
   Willem Van den Heuvel  : Paramagnetic NMR
   Boris Wezisla          : Elementary symmetry handling
   Frank Wennmohs         : Technical directorship


 We gratefully acknowledge several colleagues who have allowed us to
 interface, adapt or use parts of their codes:
   Stefan Grimme, W. Hujo, H. Kruse, P. Pracht,  : VdW corrections, initial TS optimization,
                  C. Bannwarth, S. Ehlert          DFT functionals, gCP, sTDA/sTD-DF
   Ed Valeev, F. Pavosevic, A. Kumar             : LibInt (2-el integral package), F12 methods
   Garnet Chan, S. Sharma, J. Yang, R. Olivares  : DMRG
   Ulf Ekstrom                                   : XCFun DFT Library
   Mihaly Kallay                                 : mrcc  (arbitrary order and MRCC methods)
   Jiri Pittner, Ondrej Demel                    : Mk-CCSD
   Frank Weinhold                                : gennbo (NPA and NBO analysis)
   Christopher J. Cramer and Donald G. Truhlar   : smd solvation model
   Lars Goerigk                                  : TD-DFT with DH, B97 family of functionals
   V. Asgeirsson, H. Jonsson                     : NEB implementation
   FAccTs GmbH                                   : IRC, NEB, NEB-TS, DLPNO-Multilevel, CI-OPT
                                                   MM, QMMM, 2- and 3-layer-ONIOM, Crystal-QMMM,
                                                   LR-CPCM, SF, NACMEs, symmetry and pop. for TD-DFT,
                                                   nearIR, NL-DFT gradient (VV10), updates on ESD,
                                                   ML-optimized integration grids
   S Lehtola, MJT Oliveira, MAL Marques          : LibXC Library
   Liviu Ungur et al                             : ANISO software


 Your calculation uses the libint2 library for the computation of 2-el integrals
 For citations please refer to: http://libint.valeyev.net

 Your ORCA version has been built with support for libXC version: 5.1.0
 For citations please refer to: https://tddft.org/programs/libxc/

 This ORCA versions uses:
   CBLAS   interface :  Fast vector & matrix operations
   LAPACKE interface :  Fast linear algebra routines
   SCALAPACK package :  Parallel linear algebra routines
   Shared memory     :  Shared parallel matrices
   BLAS/LAPACK       :  OpenBLAS 0.3.15  USE64BITINT DYNAMIC_ARCH NO_AFFINITY Haswell SINGLE_THREADED
        Core in use  :  Haswell
   Copyright (c) 2011-2014, The OpenBLAS Project




***************************************
The coordinates will be read from file: G2.xyz
***************************************


Your calculation utilizes the geometrical counterpoise correction gCP
Please cite in your paper:
H.Kruse, S. Grimme J.Chem.Phys., 136, (2012), 154101 
   

Your calculation utilizes the atom-pairwise dispersion correction
with the Becke-Johnson damping scheme (D3BJ)
Cite in your paper:
S.Grimme, S.Ehrlich, L.Goerigk, J Comput Chem, (2011), 32, 1456–1465 
S.Grimme, J.Antony, S.Ehrlich and H.Krieg, J.Chem.Phys., 132, (2010), 154104 
   

Your calculation employs the composite approach PBEh-3c.
Please cite in your paper:
S. Grimme, J. G. Brandenburg, C. Bannwarth, A. Hansen J.Chem.Phys., 143, (2015), 054107 
   

================================================================================

----- Orbital basis set information -----
Your calculation utilizes the basis: def2-mSVP

----- AuxJ basis set information -----
Your calculation utilizes the auxiliary basis: def2/J
   F. Weigend, Phys. Chem. Chem. Phys. 8, 1057 (2006).

================================================================================
                                        WARNINGS
                       Please study these warnings very carefully!
================================================================================


INFO   : the flag for use of the SHARK integral package has been found!

================================================================================
                                       INPUT FILE
================================================================================
NAME = pbeh-3c.inp
|  1> ! PBEh-3c def2/J TightSCF DefGrid3
|  2> 
|  3> %maxcore 60000
|  4> 
|  5> %pal
|  6> nprocs 4
|  7> end
|  8> 
|  9> *xyzfile 0 1 G2.xyz
| 10> 
| 11>                          ****END OF INPUT****
================================================================================

                       ****************************
                       * Single Point Calculation *
                       ****************************

---------------------------------
CARTESIAN COORDINATES (ANGSTROEM)
---------------------------------
  C     -1.250396   -1.208617   -0.279193
  O      0.042063   -1.506158    0.236541
  C      1.052652   -0.592192   -0.212191
  C      0.695831    0.815479    0.294542
  C     -1.715973    0.167082    0.204409
  C     -0.689639    1.220875   -0.197452
  H      1.093443   -0.585876   -1.313296
  O     -0.978219    2.498408    0.365503
  O     -2.958034    0.548704   -0.379345
  O     -2.159471   -2.150041    0.211303
  O      1.694478    1.729105   -0.162410
  H     -3.632042   -0.096295   -0.109840
  C      2.399561   -1.096712    0.317200
  H     -1.896323   -3.033924   -0.092423
  H      1.399302    2.627340    0.064440
  H     -1.874125    2.754290    0.090765
  H      2.489564   -2.162661    0.089809
  H     -0.670926    1.296930   -1.296144
  H     -1.797810    0.129377    1.300099
  H     -1.212447   -1.233656   -1.382699
  H      0.686186    0.798529    1.395120
  O      3.496097   -0.451134   -0.310272
  H      3.353402    0.510037   -0.246316
  H      2.432828   -0.978888    1.411849

----------------------------
CARTESIAN COORDINATES (A.U.)
----------------------------
  NO LB      ZA    FRAG     MASS         X           Y           Z
   0 C     6.0000    0    12.011   -2.362906   -2.283956   -0.527599
   1 O     8.0000    0    15.999    0.079487   -2.846227    0.446998
   2 C     6.0000    0    12.011    1.989223   -1.119080   -0.400982
   3 C     6.0000    0    12.011    1.314930    1.541031    0.556603
   4 C     6.0000    0    12.011   -3.242719    0.315739    0.386276
   5 C     6.0000    0    12.011   -1.303229    2.307119   -0.373131
   6 H     1.0000    0     1.008    2.066307   -1.107145   -2.481770
   7 O     8.0000    0    15.999   -1.848566    4.721308    0.690701
   8 O     8.0000    0    15.999   -5.589874    1.036900   -0.716857
   9 O     8.0000    0    15.999   -4.080809   -4.062988    0.399306
  10 O     8.0000    0    15.999    3.202099    3.267535   -0.306910
  11 H     1.0000    0     1.008   -6.863566   -0.181972   -0.207567
  12 C     6.0000    0    12.011    4.534513   -2.072486    0.599422
  13 H     1.0000    0     1.008   -3.583532   -5.733286   -0.174655
  14 H     1.0000    0     1.008    2.644298    4.964953    0.121774
  15 H     1.0000    0     1.008   -3.541584    5.204853    0.171521
  16 H     1.0000    0     1.008    4.704594   -4.086836    0.169714
  17 H     1.0000    0     1.008   -1.267866    2.450842   -2.449357
  18 H     1.0000    0     1.008   -3.397369    0.244487    2.456832
  19 H     1.0000    0     1.008   -2.291192   -2.331272   -2.612923
  20 H     1.0000    0     1.008    1.296703    1.509000    2.636396
  21 O     8.0000    0    15.999    6.606665   -0.852520   -0.586329
  22 H     1.0000    0     1.008    6.337011    0.963829   -0.465470
  23 H     1.0000    0     1.008    4.597378   -1.849830    2.668008

--------------------------------
INTERNAL COORDINATES (ANGSTROEM)
--------------------------------
 C      0   0   0     0.000000000000     0.00000000     0.00000000
 O      1   0   0     1.423011482569     0.00000000     0.00000000
 C      2   1   0     1.434567779556   113.15663663     0.00000000
 C      3   2   1     1.538062025258   108.45781988    62.16857939
 C      1   2   3     1.530745349123   110.46658520   297.44334843
 C      5   1   2     1.524904673013   109.45672884    56.48456922
 H      3   2   1     1.101878903693   110.01768396   302.51505602
 O      6   5   1     1.425583942802   112.27022993   187.30876443
 O      5   1   2     1.424471140175   112.11730981   175.15908982
 O      1   2   3     1.397599030767   108.82866474   179.93915372
 O      4   3   2     1.428570682041   108.52758781   180.55231851
 H      9   5   1     0.971053530143   108.27220925    61.76326673
 C      3   2   1     1.532632161431   107.53692033   184.72771959
 H     10   1   2     0.970951152049   109.09444094   298.64052120
 H     11   4   3     0.972324877901   107.69579273   172.80323765
 H      8   6   5     0.971393217247   108.12377888   303.23778946
 H     13   3   2     1.093642242116   108.74487335    48.79775325
 H      6   5   1     1.101479790743   108.78483062    65.82989280
 H      5   1   2     1.099389408563   107.85933355   297.22843775
 H      1   2   3     1.104441896708   109.03642019    58.77555353
 H      4   3   2     1.100751474556   108.50271224    61.50056941
 O     13   3   2     1.418761253900   112.12764305   166.58813513
 H     22  13   3     0.973807422501   107.86803041    51.68844737
 H     13   3   2     1.101473998005   109.54833686   291.01648299

---------------------------
INTERNAL COORDINATES (A.U.)
---------------------------
 C      0   0   0     0.000000000000     0.00000000     0.00000000
 O      1   0   0     2.689101987481     0.00000000     0.00000000
 C      2   1   0     2.710940223907   113.15663663     0.00000000
 C      3   2   1     2.906516004722   108.45781988    62.16857939
 C      1   2   3     2.892689490616   110.46658520   297.44334843
 C      5   1   2     2.881652212331   109.45672884    56.48456922
 H      3   2   1     2.082249360725   110.01768396   302.51505602
 O      6   5   1     2.693963232812   112.27022993   187.30876443
 O      5   1   2     2.691860340605   112.11730981   175.15908982
 O      1   2   3     2.641079413184   108.82866474   179.93915372
 O      4   3   2     2.699607352007   108.52758781   180.55231851
 H      9   5   1     1.835025233348   108.27220925    61.76326673
 C      3   2   1     2.896255049144   107.53692033   184.72771959
 H     10   1   2     1.834831766789   109.09444094   298.64052120
 H     11   4   3     1.837427732432   107.69579273   172.80323765
 H      8   6   5     1.835667148946   108.12377888   303.23778946
 H     13   3   2     2.066684326088   108.74487335    48.79775325
 H      6   5   1     2.081495146552   108.78483062    65.82989280
 H      5   1   2     2.077544896718   107.85933355   297.22843775
 H      1   2   3     2.087092715606   109.03642019    58.77555353
 H      4   3   2     2.080118828421   108.50271224    61.50056941
 O     13   3   2     2.681070219289   112.12764305   166.58813513
 H     22  13   3     1.840229335707   107.86803041    51.68844737
 H     13   3   2     2.081484199865   109.54833686   291.01648299

---------------------
BASIS SET INFORMATION
---------------------
There are 3 groups of distinct atoms

 Group   1 Type C   : 8s4p1d contracted to 4s2p1d pattern {5111/31/1}
 Group   2 Type O   : 8s4p1d contracted to 4s2p1d pattern {5111/31/1}
 Group   3 Type H   : 4s contracted to 2s pattern {31}

Atom   0C    basis set group =>   1
Atom   1O    basis set group =>   2
Atom   2C    basis set group =>   1
Atom   3C    basis set group =>   1
Atom   4C    basis set group =>   1
Atom   5C    basis set group =>   1
Atom   6H    basis set group =>   3
Atom   7O    basis set group =>   2
Atom   8O    basis set group =>   2
Atom   9O    basis set group =>   2
Atom  10O    basis set group =>   2
Atom  11H    basis set group =>   3
Atom  12C    basis set group =>   1
Atom  13H    basis set group =>   3
Atom  14H    basis set group =>   3
Atom  15H    basis set group =>   3
Atom  16H    basis set group =>   3
Atom  17H    basis set group =>   3
Atom  18H    basis set group =>   3
Atom  19H    basis set group =>   3
Atom  20H    basis set group =>   3
Atom  21O    basis set group =>   2
Atom  22H    basis set group =>   3
Atom  23H    basis set group =>   3
---------------------------------
AUXILIARY/J BASIS SET INFORMATION
---------------------------------
There are 3 groups of distinct atoms

 Group   1 Type C   : 12s5p4d2f1g contracted to 6s4p3d1f1g pattern {711111/2111/211/2/1}
 Group   2 Type O   : 12s5p4d2f1g contracted to 6s4p3d1f1g pattern {711111/2111/211/2/1}
 Group   3 Type H   : 5s2p1d contracted to 3s1p1d pattern {311/2/1}

Atom   0C    basis set group =>   1
Atom   1O    basis set group =>   2
Atom   2C    basis set group =>   1
Atom   3C    basis set group =>   1
Atom   4C    basis set group =>   1
Atom   5C    basis set group =>   1
Atom   6H    basis set group =>   3
Atom   7O    basis set group =>   2
Atom   8O    basis set group =>   2
Atom   9O    basis set group =>   2
Atom  10O    basis set group =>   2
Atom  11H    basis set group =>   3
Atom  12C    basis set group =>   1
Atom  13H    basis set group =>   3
Atom  14H    basis set group =>   3
Atom  15H    basis set group =>   3
Atom  16H    basis set group =>   3
Atom  17H    basis set group =>   3
Atom  18H    basis set group =>   3
Atom  19H    basis set group =>   3
Atom  20H    basis set group =>   3
Atom  21O    basis set group =>   2
Atom  22H    basis set group =>   3
Atom  23H    basis set group =>   3


           ************************************************************
           *        Program running with 4 parallel MPI-processes     *
           *              working on a common directory               *
           ************************************************************
------------------------------------------------------------------------------
                           ORCA GTO INTEGRAL CALCULATION
                           -- RI-GTO INTEGRALS CHOSEN --
------------------------------------------------------------------------------
------------------------------------------------------------------------------
                   ___                                                        
                  /   \      - P O W E R E D   B Y -                         
                 /     \                                                     
                 |  |  |   _    _      __       _____    __    __             
                 |  |  |  | |  | |    /  \     |  _  \  |  |  /  |          
                  \  \/   | |  | |   /    \    | | | |  |  | /  /          
                 / \  \   | |__| |  /  /\  \   | |_| |  |  |/  /          
                |  |  |   |  __  | /  /__\  \  |    /   |      \           
                |  |  |   | |  | | |   __   |  |    \   |  |\   \          
                \     /   | |  | | |  |  |  |  | |\  \  |  | \   \       
                 \___/    |_|  |_| |__|  |__|  |_| \__\ |__|  \__/        
                                                                              
                      - O R C A' S   B I G   F R I E N D -                    
                                      &                                       
                       - I N T E G R A L  F E E D E R -                       
                                                                              
 v1 FN, 2020, v2 2021                                                         
------------------------------------------------------------------------------


Reading SHARK input file pbeh-3c.SHARKINP.tmp ... ok
----------------------
SHARK INTEGRAL PACKAGE
----------------------

Number of atoms                             ...     24
Number of basis functions                   ...    204
Number of shells                            ...    108
Maximum angular momentum                    ...      2
Integral batch strategy                     ... SHARK/LIBINT Hybrid
RI-J (if used) integral strategy            ... SPLIT-RIJ (Revised 2003 algorithm where possible)
Printlevel                                  ...      1
Contraction scheme used                     ... SEGMENTED contraction
Coulomb Range Separation                    ... NOT USED
Exchange Range Separation                   ... NOT USED
Finite Nucleus Model                        ... NOT USED
Auxiliary Coulomb fitting basis             ... AVAILABLE
   # of basis functions in Aux-J            ...    720
   # of shells in Aux-J                     ...    240
   Maximum angular momentum in Aux-J        ...      4
Auxiliary J/K fitting basis                 ... NOT available
Auxiliary Correlation fitting basis         ... NOT available
Auxiliary 'external' fitting basis          ... NOT available
Integral threshold                          ...     2.500000e-11
Primitive cut-off                           ...     2.500000e-12
Primitive pair pre-selection threshold      ...     2.500000e-12

Calculating pre-screening integrals         ... done (  0.1 sec) Dimension = 108
Organizing shell pair data                  ... done (  0.1 sec)
Shell pair information
Total number of shell pairs                 ...      5886
Shell pairs after pre-screening             ...      4902
Total number of primitive shell pairs       ...     21102
Primitive shell pairs kept                  ...     11884
          la=0 lb=0:   2016 shell pairs
          la=1 lb=0:   1552 shell pairs
          la=1 lb=1:    288 shell pairs
          la=2 lb=0:    707 shell pairs
          la=2 lb=1:    268 shell pairs
          la=2 lb=2:     71 shell pairs

Calculating one electron integrals          ... done (  0.0 sec)
Calculating RI/J V-Matrix + Cholesky decomp.... done (  0.3 sec)
Calculating Nuclear repulsion               ... done (  0.0 sec) ENN=    824.100039658392 Eh

SHARK setup successfully completed in   1.1 seconds

Maximum memory used throughout the entire GTOINT-calculation: 13.4 MB


           ************************************************************
           *        Program running with 4 parallel MPI-processes     *
           *              working on a common directory               *
           ************************************************************
-------------------------------------------------------------------------------
                                 ORCA SCF
-------------------------------------------------------------------------------

------------
SCF SETTINGS
------------
Hamiltonian:
 Density Functional     Method          .... DFT(GTOs)
 Exchange Functional    Exchange        .... PBE
   PBE kappa parameter   XKappa         ....  1.024500
   PBE mue parameter    XMuePBE         ....  0.123457
 Correlation Functional Correlation     .... PBE
   PBE beta parameter  CBetaPBE         ....  0.030000
 LDA part of GGA corr.  LDAOpt          .... PW91-LDA
 Gradients option       PostSCFGGA      .... off
 Hybrid DFT is turned on
   Fraction HF Exchange ScalHFX         ....  0.420000
   Scaling of DF-GGA-X  ScalDFX         ....  0.580000
   Scaling of DF-GGA-C  ScalDFC         ....  1.000000
   Scaling of DF-LDA-C  ScalLDAC        ....  1.000000
   Perturbative correction              ....  0.000000
   Density functional embedding theory  .... OFF
 RI-approximation to the Coulomb term is turned on
   Number of AuxJ basis functions       .... 720
   RIJ-ON(X) (HFX calculated with O(N)) .... on
   Number of AuxJ basis functions       .... 720
   RIJ-COSX (HFX calculated with COS-X)).... on


General Settings:
 Integral files         IntName         .... pbeh-3c
 Hartree-Fock type      HFTyp           .... RHF
 Total Charge           Charge          ....    0
 Multiplicity           Mult            ....    1
 Number of Electrons    NEL             ....   96
 Basis Dimension        Dim             ....  204
 Nuclear Repulsion      ENuc            ....    824.1000396584 Eh

Convergence Acceleration:
 DIIS                   CNVDIIS         .... on
   Start iteration      DIISMaxIt       ....    12
   Startup error        DIISStart       ....  0.200000
   # of expansion vecs  DIISMaxEq       ....     5
   Bias factor          DIISBfac        ....   1.050
   Max. coefficient     DIISMaxC        ....  10.000
 Trust-Rad. Augm. Hess. CNVTRAH         .... auto
   Auto Start mean grad. ratio tolernc. ....  1.125000
   Auto Start start iteration           ....    20
   Auto Start num. interpolation iter.  ....    10
   Max. Number of Micro iterations      ....    16
   Max. Number of Macro iterations      .... Maxiter - #DIIS iter
   Number of Davidson start vectors     ....     2
   Converg. threshold I  (grad. norm)   ....   1.000e-05
   Converg. threshold II (energy diff.) ....   1.000e-08
   Grad. Scal. Fac. for Micro threshold ....   0.100
   Minimum threshold for Micro iter.    ....   0.010
   NR start threshold (gradient norm)   ....   0.001
   Initial trust radius                 ....   0.400
   Minimum AH scaling param. (alpha)    ....   1.000
   Maximum AH scaling param. (alpha)    .... 1000.000
   Orbital update algorithm             .... Taylor
   White noise on init. David. guess    .... on
   Maximum white noise                  ....   0.010
   Quad. conv. algorithm                .... NR
   COSX micro iterations for RIJONX calc.... off
 SOSCF                  CNVSOSCF        .... on
   Start iteration      SOSCFMaxIt      ....   150
   Startup grad/error   SOSCFStart      ....  0.003300
 Level Shifting         CNVShift        .... on
   Level shift para.    LevelShift      ....    0.2500
   Turn off err/grad.   ShiftErr        ....    0.0010
 Zerner damping         CNVZerner       .... off
 Static damping         CNVDamp         .... on
   Fraction old density DampFac         ....    0.7000
   Max. Damping (<1)    DampMax         ....    0.9800
   Min. Damping (>=0)   DampMin         ....    0.0000
   Turn off err/grad.   DampErr         ....    0.1000
 Fernandez-Rico         CNVRico         .... off

SCF Procedure:
 Maximum # iterations   MaxIter         ....   125
 SCF integral mode      SCFMode         .... Direct
   Integral package                     .... SHARK and LIBINT hybrid scheme
 Reset frequency        DirectResetFreq ....    20
 Integral Threshold     Thresh          ....  2.500e-11 Eh
 Primitive CutOff       TCut            ....  2.500e-12 Eh

Convergence Tolerance:
 Convergence Check Mode ConvCheckMode   .... Total+1el-Energy
 Convergence forced     ConvForced      .... 0
 Energy Change          TolE            ....  1.000e-08 Eh
 1-El. energy change                    ....  1.000e-05 Eh
 Orbital Gradient       TolG            ....  1.000e-05
 Orbital Rotation angle TolX            ....  1.000e-05
 DIIS Error             TolErr          ....  5.000e-07


Diagonalization of the overlap matrix:
Smallest eigenvalue                        ... 3.009e-03
Time for diagonalization                   ...    0.008 sec
Threshold for overlap eigenvalues          ... 1.000e-08
Number of eigenvalues below threshold      ... 0
Time for construction of square roots      ...    0.089 sec
Total time needed                          ...    0.097 sec

--------------------------------
INITIAL GUESS: MINIMAL BASIS EHT
--------------------------------
The minimal basis has 72 functions
EHT matrix was diagonalized
Basis set overlap was calculated now projecting the orbitals
Using GuessMode=FMatrix for the initial guess
C*T matrix was formed
Effective Fockian was calculated
Effective Fockian was diagonalized
Initial density was built
                      ------------------
                      INITIAL GUESS DONE
                      ------------------
-------------------
DFT GRID GENERATION
-------------------

General Integration Accuracy     IntAcc      ... 4.959
Radial Grid Type                 RadialGrid  ... OptM3 with GC (2021)
Angular Grid (max. ang.)         AngularGrid ... 6 (Lebedev-590)
Angular grid pruning method      GridPruning ... 4 (adaptive)
Weight generation scheme         WeightScheme... Becke
Basis function cutoff            BFCut       ... 1.0000e-11
Integration weight cutoff        WCut        ... 1.0000e-14
Angular grids for H and He will be reduced by one unit
Partially contracted basis set               ... off
Rotationally invariant grid construction     ... off

Total number of grid points                  ...   273779
Total number of batches                      ...     4292
Average number of points per batch           ...       63
Average number of grid points per atom       ...    11407
Time for grid setup =    5.231 sec

--------------------
COSX GRID GENERATION
--------------------

GRIDX 1
-------
General Integration Accuracy     IntAcc      ... 4.020
Radial Grid Type                 RadialGrid  ... OptM3 with GC (2021)
Angular Grid (max. ang.)         AngularGrid ... 2 (Lebedev-110)
Angular grid pruning method      GridPruning ... 4 (adaptive)
Weight generation scheme         WeightScheme... Becke
Basis function cutoff            BFCut       ... 1.0000e-11
Integration weight cutoff        WCut        ... 1.0000e-14
Angular grids for H and He will be reduced by one unit
Partially contracted basis set               ... on
Rotationally invariant grid construction     ... off

Total number of grid points                  ...    30259
Total number of batches                      ...      486
Average number of points per batch           ...       62
Average number of grid points per atom       ...     1261
UseSFitting                                  ... on

GRIDX 2
-------
General Integration Accuracy     IntAcc      ... 4.338
Radial Grid Type                 RadialGrid  ... OptM3 with GC (2021)
Angular Grid (max. ang.)         AngularGrid ... 3 (Lebedev-194)
Angular grid pruning method      GridPruning ... 4 (adaptive)
Weight generation scheme         WeightScheme... Becke
Basis function cutoff            BFCut       ... 1.0000e-11
Integration weight cutoff        WCut        ... 1.0000e-14
Angular grids for H and He will be reduced by one unit
Partially contracted basis set               ... on
Rotationally invariant grid construction     ... off

Total number of grid points                  ...    66275
Total number of batches                      ...     1049
Average number of points per batch           ...       63
Average number of grid points per atom       ...     2761
UseSFitting                                  ... on

GRIDX 3
-------
General Integration Accuracy     IntAcc      ... 4.871
Radial Grid Type                 RadialGrid  ... OptM3 with GC (2021)
Angular Grid (max. ang.)         AngularGrid ... 4 (Lebedev-302)
Angular grid pruning method      GridPruning ... 4 (adaptive)
Weight generation scheme         WeightScheme... Becke
Basis function cutoff            BFCut       ... 1.0000e-11
Integration weight cutoff        WCut        ... 1.0000e-14
Angular grids for H and He will be reduced by one unit
Partially contracted basis set               ... on
Rotationally invariant grid construction     ... off

Total number of grid points                  ...   126091
Total number of batches                      ...     1978
Average number of points per batch           ...       63
Average number of grid points per atom       ...     5254
UseSFitting                                  ... on

Time for X-Grid setup             =    4.581 sec

--------------
SCF ITERATIONS
--------------
ITER       Energy         Delta-E        Max-DP      RMS-DP      [F,P]     Damp
               ***  Starting incremental Fock matrix formation  ***
  0   -683.7020009243   0.000000000000 0.17034963  0.00639742  0.4901370 0.7000
  1   -684.4763653509  -0.774364426595 0.09212596  0.00375113  0.2608332 0.7000
                               ***Turning on DIIS***
  2   -684.8708367759  -0.394471425032 0.04625073  0.00211477  0.1869518 0.7000
  3   -685.1385997687  -0.267762992764 0.02914411  0.00134511  0.1323968 0.7000
  4   -685.3293906532  -0.190790884537 0.06818119  0.00326498  0.0921633 0.0000
  5   -685.7875663985  -0.458175745249 0.00979307  0.00030551  0.0104343 0.0000
  6   -685.7881913579  -0.000624959476 0.00275147  0.00008060  0.0055764 0.0000
                      *** Initiating the SOSCF procedure ***
                           *** Shutting down DIIS ***
                      *** Re-Reading the Fockian *** 
                      *** Removing any level shift *** 
ITER      Energy       Delta-E        Grad      Rot      Max-DP    RMS-DP
  7   -685.78838615  -0.0001947919  0.000344  0.000344  0.000989  0.000038
               *** Restarting incremental Fock matrix formation ***
  8   -685.78839835  -0.0000122033  0.000120  0.000224  0.000555  0.000019
  9   -685.78840040  -0.0000020447  0.000042  0.000134  0.000251  0.000009
 10   -685.78840051  -0.0000001095  0.000031  0.000045  0.000113  0.000004
 11   -685.78840062  -0.0000001117  0.000006  0.000005  0.000022  0.000001
 12   -685.78840062   0.0000000017  0.000005  0.000002  0.000011  0.000000
                 **** Energy Check signals convergence ****
              ***Rediagonalizing the Fockian in SOSCF/NRSCF***

               *****************************************************
               *                     SUCCESS                       *
               *           SCF CONVERGED AFTER  13 CYCLES          *
               *****************************************************

Old exchange energy                            =    -35.631541804 Eh
New exchange energy                            =    -35.631549044 Eh
Exchange energy change after final integration =     -0.000007239 Eh
Total energy after final integration           =   -685.788407856 Eh
Final COS-X integration done in                =     9.553 sec

----------------
TOTAL SCF ENERGY
----------------

Total Energy       :         -685.78840786 Eh          -18661.25130 eV

Components:
Nuclear Repulsion  :          824.10003966 Eh           22424.90214 eV
Electronic Energy  :        -1509.88844751 Eh          -41086.15344 eV
One Electron Energy:        -2578.07594566 Eh          -70153.01299 eV
Two Electron Energy:         1068.18749815 Eh           29066.85956 eV
Max COSX asymmetry :            0.00000379 Eh               0.00010 eV

Virial components:
Potential Energy   :        -1366.65939852 Eh          -37188.69287 eV
Kinetic Energy     :          680.87099066 Eh           18527.44157 eV
Virial Ratio       :            2.00722225


DFT components:
N(Alpha)           :       48.000009092468 electrons
N(Beta)            :       48.000009092468 electrons
N(Total)           :       96.000018184936 electrons
E(X)               :      -47.429657672382 Eh       
E(C)               :       -4.310360669861 Eh       
E(XC)              :      -51.740018342243 Eh       
DFET-embed. en.    :        0.000000000000 Eh       

---------------
SCF CONVERGENCE
---------------

  Last Energy change         ...    3.5391e-10  Tolerance :   1.0000e-08
  Last MAX-Density change    ...    1.4433e-15  Tolerance :   1.0000e-07
  Last RMS-Density change    ...    4.4280e-17  Tolerance :   5.0000e-09
  Last Orbital Gradient      ...    1.3038e-07  Tolerance :   1.0000e-05
  Last Orbital Rotation      ...    1.7785e-07  Tolerance :   1.0000e-05

             **** THE GBW FILE WAS UPDATED (pbeh-3c.gbw) ****
             **** DENSITY pbeh-3c.scfp WAS UPDATED ****
             **** ENERGY FILE WAS UPDATED (pbeh-3c.en.tmp) ****
             **** THE GBW FILE WAS UPDATED (pbeh-3c.gbw) ****
             **** DENSITY pbeh-3c.scfp WAS UPDATED ****
----------------
ORBITAL ENERGIES
----------------

  NO   OCC          E(Eh)            E(eV) 
   0   2.0000     -19.518563      -531.1271 
   1   2.0000     -19.516334      -531.0665 
   2   2.0000     -19.510590      -530.9101 
   3   2.0000     -19.508992      -530.8667 
   4   2.0000     -19.505860      -530.7814 
   5   2.0000     -19.473569      -529.9028 
   6   2.0000     -10.554992      -287.2159 
   7   2.0000     -10.505001      -285.8556 
   8   2.0000     -10.504483      -285.8415 
   9   2.0000     -10.503386      -285.8117 
  10   2.0000     -10.503151      -285.8053 
  11   2.0000     -10.481289      -285.2104 
  12   2.0000      -1.195053       -32.5190 
  13   2.0000      -1.156693       -31.4752 
  14   2.0000      -1.145186       -31.1621 
  15   2.0000      -1.125945       -30.6385 
  16   2.0000      -1.124998       -30.6128 
  17   2.0000      -1.107512       -30.1369 
  18   2.0000      -0.883625       -24.0447 
  19   2.0000      -0.860503       -23.4155 
  20   2.0000      -0.769715       -20.9450 
  21   2.0000      -0.729489       -19.8504 
  22   2.0000      -0.696848       -18.9622 
  23   2.0000      -0.667901       -18.1745 
  24   2.0000      -0.632306       -17.2059 
  25   2.0000      -0.603459       -16.4210 
  26   2.0000      -0.591896       -16.1063 
  27   2.0000      -0.583436       -15.8761 
  28   2.0000      -0.565273       -15.3819 
  29   2.0000      -0.555934       -15.1277 
  30   2.0000      -0.527213       -14.3462 
  31   2.0000      -0.510974       -13.9043 
  32   2.0000      -0.500715       -13.6251 
  33   2.0000      -0.490467       -13.3463 
  34   2.0000      -0.476015       -12.9530 
  35   2.0000      -0.463653       -12.6166 
  36   2.0000      -0.446994       -12.1633 
  37   2.0000      -0.431712       -11.7475 
  38   2.0000      -0.428248       -11.6532 
  39   2.0000      -0.409926       -11.1547 
  40   2.0000      -0.401525       -10.9260 
  41   2.0000      -0.384363       -10.4591 
  42   2.0000      -0.363948        -9.9035 
  43   2.0000      -0.356722        -9.7069 
  44   2.0000      -0.346356        -9.4248 
  45   2.0000      -0.341255        -9.2860 
  46   2.0000      -0.322719        -8.7816 
  47   2.0000      -0.315351        -8.5811 
  48   0.0000       0.087433         2.3792 
  49   0.0000       0.105780         2.8784 
  50   0.0000       0.134394         3.6570 
  51   0.0000       0.143721         3.9108 
  52   0.0000       0.152570         4.1516 
  53   0.0000       0.169292         4.6067 
  54   0.0000       0.177375         4.8266 
  55   0.0000       0.183317         4.9883 
  56   0.0000       0.198127         5.3913 
  57   0.0000       0.207411         5.6440 
  58   0.0000       0.213386         5.8065 
  59   0.0000       0.221762         6.0345 
  60   0.0000       0.225381         6.1329 
  61   0.0000       0.239633         6.5207 
  62   0.0000       0.246930         6.7193 
  63   0.0000       0.252975         6.8838 
  64   0.0000       0.261824         7.1246 
  65   0.0000       0.283952         7.7267 
  66   0.0000       0.310285         8.4433 
  67   0.0000       0.314595         8.5606 
  68   0.0000       0.321611         8.7515 
  69   0.0000       0.340025         9.2526 
  70   0.0000       0.351113         9.5543 
  71   0.0000       0.399626        10.8744 
  72   0.0000       0.527992        14.3674 
  73   0.0000       0.545453        14.8425 
  74   0.0000       0.552837        15.0435 
  75   0.0000       0.570829        15.5331 
  76   0.0000       0.582880        15.8610 
  77   0.0000       0.586924        15.9710 
  78   0.0000       0.596997        16.2451 
  79   0.0000       0.616502        16.7759 
  80   0.0000       0.625366        17.0171 
  81   0.0000       0.637383        17.3441 
  82   0.0000       0.660325        17.9684 
  83   0.0000       0.667516        18.1640 
  84   0.0000       0.702111        19.1054 
  85   0.0000       0.708946        19.2914 
  86   0.0000       0.737037        20.0558 
  87   0.0000       0.756189        20.5770 
  88   0.0000       0.814988        22.1770 
  89   0.0000       0.822644        22.3853 
  90   0.0000       0.868803        23.6413 
  91   0.0000       0.883966        24.0539 
  92   0.0000       0.904480        24.6122 
  93   0.0000       0.920774        25.0555 
  94   0.0000       0.925142        25.1744 
  95   0.0000       0.942346        25.6425 
  96   0.0000       0.946798        25.7637 
  97   0.0000       0.983719        26.7683 
  98   0.0000       0.997442        27.1418 
  99   0.0000       1.012134        27.5416 
 100   0.0000       1.018432        27.7129 
 101   0.0000       1.028300        27.9815 
 102   0.0000       1.040375        28.3100 
 103   0.0000       1.047667        28.5085 
 104   0.0000       1.075931        29.2776 
 105   0.0000       1.091257        29.6946 
 106   0.0000       1.117126        30.3985 
 107   0.0000       1.119813        30.4717 
 108   0.0000       1.139930        31.0191 
 109   0.0000       1.159770        31.5589 
 110   0.0000       1.168699        31.8019 
 111   0.0000       1.175290        31.9813 
 112   0.0000       1.195208        32.5233 
 113   0.0000       1.230441        33.4820 
 114   0.0000       1.254921        34.1481 
 115   0.0000       1.269287        34.5391 
 116   0.0000       1.289515        35.0895 
 117   0.0000       1.317591        35.8535 
 118   0.0000       1.335043        36.3284 
 119   0.0000       1.368417        37.2365 
 120   0.0000       1.389649        37.8143 
 121   0.0000       1.399574        38.0844 
 122   0.0000       1.404390        38.2154 
 123   0.0000       1.446312        39.3562 
 124   0.0000       1.497287        40.7433 
 125   0.0000       1.502796        40.8932 
 126   0.0000       1.535967        41.7958 
 127   0.0000       1.542383        41.9704 
 128   0.0000       1.577231        42.9186 
 129   0.0000       1.627269        44.2802 
 130   0.0000       1.658751        45.1369 
 131   0.0000       1.673188        45.5298 
 132   0.0000       1.689735        45.9800 
 133   0.0000       1.734731        47.2044 
 134   0.0000       1.736750        47.2594 
 135   0.0000       1.784911        48.5699 
 136   0.0000       1.796251        48.8785 
 137   0.0000       1.802015        49.0353 
 138   0.0000       1.810964        49.2788 
 139   0.0000       1.834209        49.9114 
 140   0.0000       1.864833        50.7447 
 141   0.0000       1.872332        50.9487 
 142   0.0000       1.897412        51.6312 
 143   0.0000       1.912808        52.0501 
 144   0.0000       1.935621        52.6709 
 145   0.0000       1.950898        53.0866 
 146   0.0000       1.957358        53.2624 
 147   0.0000       1.971886        53.6577 
 148   0.0000       1.989825        54.1459 
 149   0.0000       2.029707        55.2311 
 150   0.0000       2.041825        55.5609 
 151   0.0000       2.043969        55.6192 
 152   0.0000       2.066326        56.2276 
 153   0.0000       2.076459        56.5033 
 154   0.0000       2.088228        56.8236 
 155   0.0000       2.113489        57.5110 
 156   0.0000       2.131598        58.0037 
 157   0.0000       2.147985        58.4497 
 158   0.0000       2.151015        58.5321 
 159   0.0000       2.166832        58.9625 
 160   0.0000       2.181596        59.3642 
 161   0.0000       2.211849        60.1875 
 162   0.0000       2.229383        60.6646 
 163   0.0000       2.264501        61.6202 
 164   0.0000       2.282459        62.1089 
 165   0.0000       2.338500        63.6338 
 166   0.0000       2.368064        64.4383 
 167   0.0000       2.379619        64.7527 
 168   0.0000       2.430321        66.1324 
 169   0.0000       2.473757        67.3143 
 170   0.0000       2.517913        68.5159 
 171   0.0000       2.521437        68.6118 
 172   0.0000       2.540571        69.1324 
 173   0.0000       2.565354        69.8068 
 174   0.0000       2.584376        70.3244 
 175   0.0000       2.591797        70.5264 
 176   0.0000       2.632733        71.6403 
 177   0.0000       2.637955        71.7824 
 178   0.0000       2.655537        72.2608 
 179   0.0000       2.691125        73.2292 
 180   0.0000       2.700976        73.4973 
 181   0.0000       2.738381        74.5151 
 182   0.0000       2.757277        75.0293 
 183   0.0000       2.814345        76.5822 
 184   0.0000       2.884224        78.4837 
 185   0.0000       2.904816        79.0441 
 186   0.0000       2.938116        79.9502 
 187   0.0000       3.007512        81.8386 
 188   0.0000       3.020660        82.1963 
 189   0.0000       3.035835        82.6093 
 190   0.0000       3.060122        83.2702 
 191   0.0000       3.120230        84.9058 
 192   0.0000      13.556033       368.8784 
 193   0.0000      13.772145       374.7591 
 194   0.0000      13.915961       378.6725 
 195   0.0000      14.005096       381.0980 
 196   0.0000      14.120027       384.2255 
 197   0.0000      14.205507       386.5515 
 198   0.0000      25.501474       693.9304 
 199   0.0000      25.550570       695.2664 
 200   0.0000      25.560810       695.5450 
 201   0.0000      25.701580       699.3755 
 202   0.0000      25.726150       700.0441 
 203   0.0000      25.816636       702.5064 

                    ********************************
                    * MULLIKEN POPULATION ANALYSIS *
                    ********************************

-----------------------
MULLIKEN ATOMIC CHARGES
-----------------------
   0 C :    0.282488
   1 O :   -0.493844
   2 C :   -0.014173
   3 C :    0.045129
   4 C :   -0.024955
   5 C :   -0.004418
   6 H :    0.213547
   7 O :   -0.653072
   8 O :   -0.648538
   9 O :   -0.637419
  10 O :   -0.664206
  11 H :    0.433321
  12 C :   -0.154626
  13 H :    0.432752
  14 H :    0.441842
  15 H :    0.435706
  16 H :    0.224019
  17 H :    0.206989
  18 H :    0.223210
  19 H :    0.169454
  20 H :    0.210307
  21 O :   -0.640286
  22 H :    0.434912
  23 H :    0.181862
Sum of atomic charges:   -0.0000000

--------------------------------
MULLIKEN REDUCED ORBITAL CHARGES
--------------------------------
  0 C s       :     3.112711  s :     3.112711
      pz      :     0.971573  p :     2.503074
      px      :     0.675885
      py      :     0.855616
      dz2     :     0.025558  d :     0.101727
      dxz     :     0.017658
      dyz     :     0.010968
      dx2y2   :     0.022735
      dxy     :     0.024808
  1 O s       :     3.813716  s :     3.813716
      pz      :     1.748206  p :     4.650252
      px      :     1.251730
      py      :     1.650317
      dz2     :     0.004203  d :     0.029876
      dxz     :     0.006960
      dyz     :     0.004555
      dx2y2   :     0.005889
      dxy     :     0.008268
  2 C s       :     3.225723  s :     3.225723
      pz      :     1.059384  p :     2.718553
      px      :     0.829553
      py      :     0.829616
      dz2     :     0.019297  d :     0.069897
      dxz     :     0.009800
      dyz     :     0.008341
      dx2y2   :     0.015289
      dxy     :     0.017168
  3 C s       :     3.203086  s :     3.203086
      pz      :     1.033021  p :     2.680930
      px      :     0.813349
      py      :     0.834560
      dz2     :     0.020009  d :     0.070855
      dxz     :     0.009744
      dyz     :     0.009380
      dx2y2   :     0.015769
      dxy     :     0.015953
  4 C s       :     3.213418  s :     3.213418
      pz      :     1.036078  p :     2.740844
      px      :     0.764748
      py      :     0.940018
      dz2     :     0.019896  d :     0.070693
      dxz     :     0.013244
      dyz     :     0.006276
      dx2y2   :     0.013898
      dxy     :     0.017379
  5 C s       :     3.218237  s :     3.218237
      pz      :     1.022486  p :     2.714499
      px      :     0.940607
      py      :     0.751406
      dz2     :     0.020549  d :     0.071682
      dxz     :     0.006364
      dyz     :     0.013038
      dx2y2   :     0.016150
      dxy     :     0.015580
  6 H s       :     0.786453  s :     0.786453
  7 O s       :     3.824435  s :     3.824435
      pz      :     1.805205  p :     4.800342
      px      :     1.509203
      py      :     1.485935
      dz2     :     0.003737  d :     0.028294
      dxz     :     0.004570
      dyz     :     0.005922
      dx2y2   :     0.010573
      dxy     :     0.003492
  8 O s       :     3.824778  s :     3.824778
      pz      :     1.800927  p :     4.795300
      px      :     1.304525
      py      :     1.689847
      dz2     :     0.003840  d :     0.028460
      dxz     :     0.006101
      dyz     :     0.004425
      dx2y2   :     0.002936
      dxy     :     0.011159
  9 O s       :     3.817329  s :     3.817329
      pz      :     1.805381  p :     4.791140
      px      :     1.689725
      py      :     1.296035
      dz2     :     0.003856  d :     0.028949
      dxz     :     0.005159
      dyz     :     0.005922
      dx2y2   :     0.006291
      dxy     :     0.007721
 10 O s       :     3.825503  s :     3.825503
      pz      :     1.845525  p :     4.811047
      px      :     1.646740
      py      :     1.318783
      dz2     :     0.004006  d :     0.027656
      dxz     :     0.004474
      dyz     :     0.003987
      dx2y2   :     0.006721
      dxy     :     0.008467
 11 H s       :     0.566679  s :     0.566679
 12 C s       :     3.268860  s :     3.268860
      pz      :     1.005209  p :     2.818037
      px      :     0.773538
      py      :     1.039290
      dz2     :     0.020527  d :     0.067729
      dxz     :     0.012447
      dyz     :     0.005362
      dx2y2   :     0.018384
      dxy     :     0.011009
 13 H s       :     0.567248  s :     0.567248
 14 H s       :     0.558158  s :     0.558158
 15 H s       :     0.564294  s :     0.564294
 16 H s       :     0.775981  s :     0.775981
 17 H s       :     0.793011  s :     0.793011
 18 H s       :     0.776790  s :     0.776790
 19 H s       :     0.830546  s :     0.830546
 20 H s       :     0.789693  s :     0.789693
 21 O s       :     3.812868  s :     3.812868
      pz      :     1.809994  p :     4.798562
      px      :     1.613783
      py      :     1.374785
      dz2     :     0.005043  d :     0.028856
      dxz     :     0.005788
      dyz     :     0.001861
      dx2y2   :     0.011381
      dxy     :     0.004782
 22 H s       :     0.565088  s :     0.565088
 23 H s       :     0.818138  s :     0.818138


                     *******************************
                     * LOEWDIN POPULATION ANALYSIS *
                     *******************************

----------------------
LOEWDIN ATOMIC CHARGES
----------------------
   0 C :    0.073794
   1 O :   -0.248864
   2 C :   -0.031395
   3 C :   -0.031151
   4 C :   -0.053705
   5 C :   -0.039256
   6 H :    0.117591
   7 O :   -0.403225
   8 O :   -0.400510
   9 O :   -0.373764
  10 O :   -0.399464
  11 H :    0.323585
  12 C :   -0.086431
  13 H :    0.324971
  14 H :    0.327076
  15 H :    0.324900
  16 H :    0.127397
  17 H :    0.116903
  18 H :    0.123989
  19 H :    0.089774
  20 H :    0.117358
  21 O :   -0.413953
  22 H :    0.311119
  23 H :    0.103260

-------------------------------
LOEWDIN REDUCED ORBITAL CHARGES
-------------------------------
  0 C s       :     2.866732  s :     2.866732
      pz      :     1.041623  p :     2.833187
      px      :     0.824907
      py      :     0.966657
      dz2     :     0.054226  d :     0.226288
      dxz     :     0.039776
      dyz     :     0.023318
      dx2y2   :     0.053159
      dxy     :     0.055809
  1 O s       :     3.469155  s :     3.469155
      pz      :     1.771897  p :     4.714234
      px      :     1.287255
      py      :     1.655082
      dz2     :     0.008274  d :     0.065475
      dxz     :     0.016113
      dyz     :     0.006928
      dx2y2   :     0.015321
      dxy     :     0.018840
  2 C s       :     2.887299  s :     2.887299
      pz      :     1.081919  p :     2.990137
      px      :     0.949249
      py      :     0.958969
      dz2     :     0.038549  d :     0.153959
      dxz     :     0.021347
      dyz     :     0.018977
      dx2y2   :     0.036049
      dxy     :     0.039036
  3 C s       :     2.881736  s :     2.881736
      pz      :     1.075973  p :     2.991767
      px      :     0.952614
      py      :     0.963181
      dz2     :     0.040282  d :     0.157648
      dxz     :     0.021983
      dyz     :     0.021007
      dx2y2   :     0.037792
      dxy     :     0.036584
  4 C s       :     2.886772  s :     2.886772
      pz      :     1.066996  p :     3.008384
      px      :     0.891803
      py      :     1.049584
      dz2     :     0.040381  d :     0.158549
      dxz     :     0.030296
      dyz     :     0.013481
      dx2y2   :     0.032028
      dxy     :     0.042363
  5 C s       :     2.876986  s :     2.876986
      pz      :     1.063619  p :     3.002234
      px      :     1.049228
      py      :     0.889388
      dz2     :     0.041657  d :     0.160036
      dxz     :     0.013477
      dyz     :     0.029793
      dx2y2   :     0.037378
      dxy     :     0.037731
  6 H s       :     0.882409  s :     0.882409
  7 O s       :     3.520040  s :     3.520040
      pz      :     1.823955  p :     4.833318
      px      :     1.499706
      py      :     1.509657
      dz2     :     0.006323  d :     0.049866
      dxz     :     0.005902
      dyz     :     0.010784
      dx2y2   :     0.018239
      dxy     :     0.008618
  8 O s       :     3.521186  s :     3.521186
      pz      :     1.819570  p :     4.828943
      px      :     1.325157
      py      :     1.684216
      dz2     :     0.006595  d :     0.050381
      dxz     :     0.011617
      dyz     :     0.005260
      dx2y2   :     0.007285
      dxy     :     0.019623
  9 O s       :     3.511115  s :     3.511115
      pz      :     1.817645  p :     4.811712
      px      :     1.690958
      py      :     1.303109
      dz2     :     0.006415  d :     0.050936
      dxz     :     0.007484
      dyz     :     0.010321
      dx2y2   :     0.012552
      dxy     :     0.014164
 10 O s       :     3.517215  s :     3.517215
      pz      :     1.859539  p :     4.833118
      px      :     1.653247
      py      :     1.320333
      dz2     :     0.006311  d :     0.049131
      dxz     :     0.006713
      dyz     :     0.007203
      dx2y2   :     0.013877
      dxy     :     0.015028
 11 H s       :     0.676415  s :     0.676415
 12 C s       :     2.911644  s :     2.911644
      pz      :     1.058716  p :     3.031654
      px      :     0.917799
      py      :     1.055139
      dz2     :     0.040749  d :     0.143134
      dxz     :     0.028261
      dyz     :     0.010323
      dx2y2   :     0.039277
      dxy     :     0.024523
 13 H s       :     0.675029  s :     0.675029
 14 H s       :     0.672924  s :     0.672924
 15 H s       :     0.675100  s :     0.675100
 16 H s       :     0.872603  s :     0.872603
 17 H s       :     0.883097  s :     0.883097
 18 H s       :     0.876011  s :     0.876011
 19 H s       :     0.910226  s :     0.910226
 20 H s       :     0.882642  s :     0.882642
 21 O s       :     3.522233  s :     3.522233
      pz      :     1.828786  p :     4.841648
      px      :     1.632328
      py      :     1.380533
      dz2     :     0.007951  d :     0.050073
      dxz     :     0.009620
      dyz     :     0.003812
      dx2y2   :     0.019431
      dxy     :     0.009259
 22 H s       :     0.688881  s :     0.688881
 23 H s       :     0.896740  s :     0.896740


                      *****************************
                      * MAYER POPULATION ANALYSIS *
                      *****************************

  NA   - Mulliken gross atomic population
  ZA   - Total nuclear charge
  QA   - Mulliken gross atomic charge
  VA   - Mayer's total valence
  BVA  - Mayer's bonded valence
  FA   - Mayer's free valence

  ATOM       NA         ZA         QA         VA         BVA        FA
  0 C      5.7175     6.0000     0.2825     3.8103     3.8103    -0.0000
  1 O      8.4938     8.0000    -0.4938     1.9791     1.9791    -0.0000
  2 C      6.0142     6.0000    -0.0142     3.6742     3.6742    -0.0000
  3 C      5.9549     6.0000     0.0451     3.6845     3.6845    -0.0000
  4 C      6.0250     6.0000    -0.0250     3.7274     3.7274    -0.0000
  5 C      6.0044     6.0000    -0.0044     3.7735     3.7735    -0.0000
  6 H      0.7865     1.0000     0.2135     0.9012     0.9012    -0.0000
  7 O      8.6531     8.0000    -0.6531     1.8523     1.8523    -0.0000
  8 O      8.6485     8.0000    -0.6485     1.8515     1.8515    -0.0000
  9 O      8.6374     8.0000    -0.6374     1.8912     1.8912     0.0000
 10 O      8.6642     8.0000    -0.6642     1.8513     1.8513    -0.0000
 11 H      0.5667     1.0000     0.4333     0.7959     0.7959    -0.0000
 12 C      6.1546     6.0000    -0.1546     3.8061     3.8061    -0.0000
 13 H      0.5672     1.0000     0.4328     0.7945     0.7945     0.0000
 14 H      0.5582     1.0000     0.4418     0.7922     0.7922    -0.0000
 15 H      0.5643     1.0000     0.4357     0.7951     0.7951    -0.0000
 16 H      0.7760     1.0000     0.2240     0.9068     0.9068    -0.0000
 17 H      0.7930     1.0000     0.2070     0.9024     0.9024    -0.0000
 18 H      0.7768     1.0000     0.2232     0.8980     0.8980     0.0000
 19 H      0.8305     1.0000     0.1695     0.9070     0.9070    -0.0000
 20 H      0.7897     1.0000     0.2103     0.8990     0.8990     0.0000
 21 O      8.6403     8.0000    -0.6403     1.8463     1.8463     0.0000
 22 H      0.5651     1.0000     0.4349     0.8078     0.8078     0.0000
 23 H      0.8181     1.0000     0.1819     0.9084     0.9084    -0.0000

  Mayer bond orders larger than 0.100000
B(  0-C ,  1-O ) :   0.9609 B(  0-C ,  4-C ) :   0.8959 B(  0-C ,  9-O ) :   1.0635 
B(  0-C , 19-H ) :   0.8817 B(  1-O ,  2-C ) :   0.9230 B(  2-C ,  3-C ) :   0.9177 
B(  2-C ,  6-H ) :   0.8765 B(  2-C , 12-C ) :   0.9668 B(  3-C ,  5-C ) :   0.9558 
B(  3-C , 10-O ) :   0.9655 B(  3-C , 20-H ) :   0.8795 B(  4-C ,  5-C ) :   0.9373 
B(  4-C ,  8-O ) :   1.0065 B(  4-C , 18-H ) :   0.8751 B(  5-C ,  7-O ) :   1.0076 
B(  5-C , 17-H ) :   0.8805 B(  7-O , 15-H ) :   0.7696 B(  8-O , 11-H ) :   0.7731 
B(  9-O , 13-H ) :   0.7748 B( 10-O , 14-H ) :   0.7612 B( 12-C , 16-H ) :   0.9116 
B( 12-C , 21-O ) :   1.0445 B( 12-C , 23-H ) :   0.9003 B( 21-O , 22-H ) :   0.7432 


-------
TIMINGS
-------

Total SCF time: 0 days 0 hours 2 min 3 sec 

Total time                  ....     123.899 sec
Sum of individual times     ....     118.285 sec  ( 95.5%)

Fock matrix formation       ....     104.672 sec  ( 84.5%)
  Split-RI-J                ....       8.890 sec  (  8.5% of F)
  Chain of spheres X        ....      59.122 sec  ( 56.5% of F)
  XC integration            ....      25.437 sec  ( 24.3% of F)
    Basis function eval.    ....       5.910 sec  ( 23.2% of XC)
    Density eval.           ....       3.978 sec  ( 15.6% of XC)
    XC-Functional eval.     ....       1.973 sec  (  7.8% of XC)
    XC-Potential eval.      ....       2.094 sec  (  8.2% of XC)
Diagonalization             ....       0.598 sec  (  0.5%)
Density matrix formation    ....       0.110 sec  (  0.1%)
Population analysis         ....       0.358 sec  (  0.3%)
Initial guess               ....       0.049 sec  (  0.0%)
Orbital Transformation      ....       0.000 sec  (  0.0%)
Orbital Orthonormalization  ....       0.000 sec  (  0.0%)
DIIS solution               ....       1.962 sec  (  1.6%)
SOSCF solution              ....       0.724 sec  (  0.6%)
Grid generation             ....       9.812 sec  (  7.9%)

Maximum memory used throughout the entire SCF-calculation: 66.8 MB


-------------------------------------------------------------------------------
                          DFT DISPERSION CORRECTION                            
                                                                               
                              DFTD3 V3.1  Rev 1                                
                          USING Becke-Johnson damping                          
-------------------------------------------------------------------------------
The PBEh-3c composite method is recognized
Using three-body term ABC
Active option DFTDOPT                   ...         4   

molecular C6(AA) [au] = 4309.641621 


            DFT-D V3
 parameters
 s6 scaling factor         :     1.0000 
 a1 scaling factor         :     0.4860 
 s8 scaling factor         :     0.0000 
 a2 scaling factor         :     4.5000 
 Damping factor alpha9(ATM):    16.0000 
 ad hoc parameters k1-k3   :    16.0000     1.3333    -4.0000 

 Edisp/kcal,au: -8.483060527129  -0.013518616010 
 E6   /kcal   :  -8.563398158 
 E8   /kcal   :  -0.000000000 
 E6(ABC)      :   0.080337630 
 % E8         :   0.000000000 
 % E6(ABC)    :  -0.947035921 

-------------------------   ----------------
Dispersion correction           -0.013518616
-------------------------   ----------------

------------------   -----------------
gCP correction             0.086991923
------------------   -----------------

-------------------------   --------------------
FINAL SINGLE POINT ENERGY      -685.714934548884
-------------------------   --------------------


                            ***************************************
                            *     ORCA property calculations      *
                            ***************************************

                                    ---------------------
                                    Active property flags
                                    ---------------------
   (+) Dipole Moment


------------------------------------------------------------------------------
                       ORCA ELECTRIC PROPERTIES CALCULATION
------------------------------------------------------------------------------

Dipole Moment Calculation                       ... on
Quadrupole Moment Calculation                   ... off
Polarizability Calculation                      ... off
GBWName                                         ... pbeh-3c.gbw
Electron density                                ... pbeh-3c.scfp
The origin for moment calculation is the CENTER OF MASS  = (-0.078929,  0.025072  0.008612)

-------------
DIPOLE MOMENT
-------------
                                X             Y             Z
Electronic contribution:     -2.02887       0.12384       0.04699
Nuclear contribution   :      0.80927      -0.11701      -0.13544
                        -----------------------------------------
Total Dipole Moment    :     -1.21960       0.00683      -0.08845
                        -----------------------------------------
Magnitude (a.u.)       :      1.22282
Magnitude (Debye)      :      3.10816



--------------------
Rotational spectrum 
--------------------
 
Rotational constants in cm-1:     0.043637     0.024222     0.016294 
Rotational constants in MHz :  1308.197084   726.168975   488.468017 

 Dipole components along the rotational axes: 
x,y,z [a.u.] :    -1.219140    -0.011523    -0.094089 
x,y,z [Debye]:    -3.098807    -0.029289    -0.239155 

 

Timings for individual modules:

Sum of individual times         ...      126.045 sec (=   2.101 min)
GTO integral calculation        ...        1.617 sec (=   0.027 min)   1.3 %
SCF iterations                  ...      124.427 sec (=   2.074 min)  98.7 %
                             ****ORCA TERMINATED NORMALLY****
TOTAL RUN TIME: 0 days 0 hours 2 minutes 9 seconds 211 msec
