
                                 *****************
                                 * O   R   C   A *
                                 *****************

                                            #,                                       
                                            ###                                      
                                            ####                                     
                                            #####                                    
                                            ######                                   
                                           ########,                                 
                                     ,,################,,,,,                         
                               ,,#################################,,                 
                          ,,##########################################,,             
                       ,#########################################, ''#####,          
                    ,#############################################,,   '####,        
                  ,##################################################,,,,####,       
                ,###########''''           ''''###############################       
              ,#####''   ,,,,##########,,,,          '''####'''          '####       
            ,##' ,,,,###########################,,,                        '##       
           ' ,,###''''                  '''############,,,                           
         ,,##''                                '''############,,,,        ,,,,,,###''
      ,#''                                            '''#######################'''  
     '                                                          ''''####''''         
             ,#######,   #######,   ,#######,      ##                                
            ,#'     '#,  ##    ##  ,#'     '#,    #''#        ######   ,####,        
            ##       ##  ##   ,#'  ##            #'  '#       #        #'  '#        
            ##       ##  #######   ##           ,######,      #####,   #    #        
            '#,     ,#'  ##    ##  '#,     ,#' ,#      #,         ##   #,  ,#        
             '#######'   ##     ##  '#######'  #'      '#     #####' # '####'        



                  #######################################################
                  #                        -***-                        #
                  #          Department of theory and spectroscopy      #
                  #    Directorship and core code : Frank Neese         #
                  #        Max Planck Institute fuer Kohlenforschung    #
                  #                Kaiser Wilhelm Platz 1               #
                  #                 D-45470 Muelheim/Ruhr               #
                  #                      Germany                        #
                  #                                                     #
                  #                  All rights reserved                #
                  #                        -***-                        #
                  #######################################################


                         Program Version 5.0.3 -  RELEASE  -


 With contributions from (in alphabetic order):
   Daniel Aravena         : Magnetic Suceptibility
   Michael Atanasov       : Ab Initio Ligand Field Theory (pilot matlab implementation)
   Alexander A. Auer      : GIAO ZORA, VPT2 properties, NMR spectrum
   Ute Becker             : Parallelization
   Giovanni Bistoni       : ED, misc. LED, open-shell LED, HFLD
   Martin Brehm           : Molecular dynamics
   Dmytro Bykov           : SCF Hessian
   Vijay G. Chilkuri      : MRCI spin determinant printing, contributions to CSF-ICE
   Dipayan Datta          : RHF DLPNO-CCSD density
   Achintya Kumar Dutta   : EOM-CC, STEOM-CC
   Dmitry Ganyushin       : Spin-Orbit,Spin-Spin,Magnetic field MRCI
   Miquel Garcia          : C-PCM and meta-GGA Hessian, CC/C-PCM, Gaussian charge scheme
   Yang Guo               : DLPNO-NEVPT2, F12-NEVPT2, CIM, IAO-localization
   Andreas Hansen         : Spin unrestricted coupled pair/coupled cluster methods
   Benjamin Helmich-Paris : MC-RPA, TRAH-SCF, COSX integrals
   Lee Huntington         : MR-EOM, pCC
   Robert Izsak           : Overlap fitted RIJCOSX, COSX-SCS-MP3, EOM
   Marcus Kettner         : VPT2
   Christian Kollmar      : KDIIS, OOCD, Brueckner-CCSD(T), CCSD density, CASPT2, CASPT2-K
   Simone Kossmann        : Meta GGA functionals, TD-DFT gradient, OOMP2, MP2 Hessian
   Martin Krupicka        : Initial AUTO-CI
   Lucas Lang             : DCDCAS
   Marvin Lechner         : AUTO-CI (C++ implementation), FIC-MRCC
   Dagmar Lenk            : GEPOL surface, SMD
   Dimitrios Liakos       : Extrapolation schemes; Compound Job, initial MDCI parallelization
   Dimitrios Manganas     : Further ROCIS development; embedding schemes
   Dimitrios Pantazis     : SARC Basis sets
   Anastasios Papadopoulos: AUTO-CI, single reference methods and gradients
   Taras Petrenko         : DFT Hessian,TD-DFT gradient, ASA, ECA, R-Raman, ABS, FL, XAS/XES, NRVS
   Peter Pinski           : DLPNO-MP2, DLPNO-MP2 Gradient
   Christoph Reimann      : Effective Core Potentials
   Marius Retegan         : Local ZFS, SOC
   Christoph Riplinger    : Optimizer, TS searches, QM/MM, DLPNO-CCSD(T), (RO)-DLPNO pert. Triples
   Tobias Risthaus        : Range-separated hybrids, TD-DFT gradient, RPA, STAB
   Michael Roemelt        : Original ROCIS implementation
   Masaaki Saitow         : Open-shell DLPNO-CCSD energy and density
   Barbara Sandhoefer     : DKH picture change effects
   Avijit Sen             : IP-ROCIS
   Kantharuban Sivalingam : CASSCF convergence, NEVPT2, FIC-MRCI
   Bernardo de Souza      : ESD, SOC TD-DFT
   Georgi Stoychev        : AutoAux, RI-MP2 NMR, DLPNO-MP2 response
   Willem Van den Heuvel  : Paramagnetic NMR
   Boris Wezisla          : Elementary symmetry handling
   Frank Wennmohs         : Technical directorship


 We gratefully acknowledge several colleagues who have allowed us to
 interface, adapt or use parts of their codes:
   Stefan Grimme, W. Hujo, H. Kruse, P. Pracht,  : VdW corrections, initial TS optimization,
                  C. Bannwarth, S. Ehlert          DFT functionals, gCP, sTDA/sTD-DF
   Ed Valeev, F. Pavosevic, A. Kumar             : LibInt (2-el integral package), F12 methods
   Garnet Chan, S. Sharma, J. Yang, R. Olivares  : DMRG
   Ulf Ekstrom                                   : XCFun DFT Library
   Mihaly Kallay                                 : mrcc  (arbitrary order and MRCC methods)
   Jiri Pittner, Ondrej Demel                    : Mk-CCSD
   Frank Weinhold                                : gennbo (NPA and NBO analysis)
   Christopher J. Cramer and Donald G. Truhlar   : smd solvation model
   Lars Goerigk                                  : TD-DFT with DH, B97 family of functionals
   V. Asgeirsson, H. Jonsson                     : NEB implementation
   FAccTs GmbH                                   : IRC, NEB, NEB-TS, DLPNO-Multilevel, CI-OPT
                                                   MM, QMMM, 2- and 3-layer-ONIOM, Crystal-QMMM,
                                                   LR-CPCM, SF, NACMEs, symmetry and pop. for TD-DFT,
                                                   nearIR, NL-DFT gradient (VV10), updates on ESD,
                                                   ML-optimized integration grids
   S Lehtola, MJT Oliveira, MAL Marques          : LibXC Library
   Liviu Ungur et al                             : ANISO software


 Your calculation uses the libint2 library for the computation of 2-el integrals
 For citations please refer to: http://libint.valeyev.net

 Your ORCA version has been built with support for libXC version: 5.1.0
 For citations please refer to: https://tddft.org/programs/libxc/

 This ORCA versions uses:
   CBLAS   interface :  Fast vector & matrix operations
   LAPACKE interface :  Fast linear algebra routines
   SCALAPACK package :  Parallel linear algebra routines
   Shared memory     :  Shared parallel matrices
   BLAS/LAPACK       :  OpenBLAS 0.3.15  USE64BITINT DYNAMIC_ARCH NO_AFFINITY Haswell SINGLE_THREADED
        Core in use  :  Haswell
   Copyright (c) 2011-2014, The OpenBLAS Project




***************************************
The coordinates will be read from file: 6b.xyz
***************************************


Your calculation utilizes the geometrical counterpoise correction gCP
Please cite in your paper:
H.Kruse, S. Grimme J.Chem.Phys., 136, (2012), 154101 
   

Your calculation utilizes the atom-pairwise dispersion correction
with the Becke-Johnson damping scheme (D3BJ)
Cite in your paper:
S.Grimme, S.Ehrlich, L.Goerigk, J Comput Chem, (2011), 32, 1456–1465 
S.Grimme, J.Antony, S.Ehrlich and H.Krieg, J.Chem.Phys., 132, (2010), 154104 
   

Your calculation employs the composite approach PBEh-3c.
Please cite in your paper:
S. Grimme, J. G. Brandenburg, C. Bannwarth, A. Hansen J.Chem.Phys., 143, (2015), 054107 
   

================================================================================

----- Orbital basis set information -----
Your calculation utilizes the basis: def2-mSVP

----- AuxJ basis set information -----
Your calculation utilizes the auxiliary basis: def2/J
   F. Weigend, Phys. Chem. Chem. Phys. 8, 1057 (2006).

================================================================================
                                        WARNINGS
                       Please study these warnings very carefully!
================================================================================


INFO   : the flag for use of the SHARK integral package has been found!

================================================================================
                                       INPUT FILE
================================================================================
NAME = pbeh-3c.inp
|  1> ! PBEh-3c def2/J TightSCF DefGrid3
|  2> 
|  3> %maxcore 60000
|  4> 
|  5> %pal
|  6> nprocs 4
|  7> end
|  8> 
|  9> *xyzfile 0 1 6b.xyz
| 10> 
| 11>                          ****END OF INPUT****
================================================================================

                       ****************************
                       * Single Point Calculation *
                       ****************************

---------------------------------
CARTESIAN COORDINATES (ANGSTROEM)
---------------------------------
  C     -2.867608   -0.192246    0.027734
  N     -2.063983    0.918368   -0.003392
  H     -2.351065    1.881727   -0.016758
  C     -0.774340    0.472843   -0.016498
  C     -0.872669   -0.910711    0.010076
  N     -2.185457   -1.315860    0.036613
  C      0.337505   -1.687553   -0.006611
  O      0.512329   -2.888204   -0.002162
  N      1.457263   -0.809058   -0.043346
  H      2.343190   -1.285310   -0.128537
  C      1.429028    0.555594   -0.056300
  N      0.334449    1.259971   -0.035479
  N      2.648973    1.186700   -0.155128
  H     -3.940959   -0.116118    0.042776
  H      3.414811    0.753511    0.332506
  H      2.578532    2.176346    0.014506

----------------------------
CARTESIAN COORDINATES (A.U.)
----------------------------
  NO LB      ZA    FRAG     MASS         X           Y           Z
   0 C     6.0000    0    12.011   -5.418993   -0.363293    0.052409
   1 N     7.0000    0    14.007   -3.900362    1.735465   -0.006411
   2 H     1.0000    0     1.008   -4.442869    3.555948   -0.031667
   3 C     6.0000    0    12.011   -1.463291    0.893543   -0.031176
   4 C     6.0000    0    12.011   -1.649105   -1.720995    0.019041
   5 N     7.0000    0    14.007   -4.129915   -2.486616    0.069189
   6 C     6.0000    0    12.011    0.637793   -3.189012   -0.012494
   7 O     8.0000    0    15.999    0.968161   -5.457914   -0.004085
   8 N     7.0000    0    14.007    2.753828   -1.528898   -0.081911
   9 H     1.0000    0     1.008    4.427988   -2.428883   -0.242900
  10 C     6.0000    0    12.011    2.700472    1.049921   -0.106393
  11 N     7.0000    0    14.007    0.632018    2.380999   -0.067046
  12 N     7.0000    0    14.007    5.005833    2.242537   -0.293149
  13 H     1.0000    0     1.008   -7.447333   -0.219431    0.080835
  14 H     1.0000    0     1.008    6.453058    1.423929    0.628345
  15 H     1.0000    0     1.008    4.872719    4.112699    0.027413

--------------------------------
INTERNAL COORDINATES (ANGSTROEM)
--------------------------------
 C      0   0   0     0.000000000000     0.00000000     0.00000000
 N      1   0   0     1.371220582906     0.00000000     0.00000000
 H      2   1   0     1.005312914173   127.52350586     0.00000000
 C      2   1   3     1.364493562204   106.83852718   180.14299371
 C      4   2   1     1.387297924686   104.97862583   359.90891399
 N      1   2   3     1.314502524135   112.85171210   179.91026359
 C      5   4   2     1.438152812662   118.60992321   179.50718948
 O      7   5   4     1.213320328028   130.97495392   180.75729776
 N      7   5   4     1.423713310497   109.19714743     0.27900829
 H      9   7   5     1.009425892028   113.66152855   184.44889256
 C      9   7   5     1.365005741459   126.93158872     0.24178415
 N     11   9   7     1.301799479179   123.92997098     0.02965116
 N     11   9   7     1.377071297183   116.13789452   182.87688752
 H      1   2   3     1.076152667124   121.84076960   359.90327961
 H     13  11   9     1.005956394063   116.25045508   323.31848886
 H     13  11   9     1.006547683469   112.11752853   190.80203716

---------------------------
INTERNAL COORDINATES (A.U.)
---------------------------
 C      0   0   0     0.000000000000     0.00000000     0.00000000
 N      1   0   0     2.591231370889     0.00000000     0.00000000
 H      2   1   0     1.899766086681   127.52350586     0.00000000
 C      2   1   3     2.578519144065   106.83852718   180.14299371
 C      4   2   1     2.621613143814   104.97862583   359.90891399
 N      1   2   3     2.484049772964   112.85171210   179.91026359
 C      5   4   2     2.717714954659   118.60992321   179.50718948
 O      7   5   4     2.292843132692   130.97495392   180.75729776
 N      7   5   4     2.690428250059   109.19714743     0.27900829
 H      9   7   5     1.907538488421   113.66152855   184.44889256
 C      9   7   5     2.579487022587   126.93158872     0.24178415
 N     11   9   7     2.460044496929   123.92997098     0.02965116
 N     11   9   7     2.602287618559   116.13789452   182.87688752
 H      1   2   3     2.033633819153   121.84076960   359.90327961
 H     13  11   9     1.900982087446   116.25045508   323.31848886
 H     13  11   9     1.902099462489   112.11752853   190.80203716

---------------------
BASIS SET INFORMATION
---------------------
There are 4 groups of distinct atoms

 Group   1 Type C   : 8s4p1d contracted to 4s2p1d pattern {5111/31/1}
 Group   2 Type N   : 8s4p1d contracted to 4s2p1d pattern {5111/31/1}
 Group   3 Type H   : 4s contracted to 2s pattern {31}
 Group   4 Type O   : 8s4p1d contracted to 4s2p1d pattern {5111/31/1}

Atom   0C    basis set group =>   1
Atom   1N    basis set group =>   2
Atom   2H    basis set group =>   3
Atom   3C    basis set group =>   1
Atom   4C    basis set group =>   1
Atom   5N    basis set group =>   2
Atom   6C    basis set group =>   1
Atom   7O    basis set group =>   4
Atom   8N    basis set group =>   2
Atom   9H    basis set group =>   3
Atom  10C    basis set group =>   1
Atom  11N    basis set group =>   2
Atom  12N    basis set group =>   2
Atom  13H    basis set group =>   3
Atom  14H    basis set group =>   3
Atom  15H    basis set group =>   3
---------------------------------
AUXILIARY/J BASIS SET INFORMATION
---------------------------------
There are 4 groups of distinct atoms

 Group   1 Type C   : 12s5p4d2f1g contracted to 6s4p3d1f1g pattern {711111/2111/211/2/1}
 Group   2 Type N   : 12s5p4d2f1g contracted to 6s4p3d1f1g pattern {711111/2111/211/2/1}
 Group   3 Type H   : 5s2p1d contracted to 3s1p1d pattern {311/2/1}
 Group   4 Type O   : 12s5p4d2f1g contracted to 6s4p3d1f1g pattern {711111/2111/211/2/1}

Atom   0C    basis set group =>   1
Atom   1N    basis set group =>   2
Atom   2H    basis set group =>   3
Atom   3C    basis set group =>   1
Atom   4C    basis set group =>   1
Atom   5N    basis set group =>   2
Atom   6C    basis set group =>   1
Atom   7O    basis set group =>   4
Atom   8N    basis set group =>   2
Atom   9H    basis set group =>   3
Atom  10C    basis set group =>   1
Atom  11N    basis set group =>   2
Atom  12N    basis set group =>   2
Atom  13H    basis set group =>   3
Atom  14H    basis set group =>   3
Atom  15H    basis set group =>   3


           ************************************************************
           *        Program running with 4 parallel MPI-processes     *
           *              working on a common directory               *
           ************************************************************
------------------------------------------------------------------------------
                           ORCA GTO INTEGRAL CALCULATION
                           -- RI-GTO INTEGRALS CHOSEN --
------------------------------------------------------------------------------
------------------------------------------------------------------------------
                   ___                                                        
                  /   \      - P O W E R E D   B Y -                         
                 /     \                                                     
                 |  |  |   _    _      __       _____    __    __             
                 |  |  |  | |  | |    /  \     |  _  \  |  |  /  |          
                  \  \/   | |  | |   /    \    | | | |  |  | /  /          
                 / \  \   | |__| |  /  /\  \   | |_| |  |  |/  /          
                |  |  |   |  __  | /  /__\  \  |    /   |      \           
                |  |  |   | |  | | |   __   |  |    \   |  |\   \          
                \     /   | |  | | |  |  |  |  | |\  \  |  | \   \       
                 \___/    |_|  |_| |__|  |__|  |_| \__\ |__|  \__/        
                                                                              
                      - O R C A' S   B I G   F R I E N D -                    
                                      &                                       
                       - I N T E G R A L  F E E D E R -                       
                                                                              
 v1 FN, 2020, v2 2021                                                         
------------------------------------------------------------------------------


Reading SHARK input file pbeh-3c.SHARKINP.tmp ... ok
----------------------
SHARK INTEGRAL PACKAGE
----------------------

Number of atoms                             ...     16
Number of basis functions                   ...    175
Number of shells                            ...     87
Maximum angular momentum                    ...      2
Integral batch strategy                     ... SHARK/LIBINT Hybrid
RI-J (if used) integral strategy            ... SPLIT-RIJ (Revised 2003 algorithm where possible)
Printlevel                                  ...      1
Contraction scheme used                     ... SEGMENTED contraction
Coulomb Range Separation                    ... NOT USED
Exchange Range Separation                   ... NOT USED
Finite Nucleus Model                        ... NOT USED
Auxiliary Coulomb fitting basis             ... AVAILABLE
   # of basis functions in Aux-J            ...    594
   # of shells in Aux-J                     ...    190
   Maximum angular momentum in Aux-J        ...      4
Auxiliary J/K fitting basis                 ... NOT available
Auxiliary Correlation fitting basis         ... NOT available
Auxiliary 'external' fitting basis          ... NOT available
Integral threshold                          ...     2.500000e-11
Primitive cut-off                           ...     2.500000e-12
Primitive pair pre-selection threshold      ...     2.500000e-12

Calculating pre-screening integrals         ... done (  0.2 sec) Dimension = 87
Organizing shell pair data                  ... done (  0.8 sec)
Shell pair information
Total number of shell pairs                 ...      3828
Shell pairs after pre-screening             ...      3256
Total number of primitive shell pairs       ...     13524
Primitive shell pairs kept                  ...      8034
          la=0 lb=0:   1129 shell pairs
          la=1 lb=0:   1089 shell pairs
          la=1 lb=1:    248 shell pairs
          la=2 lb=0:    490 shell pairs
          la=2 lb=1:    236 shell pairs
          la=2 lb=2:     64 shell pairs

Calculating one electron integrals          ... done (  0.0 sec)
Calculating RI/J V-Matrix + Cholesky decomp.... done (  0.7 sec)
Calculating Nuclear repulsion               ... done (  0.1 sec) ENN=    596.550280676473 Eh

SHARK setup successfully completed in   3.4 seconds

Maximum memory used throughout the entire GTOINT-calculation: 11.9 MB


           ************************************************************
           *        Program running with 4 parallel MPI-processes     *
           *              working on a common directory               *
           ************************************************************
-------------------------------------------------------------------------------
                                 ORCA SCF
-------------------------------------------------------------------------------

------------
SCF SETTINGS
------------
Hamiltonian:
 Density Functional     Method          .... DFT(GTOs)
 Exchange Functional    Exchange        .... PBE
   PBE kappa parameter   XKappa         ....  1.024500
   PBE mue parameter    XMuePBE         ....  0.123457
 Correlation Functional Correlation     .... PBE
   PBE beta parameter  CBetaPBE         ....  0.030000
 LDA part of GGA corr.  LDAOpt          .... PW91-LDA
 Gradients option       PostSCFGGA      .... off
 Hybrid DFT is turned on
   Fraction HF Exchange ScalHFX         ....  0.420000
   Scaling of DF-GGA-X  ScalDFX         ....  0.580000
   Scaling of DF-GGA-C  ScalDFC         ....  1.000000
   Scaling of DF-LDA-C  ScalLDAC        ....  1.000000
   Perturbative correction              ....  0.000000
   Density functional embedding theory  .... OFF
 RI-approximation to the Coulomb term is turned on
   Number of AuxJ basis functions       .... 594
   RIJ-ON(X) (HFX calculated with O(N)) .... on
   Number of AuxJ basis functions       .... 594
   RIJ-COSX (HFX calculated with COS-X)).... on


General Settings:
 Integral files         IntName         .... pbeh-3c
 Hartree-Fock type      HFTyp           .... RHF
 Total Charge           Charge          ....    0
 Multiplicity           Mult            ....    1
 Number of Electrons    NEL             ....   78
 Basis Dimension        Dim             ....  175
 Nuclear Repulsion      ENuc            ....    596.5502806765 Eh

Convergence Acceleration:
 DIIS                   CNVDIIS         .... on
   Start iteration      DIISMaxIt       ....    12
   Startup error        DIISStart       ....  0.200000
   # of expansion vecs  DIISMaxEq       ....     5
   Bias factor          DIISBfac        ....   1.050
   Max. coefficient     DIISMaxC        ....  10.000
 Trust-Rad. Augm. Hess. CNVTRAH         .... auto
   Auto Start mean grad. ratio tolernc. ....  1.125000
   Auto Start start iteration           ....    20
   Auto Start num. interpolation iter.  ....    10
   Max. Number of Micro iterations      ....    16
   Max. Number of Macro iterations      .... Maxiter - #DIIS iter
   Number of Davidson start vectors     ....     2
   Converg. threshold I  (grad. norm)   ....   1.000e-05
   Converg. threshold II (energy diff.) ....   1.000e-08
   Grad. Scal. Fac. for Micro threshold ....   0.100
   Minimum threshold for Micro iter.    ....   0.010
   NR start threshold (gradient norm)   ....   0.001
   Initial trust radius                 ....   0.400
   Minimum AH scaling param. (alpha)    ....   1.000
   Maximum AH scaling param. (alpha)    .... 1000.000
   Orbital update algorithm             .... Taylor
   White noise on init. David. guess    .... on
   Maximum white noise                  ....   0.010
   Quad. conv. algorithm                .... NR
   COSX micro iterations for RIJONX calc.... off
 SOSCF                  CNVSOSCF        .... on
   Start iteration      SOSCFMaxIt      ....   150
   Startup grad/error   SOSCFStart      ....  0.003300
 Level Shifting         CNVShift        .... on
   Level shift para.    LevelShift      ....    0.2500
   Turn off err/grad.   ShiftErr        ....    0.0010
 Zerner damping         CNVZerner       .... off
 Static damping         CNVDamp         .... on
   Fraction old density DampFac         ....    0.7000
   Max. Damping (<1)    DampMax         ....    0.9800
   Min. Damping (>=0)   DampMin         ....    0.0000
   Turn off err/grad.   DampErr         ....    0.1000
 Fernandez-Rico         CNVRico         .... off

SCF Procedure:
 Maximum # iterations   MaxIter         ....   125
 SCF integral mode      SCFMode         .... Direct
   Integral package                     .... SHARK and LIBINT hybrid scheme
 Reset frequency        DirectResetFreq ....    20
 Integral Threshold     Thresh          ....  2.500e-11 Eh
 Primitive CutOff       TCut            ....  2.500e-12 Eh

Convergence Tolerance:
 Convergence Check Mode ConvCheckMode   .... Total+1el-Energy
 Convergence forced     ConvForced      .... 0
 Energy Change          TolE            ....  1.000e-08 Eh
 1-El. energy change                    ....  1.000e-05 Eh
 Orbital Gradient       TolG            ....  1.000e-05
 Orbital Rotation angle TolX            ....  1.000e-05
 DIIS Error             TolErr          ....  5.000e-07


Diagonalization of the overlap matrix:
Smallest eigenvalue                        ... 1.540e-03
Time for diagonalization                   ...    0.005 sec
Threshold for overlap eigenvalues          ... 1.000e-08
Number of eigenvalues below threshold      ... 0
Time for construction of square roots      ...    0.268 sec
Total time needed                          ...    0.274 sec

--------------------------------
INITIAL GUESS: MINIMAL BASIS EHT
--------------------------------
The minimal basis has 60 functions
EHT matrix was diagonalized
Basis set overlap was calculated now projecting the orbitals
Using GuessMode=FMatrix for the initial guess
C*T matrix was formed
Effective Fockian was calculated
Effective Fockian was diagonalized
Initial density was built
                      ------------------
                      INITIAL GUESS DONE
                      ------------------
-------------------
DFT GRID GENERATION
-------------------

General Integration Accuracy     IntAcc      ... 4.959
Radial Grid Type                 RadialGrid  ... OptM3 with GC (2021)
Angular Grid (max. ang.)         AngularGrid ... 6 (Lebedev-590)
Angular grid pruning method      GridPruning ... 4 (adaptive)
Weight generation scheme         WeightScheme... Becke
Basis function cutoff            BFCut       ... 1.0000e-11
Integration weight cutoff        WCut        ... 1.0000e-14
Angular grids for H and He will be reduced by one unit
Partially contracted basis set               ... off
Rotationally invariant grid construction     ... off

Total number of grid points                  ...   200845
Total number of batches                      ...     3145
Average number of points per batch           ...       63
Average number of grid points per atom       ...    12553
Time for grid setup =    6.546 sec

--------------------
COSX GRID GENERATION
--------------------

GRIDX 1
-------
General Integration Accuracy     IntAcc      ... 4.020
Radial Grid Type                 RadialGrid  ... OptM3 with GC (2021)
Angular Grid (max. ang.)         AngularGrid ... 2 (Lebedev-110)
Angular grid pruning method      GridPruning ... 4 (adaptive)
Weight generation scheme         WeightScheme... Becke
Basis function cutoff            BFCut       ... 1.0000e-11
Integration weight cutoff        WCut        ... 1.0000e-14
Angular grids for H and He will be reduced by one unit
Partially contracted basis set               ... on
Rotationally invariant grid construction     ... off

Total number of grid points                  ...    23644
Total number of batches                      ...      378
Average number of points per batch           ...       62
Average number of grid points per atom       ...     1478
UseSFitting                                  ... on

GRIDX 2
-------
General Integration Accuracy     IntAcc      ... 4.338
Radial Grid Type                 RadialGrid  ... OptM3 with GC (2021)
Angular Grid (max. ang.)         AngularGrid ... 3 (Lebedev-194)
Angular grid pruning method      GridPruning ... 4 (adaptive)
Weight generation scheme         WeightScheme... Becke
Basis function cutoff            BFCut       ... 1.0000e-11
Integration weight cutoff        WCut        ... 1.0000e-14
Angular grids for H and He will be reduced by one unit
Partially contracted basis set               ... on
Rotationally invariant grid construction     ... off

Total number of grid points                  ...    52110
Total number of batches                      ...      823
Average number of points per batch           ...       63
Average number of grid points per atom       ...     3257
UseSFitting                                  ... on

GRIDX 3
-------
General Integration Accuracy     IntAcc      ... 4.871
Radial Grid Type                 RadialGrid  ... OptM3 with GC (2021)
Angular Grid (max. ang.)         AngularGrid ... 4 (Lebedev-302)
Angular grid pruning method      GridPruning ... 4 (adaptive)
Weight generation scheme         WeightScheme... Becke
Basis function cutoff            BFCut       ... 1.0000e-11
Integration weight cutoff        WCut        ... 1.0000e-14
Angular grids for H and He will be reduced by one unit
Partially contracted basis set               ... on
Rotationally invariant grid construction     ... off

Total number of grid points                  ...    95859
Total number of batches                      ...     1505
Average number of points per batch           ...       63
Average number of grid points per atom       ...     5991
UseSFitting                                  ... on

Time for X-Grid setup             =    7.048 sec

--------------
SCF ITERATIONS
--------------
ITER       Energy         Delta-E        Max-DP      RMS-DP      [F,P]     Damp
               ***  Starting incremental Fock matrix formation  ***
  0   -539.4023311975   0.000000000000 0.25307356  0.00794382  0.5730467 0.7000
  1   -540.1695672614  -0.767236063939 0.15183551  0.00453031  0.2874489 0.7000
  2   -540.5390659123  -0.369498650904 0.08711030  0.00279810  0.2043846 0.7000
                               ***Turning on DIIS***
  3   -540.7937443622  -0.254678449880 0.08667332  0.00199223  0.1459311 0.7000
  4   -540.9779577503  -0.184213388076 0.06357551  0.00145295  0.1029840 0.7000
  5   -541.1083169828  -0.130359232579 0.14506151  0.00346994  0.0718464 0.0000
  6   -541.4179360107  -0.309619027851 0.00705341  0.00015976  0.0056891 0.0000
  7   -541.4181228398  -0.000186829076 0.00223386  0.00007191  0.0033153 0.0000
                      *** Initiating the SOSCF procedure ***
                           *** Shutting down DIIS ***
                      *** Re-Reading the Fockian *** 
                      *** Removing any level shift *** 
ITER      Energy       Delta-E        Grad      Rot      Max-DP    RMS-DP
  8   -541.41817218  -0.0000493408  0.000577  0.000577  0.001633  0.000042
               *** Restarting incremental Fock matrix formation ***
  9   -541.41817374  -0.0000015545  0.000189  0.000483  0.001171  0.000032
 10   -541.41817553  -0.0000017922  0.000259  0.000463  0.000890  0.000016
 11   -541.41817641  -0.0000008808  0.000102  0.000219  0.000217  0.000006
 12   -541.41817652  -0.0000001161  0.000029  0.000035  0.000068  0.000003
 13   -541.41817657  -0.0000000419  0.000011  0.000025  0.000034  0.000001
 14   -541.41817657  -0.0000000026  0.000004  0.000007  0.000015  0.000000
                  ***Gradient check signals convergence***
              ***Rediagonalizing the Fockian in SOSCF/NRSCF***

               *****************************************************
               *                     SUCCESS                       *
               *           SCF CONVERGED AFTER  15 CYCLES          *
               *****************************************************

Old exchange energy                            =    -29.000973842 Eh
New exchange energy                            =    -29.000966006 Eh
Exchange energy change after final integration =      0.000007837 Eh
Total energy after final integration           =   -541.418168736 Eh
Final COS-X integration done in                =    10.860 sec

----------------
TOTAL SCF ENERGY
----------------

Total Energy       :         -541.41816874 Eh          -14732.73737 eV

Components:
Nuclear Repulsion  :          596.55028068 Eh           16232.95840 eV
Electronic Energy  :        -1137.96844941 Eh          -30965.69577 eV
One Electron Energy:        -1919.58452495 Eh          -52234.55048 eV
Two Electron Energy:          781.61607554 Eh           21268.85470 eV
Max COSX asymmetry :            0.00000247 Eh               0.00007 eV

Virial components:
Potential Energy   :        -1078.91881757 Eh          -29358.87360 eV
Kinetic Energy     :          537.50064884 Eh           14626.13623 eV
Virial Ratio       :            2.00728840


DFT components:
N(Alpha)           :       39.000001012470 electrons
N(Beta)            :       39.000001012470 electrons
N(Total)           :       78.000002024940 electrons
E(X)               :      -38.627787146383 Eh       
E(C)               :       -3.504078591744 Eh       
E(XC)              :      -42.131865738126 Eh       
DFET-embed. en.    :        0.000000000000 Eh       

---------------
SCF CONVERGENCE
---------------

  Last Energy change         ...   -3.9095e-09  Tolerance :   1.0000e-08
  Last MAX-Density change    ...    2.9976e-15  Tolerance :   1.0000e-07
  Last RMS-Density change    ...    4.4438e-17  Tolerance :   5.0000e-09
  Last Orbital Gradient      ...    1.9094e-06  Tolerance :   1.0000e-05
  Last Orbital Rotation      ...    3.8236e-06  Tolerance :   1.0000e-05

             **** THE GBW FILE WAS UPDATED (pbeh-3c.gbw) ****
             **** DENSITY pbeh-3c.scfp WAS UPDATED ****
             **** ENERGY FILE WAS UPDATED (pbeh-3c.en.tmp) ****
             **** THE GBW FILE WAS UPDATED (pbeh-3c.gbw) ****
             **** DENSITY pbeh-3c.scfp WAS UPDATED ****
----------------
ORBITAL ENERGIES
----------------

  NO   OCC          E(Eh)            E(eV) 
   0   2.0000     -19.460739      -529.5536 
   1   2.0000     -14.705600      -400.1597 
   2   2.0000     -14.699769      -400.0010 
   3   2.0000     -14.677147      -399.3855 
   4   2.0000     -14.642858      -398.4524 
   5   2.0000     -14.630762      -398.1233 
   6   2.0000     -10.585947      -288.0583 
   7   2.0000     -10.559001      -287.3250 
   8   2.0000     -10.524151      -286.3767 
   9   2.0000     -10.509831      -285.9870 
  10   2.0000     -10.462226      -284.6917 
  11   2.0000      -1.165688       -31.7200 
  12   2.0000      -1.138627       -30.9836 
  13   2.0000      -1.117338       -30.4043 
  14   2.0000      -1.018350       -27.7107 
  15   2.0000      -1.012742       -27.5581 
  16   2.0000      -0.978638       -26.6301 
  17   2.0000      -0.853180       -23.2162 
  18   2.0000      -0.758543       -20.6410 
  19   2.0000      -0.739399       -20.1201 
  20   2.0000      -0.704299       -19.1650 
  21   2.0000      -0.675020       -18.3682 
  22   2.0000      -0.620919       -16.8961 
  23   2.0000      -0.610967       -16.6253 
  24   2.0000      -0.582983       -15.8638 
  25   2.0000      -0.556913       -15.1544 
  26   2.0000      -0.545232       -14.8365 
  27   2.0000      -0.524142       -14.2626 
  28   2.0000      -0.494774       -13.4635 
  29   2.0000      -0.491745       -13.3811 
  30   2.0000      -0.482257       -13.1229 
  31   2.0000      -0.450879       -12.2690 
  32   2.0000      -0.381753       -10.3880 
  33   2.0000      -0.367589       -10.0026 
  34   2.0000      -0.342762        -9.3270 
  35   2.0000      -0.334668        -9.1068 
  36   2.0000      -0.328953        -8.9513 
  37   2.0000      -0.316913        -8.6236 
  38   2.0000      -0.250534        -6.8174 
  39   0.0000       0.019368         0.5270 
  40   0.0000       0.027396         0.7455 
  41   0.0000       0.078155         2.1267 
  42   0.0000       0.102109         2.7785 
  43   0.0000       0.126261         3.4357 
  44   0.0000       0.146440         3.9848 
  45   0.0000       0.166739         4.5372 
  46   0.0000       0.194602         5.2954 
  47   0.0000       0.210862         5.7378 
  48   0.0000       0.226566         6.1652 
  49   0.0000       0.252115         6.8604 
  50   0.0000       0.271646         7.3919 
  51   0.0000       0.279852         7.6152 
  52   0.0000       0.325633         8.8609 
  53   0.0000       0.343923         9.3586 
  54   0.0000       0.347013         9.4427 
  55   0.0000       0.386050        10.5050 
  56   0.0000       0.411764        11.2047 
  57   0.0000       0.425739        11.5850 
  58   0.0000       0.463549        12.6138 
  59   0.0000       0.476314        12.9612 
  60   0.0000       0.493673        13.4335 
  61   0.0000       0.507420        13.8076 
  62   0.0000       0.531520        14.4634 
  63   0.0000       0.542678        14.7670 
  64   0.0000       0.582480        15.8501 
  65   0.0000       0.586740        15.9660 
  66   0.0000       0.605678        16.4813 
  67   0.0000       0.620154        16.8752 
  68   0.0000       0.642755        17.4903 
  69   0.0000       0.658217        17.9110 
  70   0.0000       0.663619        18.0580 
  71   0.0000       0.700226        19.0541 
  72   0.0000       0.713558        19.4169 
  73   0.0000       0.730021        19.8649 
  74   0.0000       0.747281        20.3345 
  75   0.0000       0.771835        21.0027 
  76   0.0000       0.817851        22.2549 
  77   0.0000       0.835561        22.7368 
  78   0.0000       0.849824        23.1249 
  79   0.0000       0.874497        23.7963 
  80   0.0000       0.889485        24.2041 
  81   0.0000       0.907092        24.6832 
  82   0.0000       0.932610        25.3776 
  83   0.0000       0.945579        25.7305 
  84   0.0000       0.949197        25.8290 
  85   0.0000       0.972317        26.4581 
  86   0.0000       0.981892        26.7186 
  87   0.0000       0.992405        27.0047 
  88   0.0000       1.006032        27.3755 
  89   0.0000       1.016096        27.6494 
  90   0.0000       1.026962        27.9451 
  91   0.0000       1.052144        28.6303 
  92   0.0000       1.076699        29.2985 
  93   0.0000       1.089617        29.6500 
  94   0.0000       1.109059        30.1790 
  95   0.0000       1.164791        31.6956 
  96   0.0000       1.193819        32.4855 
  97   0.0000       1.228790        33.4371 
  98   0.0000       1.250680        34.0327 
  99   0.0000       1.275755        34.7151 
 100   0.0000       1.325099        36.0578 
 101   0.0000       1.344957        36.5981 
 102   0.0000       1.353144        36.8209 
 103   0.0000       1.371999        37.3340 
 104   0.0000       1.387308        37.7506 
 105   0.0000       1.399441        38.0807 
 106   0.0000       1.452383        39.5213 
 107   0.0000       1.455302        39.6008 
 108   0.0000       1.481498        40.3136 
 109   0.0000       1.511027        41.1171 
 110   0.0000       1.555759        42.3343 
 111   0.0000       1.598180        43.4887 
 112   0.0000       1.638149        44.5763 
 113   0.0000       1.651865        44.9495 
 114   0.0000       1.702437        46.3257 
 115   0.0000       1.754332        47.7378 
 116   0.0000       1.768599        48.1260 
 117   0.0000       1.806001        49.1438 
 118   0.0000       1.829825        49.7921 
 119   0.0000       1.850898        50.3655 
 120   0.0000       1.869350        50.8676 
 121   0.0000       1.921197        52.2784 
 122   0.0000       1.925243        52.3885 
 123   0.0000       1.949498        53.0485 
 124   0.0000       1.977183        53.8019 
 125   0.0000       2.016873        54.8819 
 126   0.0000       2.042918        55.5906 
 127   0.0000       2.055886        55.9435 
 128   0.0000       2.094953        57.0066 
 129   0.0000       2.149729        58.4971 
 130   0.0000       2.179476        59.3066 
 131   0.0000       2.208023        60.0834 
 132   0.0000       2.222415        60.4750 
 133   0.0000       2.232595        60.7520 
 134   0.0000       2.260111        61.5008 
 135   0.0000       2.273856        61.8748 
 136   0.0000       2.286420        62.2166 
 137   0.0000       2.293938        62.4212 
 138   0.0000       2.329519        63.3894 
 139   0.0000       2.372877        64.5693 
 140   0.0000       2.401945        65.3602 
 141   0.0000       2.456107        66.8341 
 142   0.0000       2.466202        67.1088 
 143   0.0000       2.486310        67.6559 
 144   0.0000       2.526823        68.7583 
 145   0.0000       2.540129        69.1204 
 146   0.0000       2.567914        69.8765 
 147   0.0000       2.607774        70.9611 
 148   0.0000       2.618071        71.2413 
 149   0.0000       2.644247        71.9536 
 150   0.0000       2.688108        73.1471 
 151   0.0000       2.722515        74.0834 
 152   0.0000       2.783780        75.7505 
 153   0.0000       2.791481        75.9601 
 154   0.0000       2.815713        76.6195 
 155   0.0000       2.853966        77.6604 
 156   0.0000       2.928306        79.6833 
 157   0.0000       2.975467        80.9666 
 158   0.0000       3.049881        82.9915 
 159   0.0000       3.069447        83.5239 
 160   0.0000       3.100927        84.3805 
 161   0.0000       3.263775        88.8118 
 162   0.0000       3.389925        92.2445 
 163   0.0000       3.554050        96.7106 
 164   0.0000      13.629287       370.8718 
 165   0.0000      13.800654       375.5349 
 166   0.0000      13.917539       378.7155 
 167   0.0000      14.094443       383.5293 
 168   0.0000      14.374172       391.1411 
 169   0.0000      19.168763       521.6086 
 170   0.0000      19.320064       525.7257 
 171   0.0000      19.379633       527.3466 
 172   0.0000      19.470408       529.8167 
 173   0.0000      19.613477       533.7098 
 174   0.0000      25.795813       701.9397 

                    ********************************
                    * MULLIKEN POPULATION ANALYSIS *
                    ********************************

-----------------------
MULLIKEN ATOMIC CHARGES
-----------------------
   0 C :    0.099752
   1 N :   -0.651369
   2 H :    0.374490
   3 C :    0.465977
   4 C :   -0.043048
   5 N :   -0.363289
   6 C :    0.502616
   7 O :   -0.382528
   8 N :   -0.726338
   9 H :    0.378443
  10 C :    0.654320
  11 N :   -0.470982
  12 N :   -0.809442
  13 H :    0.241479
  14 H :    0.354816
  15 H :    0.375103
Sum of atomic charges:   -0.0000000

--------------------------------
MULLIKEN REDUCED ORBITAL CHARGES
--------------------------------
  0 C s       :     3.105682  s :     3.105682
      pz      :     1.002948  p :     2.716222
      px      :     0.917891
      py      :     0.795383
      dz2     :     0.005764  d :     0.078344
      dxz     :     0.004904
      dyz     :     0.015416
      dx2y2   :     0.026708
      dxy     :     0.025553
  1 N s       :     3.590978  s :     3.590978
      pz      :     1.593173  p :     4.020390
      px      :     1.191102
      py      :     1.236116
      dz2     :     0.004450  d :     0.040001
      dxz     :     0.008434
      dyz     :     0.003259
      dx2y2   :     0.012737
      dxy     :     0.011120
  2 H s       :     0.625510  s :     0.625510
  3 C s       :     2.955487  s :     2.955487
      pz      :     0.968569  p :     2.492364
      px      :     0.641934
      py      :     0.881861
      dz2     :     0.005298  d :     0.086173
      dxz     :     0.016940
      dyz     :     0.011421
      dx2y2   :     0.028676
      dxy     :     0.023837
  4 C s       :     3.154412  s :     3.154412
      pz      :     1.156044  p :     2.828623
      px      :     0.829295
      py      :     0.843284
      dz2     :     0.004836  d :     0.060012
      dxz     :     0.009547
      dyz     :     0.005861
      dx2y2   :     0.020497
      dxy     :     0.019271
  5 N s       :     3.631790  s :     3.631790
      pz      :     1.159903  p :     3.684131
      px      :     1.079763
      py      :     1.444465
      dz2     :     0.005138  d :     0.047368
      dxz     :     0.007239
      dyz     :     0.009973
      dx2y2   :     0.012040
      dxy     :     0.012979
  6 C s       :     2.948819  s :     2.948819
      pz      :     0.798436  p :     2.426285
      px      :     0.839301
      py      :     0.788548
      dz2     :     0.006262  d :     0.122280
      dxz     :     0.008598
      dyz     :     0.026899
      dx2y2   :     0.025101
      dxy     :     0.055420
  7 O s       :     3.755594  s :     3.755594
      pz      :     1.448388  p :     4.596477
      px      :     1.771803
      py      :     1.376286
      dz2     :     0.002745  d :     0.030457
      dxz     :     0.000196
      dyz     :     0.011471
      dx2y2   :     0.008786
      dxy     :     0.007258
  8 N s       :     3.590608  s :     3.590608
      pz      :     1.654296  p :     4.102923
      px      :     1.291135
      py      :     1.157492
      dz2     :     0.004422  d :     0.032807
      dxz     :     0.001969
      dyz     :     0.005319
      dx2y2   :     0.010412
      dxy     :     0.010686
  9 H s       :     0.621557  s :     0.621557
 10 C s       :     2.867641  s :     2.867641
      pz      :     0.848360  p :     2.365915
      px      :     0.756563
      py      :     0.760992
      dz2     :     0.005898  d :     0.112124
      dxz     :     0.021073
      dyz     :     0.018420
      dx2y2   :     0.037068
      dxy     :     0.029665
 11 N s       :     3.573093  s :     3.573093
      pz      :     1.331998  p :     3.855826
      px      :     1.005429
      py      :     1.518399
      dz2     :     0.005005  d :     0.042063
      dxz     :     0.006612
      dyz     :     0.007634
      dx2y2   :     0.005739
      dxy     :     0.017073
 12 N s       :     3.609860  s :     3.609860
      pz      :     1.714974  p :     4.167786
      px      :     1.202055
      py      :     1.250757
      dz2     :     0.003288  d :     0.031796
      dxz     :     0.008593
      dyz     :     0.004561
      dx2y2   :     0.008930
      dxy     :     0.006423
 13 H s       :     0.758521  s :     0.758521
 14 H s       :     0.645184  s :     0.645184
 15 H s       :     0.624897  s :     0.624897


                     *******************************
                     * LOEWDIN POPULATION ANALYSIS *
                     *******************************

----------------------
LOEWDIN ATOMIC CHARGES
----------------------
   0 C :   -0.031360
   1 N :   -0.144633
   2 H :    0.272956
   3 C :    0.049670
   4 C :   -0.123635
   5 N :   -0.146756
   6 C :    0.122176
   7 O :   -0.240418
   8 N :   -0.199571
   9 H :    0.273422
  10 C :    0.135973
  11 N :   -0.238231
  12 N :   -0.380178
  13 H :    0.133941
  14 H :    0.251674
  15 H :    0.264968

-------------------------------
LOEWDIN REDUCED ORBITAL CHARGES
-------------------------------
  0 C s       :     2.873349  s :     2.873349
      pz      :     1.004478  p :     2.990589
      px      :     1.036424
      py      :     0.949687
      dz2     :     0.011030  d :     0.167422
      dxz     :     0.007170
      dyz     :     0.031703
      dx2y2   :     0.058208
      dxy     :     0.059310
  1 N s       :     3.089496  s :     3.089496
      pz      :     1.539208  p :     3.961986
      px      :     1.217368
      py      :     1.205410
      dz2     :     0.006489  d :     0.093151
      dxz     :     0.018320
      dyz     :     0.005637
      dx2y2   :     0.031360
      dxy     :     0.031344
  2 H s       :     0.727044  s :     0.727044
  3 C s       :     2.804282  s :     2.804282
      pz      :     0.964068  p :     2.948764
      px      :     0.928776
      py      :     1.055920
      dz2     :     0.012266  d :     0.197284
      dxz     :     0.033568
      dyz     :     0.023507
      dx2y2   :     0.071480
      dxy     :     0.056464
  4 C s       :     2.838226  s :     2.838226
      pz      :     1.112498  p :     3.141852
      px      :     1.005210
      py      :     1.024143
      dz2     :     0.010441  d :     0.143558
      dxz     :     0.017711
      dyz     :     0.011679
      dx2y2   :     0.056175
      dxy     :     0.047552
  5 N s       :     3.228269  s :     3.228269
      pz      :     1.157715  p :     3.822264
      px      :     1.174200
      py      :     1.490349
      dz2     :     0.008710  d :     0.096223
      dxz     :     0.017521
      dyz     :     0.012187
      dx2y2   :     0.026911
      dxy     :     0.030894
  6 C s       :     2.815344  s :     2.815344
      pz      :     0.812651  p :     2.783769
      px      :     0.969014
      py      :     1.002104
      dz2     :     0.015104  d :     0.278711
      dxz     :     0.017271
      dyz     :     0.053706
      dx2y2   :     0.057204
      dxy     :     0.135427
  7 O s       :     3.515229  s :     3.515229
      pz      :     1.442773  p :     4.668071
      px      :     1.762107
      py      :     1.463192
      dz2     :     0.006744  d :     0.057118
      dxz     :     0.000318
      dyz     :     0.015442
      dx2y2   :     0.020465
      dxy     :     0.014148
  8 N s       :     3.114693  s :     3.114693
      pz      :     1.593940  p :     4.006764
      px      :     1.225936
      py      :     1.186889
      dz2     :     0.007169  d :     0.078114
      dxz     :     0.003636
      dyz     :     0.010992
      dx2y2   :     0.027333
      dxy     :     0.028983
  9 H s       :     0.726578  s :     0.726578
 10 C s       :     2.786041  s :     2.786041
      pz      :     0.862143  p :     2.828918
      px      :     0.996712
      py      :     0.970064
      dz2     :     0.013359  d :     0.249067
      dxz     :     0.041485
      dyz     :     0.037860
      dx2y2   :     0.085719
      dxy     :     0.070644
 11 N s       :     3.192130  s :     3.192130
      pz      :     1.315855  p :     3.957407
      px      :     1.113195
      py      :     1.528357
      dz2     :     0.009394  d :     0.088694
      dxz     :     0.015162
      dyz     :     0.008536
      dx2y2   :     0.015595
      dxy     :     0.040008
 12 N s       :     3.177063  s :     3.177063
      pz      :     1.687612  p :     4.142790
      px      :     1.226092
      py      :     1.229086
      dz2     :     0.004924  d :     0.060324
      dxz     :     0.013661
      dyz     :     0.006003
      dx2y2   :     0.019963
      dxy     :     0.015774
 13 H s       :     0.866059  s :     0.866059
 14 H s       :     0.748326  s :     0.748326
 15 H s       :     0.735032  s :     0.735032


                      *****************************
                      * MAYER POPULATION ANALYSIS *
                      *****************************

  NA   - Mulliken gross atomic population
  ZA   - Total nuclear charge
  QA   - Mulliken gross atomic charge
  VA   - Mayer's total valence
  BVA  - Mayer's bonded valence
  FA   - Mayer's free valence

  ATOM       NA         ZA         QA         VA         BVA        FA
  0 C      5.9002     6.0000     0.0998     3.7810     3.7810    -0.0000
  1 N      7.6514     7.0000    -0.6514     3.1923     3.1923    -0.0000
  2 H      0.6255     1.0000     0.3745     0.8446     0.8446    -0.0000
  3 C      5.5340     6.0000     0.4660     3.7096     3.7096    -0.0000
  4 C      6.0430     6.0000    -0.0430     3.7656     3.7656    -0.0000
  5 N      7.3633     7.0000    -0.3633     3.1053     3.1053    -0.0000
  6 C      5.4974     6.0000     0.5026     4.0740     4.0740    -0.0000
  7 O      8.3825     8.0000    -0.3825     2.2512     2.2512    -0.0000
  8 N      7.7263     7.0000    -0.7263     3.0281     3.0281    -0.0000
  9 H      0.6216     1.0000     0.3784     0.8448     0.8448    -0.0000
 10 C      5.3457     6.0000     0.6543     3.8860     3.8860    -0.0000
 11 N      7.4710     7.0000    -0.4710     3.1034     3.1034     0.0000
 12 N      7.8094     7.0000    -0.8094     2.8676     2.8676     0.0000
 13 H      0.7585     1.0000     0.2415     0.9094     0.9094     0.0000
 14 H      0.6452     1.0000     0.3548     0.8506     0.8506    -0.0000
 15 H      0.6249     1.0000     0.3751     0.8446     0.8446    -0.0000

  Mayer bond orders larger than 0.100000
B(  0-C ,  1-N ) :   1.1362 B(  0-C ,  5-N ) :   1.6888 B(  0-C , 13-H ) :   0.9095 
B(  1-N ,  2-H ) :   0.8163 B(  1-N ,  3-C ) :   1.0887 B(  3-C ,  4-C ) :   1.3081 
B(  3-C , 11-N ) :   1.2990 B(  4-C ,  5-N ) :   1.3075 B(  4-C ,  6-C ) :   1.0488 
B(  6-C ,  7-O ) :   2.0748 B(  6-C ,  8-N ) :   0.9362 B(  8-N ,  9-H ) :   0.8077 
B(  8-N , 10-C ) :   1.1297 B( 10-C , 11-N ) :   1.6210 B( 10-C , 12-N ) :   1.1006 
B( 12-N , 14-H ) :   0.8349 B( 12-N , 15-H ) :   0.8285 

-------
TIMINGS
-------

Total SCF time: 0 days 0 hours 2 min 13 sec 

Total time                  ....     133.991 sec
Sum of individual times     ....     126.938 sec  ( 94.7%)

Fock matrix formation       ....     106.565 sec  ( 79.5%)
  Split-RI-J                ....      10.339 sec  (  9.7% of F)
  Chain of spheres X        ....      53.776 sec  ( 50.5% of F)
  XC integration            ....      24.338 sec  ( 22.8% of F)
    Basis function eval.    ....       4.295 sec  ( 17.6% of XC)
    Density eval.           ....       2.832 sec  ( 11.6% of XC)
    XC-Functional eval.     ....       1.545 sec  (  6.3% of XC)
    XC-Potential eval.      ....       1.923 sec  (  7.9% of XC)
Diagonalization             ....       2.137 sec  (  1.6%)
Density matrix formation    ....       0.230 sec  (  0.2%)
Population analysis         ....       0.857 sec  (  0.6%)
Initial guess               ....       0.060 sec  (  0.0%)
Orbital Transformation      ....       0.000 sec  (  0.0%)
Orbital Orthonormalization  ....       0.000 sec  (  0.0%)
DIIS solution               ....       1.937 sec  (  1.4%)
SOSCF solution              ....       1.558 sec  (  1.2%)
Grid generation             ....      13.594 sec  ( 10.1%)

Maximum memory used throughout the entire SCF-calculation: 58.6 MB


-------------------------------------------------------------------------------
                          DFT DISPERSION CORRECTION                            
                                                                               
                              DFTD3 V3.1  Rev 1                                
                          USING Becke-Johnson damping                          
-------------------------------------------------------------------------------
The PBEh-3c composite method is recognized
Using three-body term ABC
Active option DFTDOPT                   ...         4   

molecular C6(AA) [au] = 3213.843710 


            DFT-D V3
 parameters
 s6 scaling factor         :     1.0000 
 a1 scaling factor         :     0.4860 
 s8 scaling factor         :     0.0000 
 a2 scaling factor         :     4.5000 
 Damping factor alpha9(ATM):    16.0000 
 ad hoc parameters k1-k3   :    16.0000     1.3333    -4.0000 

 Edisp/kcal,au: -5.980023129165  -0.009529772439 
 E6   /kcal   :  -5.980266450 
 E8   /kcal   :  -0.000000000 
 E6(ABC)      :   0.000243321 
 % E8         :   0.000000000 
 % E6(ABC)    :  -0.004068898 

-------------------------   ----------------
Dispersion correction           -0.009529772
-------------------------   ----------------

------------------   -----------------
gCP correction             0.030274213
------------------   -----------------

-------------------------   --------------------
FINAL SINGLE POINT ENERGY      -541.397424295043
-------------------------   --------------------


                            ***************************************
                            *     ORCA property calculations      *
                            ***************************************

                                    ---------------------
                                    Active property flags
                                    ---------------------
   (+) Dipole Moment


------------------------------------------------------------------------------
                       ORCA ELECTRIC PROPERTIES CALCULATION
------------------------------------------------------------------------------

Dipole Moment Calculation                       ... on
Quadrupole Moment Calculation                   ... off
Polarizability Calculation                      ... off
GBWName                                         ... pbeh-3c.gbw
Electron density                                ... pbeh-3c.scfp
The origin for moment calculation is the CENTER OF MASS  = (-0.250967, -0.582249 -0.038756)

-------------
DIPOLE MOMENT
-------------
                                X             Y             Z
Electronic contribution:     -1.62954      -2.17538       0.01199
Nuclear contribution   :      2.55534       4.62180       0.32531
                        -----------------------------------------
Total Dipole Moment    :      0.92580       2.44643       0.33730
                        -----------------------------------------
Magnitude (a.u.)       :      2.63740
Magnitude (Debye)      :      6.70375



--------------------
Rotational spectrum 
--------------------
 
Rotational constants in cm-1:     0.064286     0.037428     0.023673 
Rotational constants in MHz :  1927.244542  1122.061709   709.708238 

 Dipole components along the rotational axes: 
x,y,z [a.u.] :     1.339926    -2.237970     0.389848 
x,y,z [Debye]:     3.405822    -5.688467     0.990915 

 

Timings for individual modules:

Sum of individual times         ...      140.601 sec (=   2.343 min)
GTO integral calculation        ...        5.026 sec (=   0.084 min)   3.6 %
SCF iterations                  ...      135.575 sec (=   2.260 min)  96.4 %
                             ****ORCA TERMINATED NORMALLY****
TOTAL RUN TIME: 0 days 0 hours 2 minutes 23 seconds 574 msec
