
                                 *****************
                                 * O   R   C   A *
                                 *****************

                                            #,                                       
                                            ###                                      
                                            ####                                     
                                            #####                                    
                                            ######                                   
                                           ########,                                 
                                     ,,################,,,,,                         
                               ,,#################################,,                 
                          ,,##########################################,,             
                       ,#########################################, ''#####,          
                    ,#############################################,,   '####,        
                  ,##################################################,,,,####,       
                ,###########''''           ''''###############################       
              ,#####''   ,,,,##########,,,,          '''####'''          '####       
            ,##' ,,,,###########################,,,                        '##       
           ' ,,###''''                  '''############,,,                           
         ,,##''                                '''############,,,,        ,,,,,,###''
      ,#''                                            '''#######################'''  
     '                                                          ''''####''''         
             ,#######,   #######,   ,#######,      ##                                
            ,#'     '#,  ##    ##  ,#'     '#,    #''#        ######   ,####,        
            ##       ##  ##   ,#'  ##            #'  '#       #        #'  '#        
            ##       ##  #######   ##           ,######,      #####,   #    #        
            '#,     ,#'  ##    ##  '#,     ,#' ,#      #,         ##   #,  ,#        
             '#######'   ##     ##  '#######'  #'      '#     #####' # '####'        



                  #######################################################
                  #                        -***-                        #
                  #          Department of theory and spectroscopy      #
                  #    Directorship and core code : Frank Neese         #
                  #        Max Planck Institute fuer Kohlenforschung    #
                  #                Kaiser Wilhelm Platz 1               #
                  #                 D-45470 Muelheim/Ruhr               #
                  #                      Germany                        #
                  #                                                     #
                  #                  All rights reserved                #
                  #                        -***-                        #
                  #######################################################


                         Program Version 5.0.3 -  RELEASE  -


 With contributions from (in alphabetic order):
   Daniel Aravena         : Magnetic Suceptibility
   Michael Atanasov       : Ab Initio Ligand Field Theory (pilot matlab implementation)
   Alexander A. Auer      : GIAO ZORA, VPT2 properties, NMR spectrum
   Ute Becker             : Parallelization
   Giovanni Bistoni       : ED, misc. LED, open-shell LED, HFLD
   Martin Brehm           : Molecular dynamics
   Dmytro Bykov           : SCF Hessian
   Vijay G. Chilkuri      : MRCI spin determinant printing, contributions to CSF-ICE
   Dipayan Datta          : RHF DLPNO-CCSD density
   Achintya Kumar Dutta   : EOM-CC, STEOM-CC
   Dmitry Ganyushin       : Spin-Orbit,Spin-Spin,Magnetic field MRCI
   Miquel Garcia          : C-PCM and meta-GGA Hessian, CC/C-PCM, Gaussian charge scheme
   Yang Guo               : DLPNO-NEVPT2, F12-NEVPT2, CIM, IAO-localization
   Andreas Hansen         : Spin unrestricted coupled pair/coupled cluster methods
   Benjamin Helmich-Paris : MC-RPA, TRAH-SCF, COSX integrals
   Lee Huntington         : MR-EOM, pCC
   Robert Izsak           : Overlap fitted RIJCOSX, COSX-SCS-MP3, EOM
   Marcus Kettner         : VPT2
   Christian Kollmar      : KDIIS, OOCD, Brueckner-CCSD(T), CCSD density, CASPT2, CASPT2-K
   Simone Kossmann        : Meta GGA functionals, TD-DFT gradient, OOMP2, MP2 Hessian
   Martin Krupicka        : Initial AUTO-CI
   Lucas Lang             : DCDCAS
   Marvin Lechner         : AUTO-CI (C++ implementation), FIC-MRCC
   Dagmar Lenk            : GEPOL surface, SMD
   Dimitrios Liakos       : Extrapolation schemes; Compound Job, initial MDCI parallelization
   Dimitrios Manganas     : Further ROCIS development; embedding schemes
   Dimitrios Pantazis     : SARC Basis sets
   Anastasios Papadopoulos: AUTO-CI, single reference methods and gradients
   Taras Petrenko         : DFT Hessian,TD-DFT gradient, ASA, ECA, R-Raman, ABS, FL, XAS/XES, NRVS
   Peter Pinski           : DLPNO-MP2, DLPNO-MP2 Gradient
   Christoph Reimann      : Effective Core Potentials
   Marius Retegan         : Local ZFS, SOC
   Christoph Riplinger    : Optimizer, TS searches, QM/MM, DLPNO-CCSD(T), (RO)-DLPNO pert. Triples
   Tobias Risthaus        : Range-separated hybrids, TD-DFT gradient, RPA, STAB
   Michael Roemelt        : Original ROCIS implementation
   Masaaki Saitow         : Open-shell DLPNO-CCSD energy and density
   Barbara Sandhoefer     : DKH picture change effects
   Avijit Sen             : IP-ROCIS
   Kantharuban Sivalingam : CASSCF convergence, NEVPT2, FIC-MRCI
   Bernardo de Souza      : ESD, SOC TD-DFT
   Georgi Stoychev        : AutoAux, RI-MP2 NMR, DLPNO-MP2 response
   Willem Van den Heuvel  : Paramagnetic NMR
   Boris Wezisla          : Elementary symmetry handling
   Frank Wennmohs         : Technical directorship


 We gratefully acknowledge several colleagues who have allowed us to
 interface, adapt or use parts of their codes:
   Stefan Grimme, W. Hujo, H. Kruse, P. Pracht,  : VdW corrections, initial TS optimization,
                  C. Bannwarth, S. Ehlert          DFT functionals, gCP, sTDA/sTD-DF
   Ed Valeev, F. Pavosevic, A. Kumar             : LibInt (2-el integral package), F12 methods
   Garnet Chan, S. Sharma, J. Yang, R. Olivares  : DMRG
   Ulf Ekstrom                                   : XCFun DFT Library
   Mihaly Kallay                                 : mrcc  (arbitrary order and MRCC methods)
   Jiri Pittner, Ondrej Demel                    : Mk-CCSD
   Frank Weinhold                                : gennbo (NPA and NBO analysis)
   Christopher J. Cramer and Donald G. Truhlar   : smd solvation model
   Lars Goerigk                                  : TD-DFT with DH, B97 family of functionals
   V. Asgeirsson, H. Jonsson                     : NEB implementation
   FAccTs GmbH                                   : IRC, NEB, NEB-TS, DLPNO-Multilevel, CI-OPT
                                                   MM, QMMM, 2- and 3-layer-ONIOM, Crystal-QMMM,
                                                   LR-CPCM, SF, NACMEs, symmetry and pop. for TD-DFT,
                                                   nearIR, NL-DFT gradient (VV10), updates on ESD,
                                                   ML-optimized integration grids
   S Lehtola, MJT Oliveira, MAL Marques          : LibXC Library
   Liviu Ungur et al                             : ANISO software


 Your calculation uses the libint2 library for the computation of 2-el integrals
 For citations please refer to: http://libint.valeyev.net

 Your ORCA version has been built with support for libXC version: 5.1.0
 For citations please refer to: https://tddft.org/programs/libxc/

 This ORCA versions uses:
   CBLAS   interface :  Fast vector & matrix operations
   LAPACKE interface :  Fast linear algebra routines
   SCALAPACK package :  Parallel linear algebra routines
   Shared memory     :  Shared parallel matrices
   BLAS/LAPACK       :  OpenBLAS 0.3.15  USE64BITINT DYNAMIC_ARCH NO_AFFINITY Haswell SINGLE_THREADED
        Core in use  :  Haswell
   Copyright (c) 2011-2014, The OpenBLAS Project




***************************************
The coordinates will be read from file: H2O6c.xyz
***************************************


Your calculation utilizes the geometrical counterpoise correction gCP
Please cite in your paper:
H.Kruse, S. Grimme J.Chem.Phys., 136, (2012), 154101 
   

Your calculation utilizes the atom-pairwise dispersion correction
with the Becke-Johnson damping scheme (D3BJ)
Cite in your paper:
S.Grimme, S.Ehrlich, L.Goerigk, J Comput Chem, (2011), 32, 1456–1465 
S.Grimme, J.Antony, S.Ehrlich and H.Krieg, J.Chem.Phys., 132, (2010), 154104 
   

Your calculation employs the composite approach PBEh-3c.
Please cite in your paper:
S. Grimme, J. G. Brandenburg, C. Bannwarth, A. Hansen J.Chem.Phys., 143, (2015), 054107 
   

================================================================================

----- Orbital basis set information -----
Your calculation utilizes the basis: def2-mSVP

----- AuxJ basis set information -----
Your calculation utilizes the auxiliary basis: def2/J
   F. Weigend, Phys. Chem. Chem. Phys. 8, 1057 (2006).

================================================================================
                                        WARNINGS
                       Please study these warnings very carefully!
================================================================================


INFO   : the flag for use of the SHARK integral package has been found!

================================================================================
                                       INPUT FILE
================================================================================
NAME = pbeh-3c.inp
|  1> ! PBEh-3c def2/J TightSCF DefGrid3
|  2> 
|  3> %maxcore 60000
|  4> 
|  5> %pal
|  6> nprocs 4
|  7> end
|  8> 
|  9> *xyzfile 0 1 H2O6c.xyz
| 10> 
| 11>                          ****END OF INPUT****
================================================================================

                       ****************************
                       * Single Point Calculation *
                       ****************************

---------------------------------
CARTESIAN COORDINATES (ANGSTROEM)
---------------------------------
  O     -2.126243    0.919750    1.826496
  H     -2.188122    1.462015    2.615848
  H     -1.598636    1.426518    1.173772
  O     -0.624200   -1.353317    1.175710
  H     -1.198805   -0.679429    1.587776
  H      0.272983   -0.996307    1.264523
  O      1.828762    0.175482    0.642264
  H      2.039250   -0.202946   -0.240156
  H      2.663251    0.297934    1.101375
  O     -0.842299   -0.843854   -1.449044
  H     -1.545476   -1.316182   -1.901652
  H     -0.861342   -1.136636   -0.498637
  O     -0.453715    1.832826   -0.191539
  H     -0.728166    1.163811   -0.836455
  H      0.401369    1.505430    0.130342
  O      1.892204   -0.909985   -1.870697
  H      2.153755   -0.372014   -2.622249
  H      0.915431   -0.973096   -1.907677

----------------------------
CARTESIAN COORDINATES (A.U.)
----------------------------
  NO LB      ZA    FRAG     MASS         X           Y           Z
   0 O     8.0000    0    15.999   -4.018017    1.738075    3.451577
   1 H     1.0000    0     1.008   -4.134952    2.762807    4.943236
   2 H     1.0000    0     1.008   -3.020984    2.695729    2.218107
   3 O     8.0000    0    15.999   -1.179568   -2.557398    2.221770
   4 H     1.0000    0     1.008   -2.265414   -1.283934    3.000462
   5 H     1.0000    0     1.008    0.515864   -1.882748    2.389602
   6 O     8.0000    0    15.999    3.455860    0.331612    1.213703
   7 H     1.0000    0     1.008    3.853624   -0.383511   -0.453830
   8 H     1.0000    0     1.008    5.032815    0.563014    2.081297
   9 O     8.0000    0    15.999   -1.591715   -1.594653   -2.738296
  10 H     1.0000    0     1.008   -2.920527   -2.487224   -3.593601
  11 H     1.0000    0     1.008   -1.627701   -2.147932   -0.942287
  12 O     8.0000    0    15.999   -0.857397    3.463540   -0.361957
  13 H     1.0000    0     1.008   -1.376034    2.199283   -1.580670
  14 H     1.0000    0     1.008    0.758477    2.844851    0.246311
  15 O     8.0000    0    15.999    3.575748   -1.719623   -3.535105
  16 H     1.0000    0     1.008    4.070007   -0.703005   -4.955333
  17 H     1.0000    0     1.008    1.729913   -1.838884   -3.604987

--------------------------------
INTERNAL COORDINATES (ANGSTROEM)
--------------------------------
 O      0   0   0     0.000000000000     0.00000000     0.00000000
 H      1   0   0     0.959664739831     0.00000000     0.00000000
 H      1   2   0     0.980424560816   106.87191159     0.00000000
 O      1   2   3     2.801157724591   133.17273318   104.50338324
 H      4   1   2     0.976777286025    13.27105095    49.45179823
 H      4   1   2     0.969681289122   100.14217454   298.64940447
 O      6   4   1     2.044687029650   152.51394370   288.28664015
 H      7   6   4     0.982943395729   102.44529769   298.78520872
 H      7   6   4     0.960285925083   126.07128888   176.71348856
 O      4   1   2     2.682620746682    91.69687221   202.80861534
 H     10   4   1     0.960419223925   115.29139738   263.43567992
 H     10   4   1     0.994664896551     8.41319857   255.79133654
 O      3   1   2     1.827567677635   161.69701517   147.58631813
 H     13   3   1     0.968927902091    99.57204951    43.64826293
 H     13   3   1     0.970548461901   103.24896026   296.96857168
 O      8   7   6     1.783309039156   162.90360116    40.68693646
 H     16   8   7     0.960547886216   118.09194817   111.49034900
 H     16   8   7     0.979508571272    98.18041229   358.21281711

---------------------------
INTERNAL COORDINATES (A.U.)
---------------------------
 O      0   0   0     0.000000000000     0.00000000     0.00000000
 H      1   0   0     1.813503538661     0.00000000     0.00000000
 H      1   2   0     1.852733914912   106.87191159     0.00000000
 O      1   2   3     5.293420957394   133.17273318   104.50338324
 H      4   1   2     1.845841564423    13.27105095    49.45179823
 H      4   1   2     1.832432073627   100.14217454   298.64940447
 O      6   4   1     3.863898515619   152.51394370   288.28664015
 H      7   6   4     1.857493823075   102.44529769   298.78520872
 H      7   6   4     1.814677408666   126.07128888   176.71348856
 O      4   1   2     5.069418532405    91.69687221   202.80861534
 H     10   4   1     1.814929306972   115.29139738   263.43567992
 H     10   4   1     1.879644249507     8.41319857   255.79133654
 O      3   1   2     3.453602401936   161.69701517   147.58631813
 H     13   3   1     1.831008378467    99.57204951    43.64826293
 H     13   3   1     1.834070792690   103.24896026   296.96857168
 O      8   7   6     3.369965696151   162.90360116    40.68693646
 H     16   8   7     1.815172443465   118.09194817   111.49034900
 H     16   8   7     1.851002945532    98.18041229   358.21281711

---------------------
BASIS SET INFORMATION
---------------------
There are 2 groups of distinct atoms

 Group   1 Type O   : 8s4p1d contracted to 4s2p1d pattern {5111/31/1}
 Group   2 Type H   : 4s contracted to 2s pattern {31}

Atom   0O    basis set group =>   1
Atom   1H    basis set group =>   2
Atom   2H    basis set group =>   2
Atom   3O    basis set group =>   1
Atom   4H    basis set group =>   2
Atom   5H    basis set group =>   2
Atom   6O    basis set group =>   1
Atom   7H    basis set group =>   2
Atom   8H    basis set group =>   2
Atom   9O    basis set group =>   1
Atom  10H    basis set group =>   2
Atom  11H    basis set group =>   2
Atom  12O    basis set group =>   1
Atom  13H    basis set group =>   2
Atom  14H    basis set group =>   2
Atom  15O    basis set group =>   1
Atom  16H    basis set group =>   2
Atom  17H    basis set group =>   2
---------------------------------
AUXILIARY/J BASIS SET INFORMATION
---------------------------------
There are 2 groups of distinct atoms

 Group   1 Type O   : 12s5p4d2f1g contracted to 6s4p3d1f1g pattern {711111/2111/211/2/1}
 Group   2 Type H   : 5s2p1d contracted to 3s1p1d pattern {311/2/1}

Atom   0O    basis set group =>   1
Atom   1H    basis set group =>   2
Atom   2H    basis set group =>   2
Atom   3O    basis set group =>   1
Atom   4H    basis set group =>   2
Atom   5H    basis set group =>   2
Atom   6O    basis set group =>   1
Atom   7H    basis set group =>   2
Atom   8H    basis set group =>   2
Atom   9O    basis set group =>   1
Atom  10H    basis set group =>   2
Atom  11H    basis set group =>   2
Atom  12O    basis set group =>   1
Atom  13H    basis set group =>   2
Atom  14H    basis set group =>   2
Atom  15O    basis set group =>   1
Atom  16H    basis set group =>   2
Atom  17H    basis set group =>   2


           ************************************************************
           *        Program running with 4 parallel MPI-processes     *
           *              working on a common directory               *
           ************************************************************
------------------------------------------------------------------------------
                           ORCA GTO INTEGRAL CALCULATION
                           -- RI-GTO INTEGRALS CHOSEN --
------------------------------------------------------------------------------
------------------------------------------------------------------------------
                   ___                                                        
                  /   \      - P O W E R E D   B Y -                         
                 /     \                                                     
                 |  |  |   _    _      __       _____    __    __             
                 |  |  |  | |  | |    /  \     |  _  \  |  |  /  |          
                  \  \/   | |  | |   /    \    | | | |  |  | /  /          
                 / \  \   | |__| |  /  /\  \   | |_| |  |  |/  /          
                |  |  |   |  __  | /  /__\  \  |    /   |      \           
                |  |  |   | |  | | |   __   |  |    \   |  |\   \          
                \     /   | |  | | |  |  |  |  | |\  \  |  | \   \       
                 \___/    |_|  |_| |__|  |__|  |_| \__\ |__|  \__/        
                                                                              
                      - O R C A' S   B I G   F R I E N D -                    
                                      &                                       
                       - I N T E G R A L  F E E D E R -                       
                                                                              
 v1 FN, 2020, v2 2021                                                         
------------------------------------------------------------------------------


Reading SHARK input file pbeh-3c.SHARKINP.tmp ... ok
----------------------
SHARK INTEGRAL PACKAGE
----------------------

Number of atoms                             ...     18
Number of basis functions                   ...    114
Number of shells                            ...     66
Maximum angular momentum                    ...      2
Integral batch strategy                     ... SHARK/LIBINT Hybrid
RI-J (if used) integral strategy            ... SPLIT-RIJ (Revised 2003 algorithm where possible)
Printlevel                                  ...      1
Contraction scheme used                     ... SEGMENTED contraction
Coulomb Range Separation                    ... NOT USED
Exchange Range Separation                   ... NOT USED
Finite Nucleus Model                        ... NOT USED
Auxiliary Coulomb fitting basis             ... AVAILABLE
   # of basis functions in Aux-J            ...    426
   # of shells in Aux-J                     ...    150
   Maximum angular momentum in Aux-J        ...      4
Auxiliary J/K fitting basis                 ... NOT available
Auxiliary Correlation fitting basis         ... NOT available
Auxiliary 'external' fitting basis          ... NOT available
Integral threshold                          ...     2.500000e-11
Primitive cut-off                           ...     2.500000e-12
Primitive pair pre-selection threshold      ...     2.500000e-12

Calculating pre-screening integrals         ... done (  0.1 sec) Dimension = 66
Organizing shell pair data                  ... done (  0.1 sec)
Shell pair information
Total number of shell pairs                 ...      2211
Shell pairs after pre-screening             ...      1903
Total number of primitive shell pairs       ...      8115
Primitive shell pairs kept                  ...      4765
          la=0 lb=0:    977 shell pairs
          la=1 lb=0:    509 shell pairs
          la=1 lb=1:     75 shell pairs
          la=2 lb=0:    252 shell pairs
          la=2 lb=1:     70 shell pairs
          la=2 lb=2:     20 shell pairs

Calculating one electron integrals          ... done (  0.1 sec)
Calculating RI/J V-Matrix + Cholesky decomp.... done (  0.3 sec)
Calculating Nuclear repulsion               ... done (  0.0 sec) ENN=    297.938849671372 Eh

SHARK setup successfully completed in   1.8 seconds

Maximum memory used throughout the entire GTOINT-calculation: 10.6 MB


           ************************************************************
           *        Program running with 4 parallel MPI-processes     *
           *              working on a common directory               *
           ************************************************************
-------------------------------------------------------------------------------
                                 ORCA SCF
-------------------------------------------------------------------------------

------------
SCF SETTINGS
------------
Hamiltonian:
 Density Functional     Method          .... DFT(GTOs)
 Exchange Functional    Exchange        .... PBE
   PBE kappa parameter   XKappa         ....  1.024500
   PBE mue parameter    XMuePBE         ....  0.123457
 Correlation Functional Correlation     .... PBE
   PBE beta parameter  CBetaPBE         ....  0.030000
 LDA part of GGA corr.  LDAOpt          .... PW91-LDA
 Gradients option       PostSCFGGA      .... off
 Hybrid DFT is turned on
   Fraction HF Exchange ScalHFX         ....  0.420000
   Scaling of DF-GGA-X  ScalDFX         ....  0.580000
   Scaling of DF-GGA-C  ScalDFC         ....  1.000000
   Scaling of DF-LDA-C  ScalLDAC        ....  1.000000
   Perturbative correction              ....  0.000000
   Density functional embedding theory  .... OFF
 RI-approximation to the Coulomb term is turned on
   Number of AuxJ basis functions       .... 426
   RIJ-ON(X) (HFX calculated with O(N)) .... on
   Number of AuxJ basis functions       .... 426
   RIJ-COSX (HFX calculated with COS-X)).... on


General Settings:
 Integral files         IntName         .... pbeh-3c
 Hartree-Fock type      HFTyp           .... RHF
 Total Charge           Charge          ....    0
 Multiplicity           Mult            ....    1
 Number of Electrons    NEL             ....   60
 Basis Dimension        Dim             ....  114
 Nuclear Repulsion      ENuc            ....    297.9388496714 Eh

Convergence Acceleration:
 DIIS                   CNVDIIS         .... on
   Start iteration      DIISMaxIt       ....    12
   Startup error        DIISStart       ....  0.200000
   # of expansion vecs  DIISMaxEq       ....     5
   Bias factor          DIISBfac        ....   1.050
   Max. coefficient     DIISMaxC        ....  10.000
 Trust-Rad. Augm. Hess. CNVTRAH         .... auto
   Auto Start mean grad. ratio tolernc. ....  1.125000
   Auto Start start iteration           ....    20
   Auto Start num. interpolation iter.  ....    10
   Max. Number of Micro iterations      ....    16
   Max. Number of Macro iterations      .... Maxiter - #DIIS iter
   Number of Davidson start vectors     ....     2
   Converg. threshold I  (grad. norm)   ....   1.000e-05
   Converg. threshold II (energy diff.) ....   1.000e-08
   Grad. Scal. Fac. for Micro threshold ....   0.100
   Minimum threshold for Micro iter.    ....   0.010
   NR start threshold (gradient norm)   ....   0.001
   Initial trust radius                 ....   0.400
   Minimum AH scaling param. (alpha)    ....   1.000
   Maximum AH scaling param. (alpha)    .... 1000.000
   Orbital update algorithm             .... Taylor
   White noise on init. David. guess    .... on
   Maximum white noise                  ....   0.010
   Quad. conv. algorithm                .... NR
   COSX micro iterations for RIJONX calc.... off
 SOSCF                  CNVSOSCF        .... on
   Start iteration      SOSCFMaxIt      ....   150
   Startup grad/error   SOSCFStart      ....  0.003300
 Level Shifting         CNVShift        .... on
   Level shift para.    LevelShift      ....    0.2500
   Turn off err/grad.   ShiftErr        ....    0.0010
 Zerner damping         CNVZerner       .... off
 Static damping         CNVDamp         .... on
   Fraction old density DampFac         ....    0.7000
   Max. Damping (<1)    DampMax         ....    0.9800
   Min. Damping (>=0)   DampMin         ....    0.0000
   Turn off err/grad.   DampErr         ....    0.1000
 Fernandez-Rico         CNVRico         .... off

SCF Procedure:
 Maximum # iterations   MaxIter         ....   125
 SCF integral mode      SCFMode         .... Direct
   Integral package                     .... SHARK and LIBINT hybrid scheme
 Reset frequency        DirectResetFreq ....    20
 Integral Threshold     Thresh          ....  2.500e-11 Eh
 Primitive CutOff       TCut            ....  2.500e-12 Eh

Convergence Tolerance:
 Convergence Check Mode ConvCheckMode   .... Total+1el-Energy
 Convergence forced     ConvForced      .... 0
 Energy Change          TolE            ....  1.000e-08 Eh
 1-El. energy change                    ....  1.000e-05 Eh
 Orbital Gradient       TolG            ....  1.000e-05
 Orbital Rotation angle TolX            ....  1.000e-05
 DIIS Error             TolErr          ....  5.000e-07


Diagonalization of the overlap matrix:
Smallest eigenvalue                        ... 3.656e-02
Time for diagonalization                   ...    0.004 sec
Threshold for overlap eigenvalues          ... 1.000e-08
Number of eigenvalues below threshold      ... 0
Time for construction of square roots      ...    0.226 sec
Total time needed                          ...    0.270 sec

--------------------------------
INITIAL GUESS: MINIMAL BASIS EHT
--------------------------------
The minimal basis has 42 functions
EHT matrix was diagonalized
Basis set overlap was calculated now projecting the orbitals
Using GuessMode=FMatrix for the initial guess
C*T matrix was formed
Effective Fockian was calculated
Effective Fockian was diagonalized
Initial density was built
                      ------------------
                      INITIAL GUESS DONE
                      ------------------
-------------------
DFT GRID GENERATION
-------------------

General Integration Accuracy     IntAcc      ... 4.959
Radial Grid Type                 RadialGrid  ... OptM3 with GC (2021)
Angular Grid (max. ang.)         AngularGrid ... 6 (Lebedev-590)
Angular grid pruning method      GridPruning ... 4 (adaptive)
Weight generation scheme         WeightScheme... Becke
Basis function cutoff            BFCut       ... 1.0000e-11
Integration weight cutoff        WCut        ... 1.0000e-14
Angular grids for H and He will be reduced by one unit
Partially contracted basis set               ... off
Rotationally invariant grid construction     ... off

Total number of grid points                  ...   192062
Total number of batches                      ...     3013
Average number of points per batch           ...       63
Average number of grid points per atom       ...    10670
Time for grid setup =    3.830 sec

--------------------
COSX GRID GENERATION
--------------------

GRIDX 1
-------
General Integration Accuracy     IntAcc      ... 4.020
Radial Grid Type                 RadialGrid  ... OptM3 with GC (2021)
Angular Grid (max. ang.)         AngularGrid ... 2 (Lebedev-110)
Angular grid pruning method      GridPruning ... 4 (adaptive)
Weight generation scheme         WeightScheme... Becke
Basis function cutoff            BFCut       ... 1.0000e-11
Integration weight cutoff        WCut        ... 1.0000e-14
Angular grids for H and He will be reduced by one unit
Partially contracted basis set               ... on
Rotationally invariant grid construction     ... off

Total number of grid points                  ...    20231
Total number of batches                      ...      324
Average number of points per batch           ...       62
Average number of grid points per atom       ...     1124
UseSFitting                                  ... on

GRIDX 2
-------
General Integration Accuracy     IntAcc      ... 4.338
Radial Grid Type                 RadialGrid  ... OptM3 with GC (2021)
Angular Grid (max. ang.)         AngularGrid ... 3 (Lebedev-194)
Angular grid pruning method      GridPruning ... 4 (adaptive)
Weight generation scheme         WeightScheme... Becke
Basis function cutoff            BFCut       ... 1.0000e-11
Integration weight cutoff        WCut        ... 1.0000e-14
Angular grids for H and He will be reduced by one unit
Partially contracted basis set               ... on
Rotationally invariant grid construction     ... off

Total number of grid points                  ...    44109
Total number of batches                      ...      699
Average number of points per batch           ...       63
Average number of grid points per atom       ...     2450
UseSFitting                                  ... on

GRIDX 3
-------
General Integration Accuracy     IntAcc      ... 4.871
Radial Grid Type                 RadialGrid  ... OptM3 with GC (2021)
Angular Grid (max. ang.)         AngularGrid ... 4 (Lebedev-302)
Angular grid pruning method      GridPruning ... 4 (adaptive)
Weight generation scheme         WeightScheme... Becke
Basis function cutoff            BFCut       ... 1.0000e-11
Integration weight cutoff        WCut        ... 1.0000e-14
Angular grids for H and He will be reduced by one unit
Partially contracted basis set               ... on
Rotationally invariant grid construction     ... off

Total number of grid points                  ...    87959
Total number of batches                      ...     1383
Average number of points per batch           ...       63
Average number of grid points per atom       ...     4887
UseSFitting                                  ... on

Time for X-Grid setup             =    2.885 sec

--------------
SCF ITERATIONS
--------------
ITER       Energy         Delta-E        Max-DP      RMS-DP      [F,P]     Damp
               ***  Starting incremental Fock matrix formation  ***
  0   -456.1733478444   0.000000000000 0.15932957  0.00689317  0.4908670 0.7000
  1   -456.7282576178  -0.554909773364 0.09170720  0.00403461  0.2532817 0.7000
                               ***Turning on DIIS***
  2   -457.0200129459  -0.291755328194 0.04860370  0.00227020  0.1254723 0.7000
  3   -457.2131753490  -0.193162403101 0.07509820  0.00455613  0.0797737 0.0000
  4   -457.6765424281  -0.463367079059 0.01507978  0.00068828  0.0179543 0.0000
  5   -457.6786682389  -0.002125810801 0.00424284  0.00021396  0.0068993 0.0000
                      *** Initiating the SOSCF procedure ***
                           *** Shutting down DIIS ***
                      *** Re-Reading the Fockian *** 
                      *** Removing any level shift *** 
ITER      Energy       Delta-E        Grad      Rot      Max-DP    RMS-DP
  6   -457.67899475  -0.0003265071  0.001020  0.001020  0.001934  0.000106
               *** Restarting incremental Fock matrix formation ***
  7   -457.67901229  -0.0000175429  0.000384  0.000758  0.000788  0.000045
  8   -457.67901695  -0.0000046619  0.000087  0.000250  0.000420  0.000017
  9   -457.67901713  -0.0000001781  0.000084  0.000053  0.000196  0.000005
 10   -457.67901731  -0.0000001830  0.000006  0.000014  0.000017  0.000001
 11   -457.67901731  -0.0000000030  0.000004  0.000002  0.000011  0.000000
                  ***Gradient check signals convergence***
              ***Rediagonalizing the Fockian in SOSCF/NRSCF***

               *****************************************************
               *                     SUCCESS                       *
               *           SCF CONVERGED AFTER  12 CYCLES          *
               *****************************************************

Old exchange energy                            =    -22.553352289 Eh
New exchange energy                            =    -22.553362829 Eh
Exchange energy change after final integration =     -0.000010540 Eh
Total energy after final integration           =   -457.679027856 Eh
Final COS-X integration done in                =     2.849 sec

----------------
TOTAL SCF ENERGY
----------------

Total Energy       :         -457.67902786 Eh          -12454.07950 eV

Components:
Nuclear Repulsion  :          297.93884967 Eh            8107.32827 eV
Electronic Energy  :         -755.61787753 Eh          -20561.40777 eV
One Electron Energy:        -1224.43057979 Eh          -33318.44995 eV
Two Electron Energy:          468.81270226 Eh           12757.04218 eV
Max COSX asymmetry :            0.00000100 Eh               0.00003 eV

Virial components:
Potential Energy   :         -912.55253944 Eh          -24831.81702 eV
Kinetic Energy     :          454.87351158 Eh           12377.73752 eV
Virial Ratio       :            2.00616768


DFT components:
N(Alpha)           :       30.000029329449 electrons
N(Beta)            :       30.000029329449 electrons
N(Total)           :       60.000058658898 electrons
E(X)               :      -30.055476599747 Eh       
E(C)               :       -2.673607779918 Eh       
E(XC)              :      -32.729084379665 Eh       
DFET-embed. en.    :        0.000000000000 Eh       

---------------
SCF CONVERGENCE
---------------

  Last Energy change         ...   -1.2150e-09  Tolerance :   1.0000e-08
  Last MAX-Density change    ...    1.6653e-15  Tolerance :   1.0000e-07
  Last RMS-Density change    ...    4.6069e-17  Tolerance :   5.0000e-09
  Last Orbital Gradient      ...    2.0931e-06  Tolerance :   1.0000e-05
  Last Orbital Rotation      ...    1.7410e-06  Tolerance :   1.0000e-05

             **** THE GBW FILE WAS UPDATED (pbeh-3c.gbw) ****
             **** DENSITY pbeh-3c.scfp WAS UPDATED ****
             **** ENERGY FILE WAS UPDATED (pbeh-3c.en.tmp) ****
             **** THE GBW FILE WAS UPDATED (pbeh-3c.gbw) ****
             **** DENSITY pbeh-3c.scfp WAS UPDATED ****
----------------
ORBITAL ENERGIES
----------------

  NO   OCC          E(Eh)            E(eV) 
   0   2.0000     -19.494189      -530.4639 
   1   2.0000     -19.490932      -530.3752 
   2   2.0000     -19.488669      -530.3136 
   3   2.0000     -19.470279      -529.8132 
   4   2.0000     -19.467058      -529.7256 
   5   2.0000     -19.466006      -529.6969 
   6   2.0000      -1.124498       -30.5992 
   7   2.0000      -1.113227       -30.2924 
   8   2.0000      -1.106889       -30.1200 
   9   2.0000      -1.097554       -29.8660 
  10   2.0000      -1.089537       -29.6478 
  11   2.0000      -1.080082       -29.3905 
  12   2.0000      -0.612208       -16.6590 
  13   2.0000      -0.599257       -16.3066 
  14   2.0000      -0.589435       -16.0393 
  15   2.0000      -0.582878       -15.8609 
  16   2.0000      -0.570070       -15.5124 
  17   2.0000      -0.564965       -15.3735 
  18   2.0000      -0.488118       -13.2824 
  19   2.0000      -0.459936       -12.5155 
  20   2.0000      -0.452188       -12.3047 
  21   2.0000      -0.435677       -11.8554 
  22   2.0000      -0.433183       -11.7875 
  23   2.0000      -0.410636       -11.1740 
  24   2.0000      -0.379059       -10.3147 
  25   2.0000      -0.376061       -10.2331 
  26   2.0000      -0.372438       -10.1345 
  27   2.0000      -0.357804        -9.7363 
  28   2.0000      -0.349688        -9.5155 
  29   2.0000      -0.349049        -9.4981 
  30   0.0000       0.095242         2.5917 
  31   0.0000       0.143116         3.8944 
  32   0.0000       0.145769         3.9666 
  33   0.0000       0.160302         4.3620 
  34   0.0000       0.209822         5.7095 
  35   0.0000       0.221243         6.0203 
  36   0.0000       0.274335         7.4650 
  37   0.0000       0.279281         7.5996 
  38   0.0000       0.303213         8.2508 
  39   0.0000       0.318687         8.6719 
  40   0.0000       0.323905         8.8139 
  41   0.0000       0.341734         9.2991 
  42   0.0000       0.816078        22.2066 
  43   0.0000       0.845790        23.0151 
  44   0.0000       0.871613        23.7178 
  45   0.0000       0.885572        24.0976 
  46   0.0000       0.887665        24.1546 
  47   0.0000       0.911422        24.8011 
  48   0.0000       0.921218        25.0676 
  49   0.0000       0.940171        25.5834 
  50   0.0000       0.951720        25.8976 
  51   0.0000       0.963478        26.2176 
  52   0.0000       0.977582        26.6013 
  53   0.0000       0.988614        26.9016 
  54   0.0000       1.008634        27.4463 
  55   0.0000       1.021097        27.7855 
  56   0.0000       1.042383        28.3647 
  57   0.0000       1.054005        28.6809 
  58   0.0000       1.082976        29.4693 
  59   0.0000       1.097727        29.8707 
  60   0.0000       1.123370        30.5685 
  61   0.0000       1.133254        30.8374 
  62   0.0000       1.149947        31.2916 
  63   0.0000       1.182372        32.1740 
  64   0.0000       1.210253        32.9327 
  65   0.0000       1.218440        33.1554 
  66   0.0000       1.228762        33.4363 
  67   0.0000       1.241644        33.7869 
  68   0.0000       1.294638        35.2289 
  69   0.0000       1.348833        36.7036 
  70   0.0000       1.377449        37.4823 
  71   0.0000       1.396667        38.0052 
  72   0.0000       1.661664        45.2162 
  73   0.0000       1.752712        47.6937 
  74   0.0000       1.772827        48.2411 
  75   0.0000       1.776242        48.3340 
  76   0.0000       1.782367        48.5007 
  77   0.0000       1.786438        48.6114 
  78   0.0000       1.786715        48.6190 
  79   0.0000       1.792088        48.7652 
  80   0.0000       1.794013        48.8176 
  81   0.0000       1.797019        48.8994 
  82   0.0000       1.805118        49.1198 
  83   0.0000       1.805544        49.1313 
  84   0.0000       1.809716        49.2449 
  85   0.0000       1.813639        49.3516 
  86   0.0000       1.817640        49.4605 
  87   0.0000       1.821642        49.5694 
  88   0.0000       1.858152        50.5629 
  89   0.0000       1.868407        50.8419 
  90   0.0000       1.931909        52.5699 
  91   0.0000       1.956454        53.2378 
  92   0.0000       1.973706        53.7073 
  93   0.0000       1.986749        54.0622 
  94   0.0000       2.007052        54.6147 
  95   0.0000       2.019680        54.9583 
  96   0.0000       2.435840        66.2826 
  97   0.0000       2.480191        67.4894 
  98   0.0000       2.497960        67.9729 
  99   0.0000       2.535741        69.0010 
 100   0.0000       2.540647        69.1345 
 101   0.0000       2.567834        69.8743 
 102   0.0000       2.658693        72.3467 
 103   0.0000       2.690548        73.2135 
 104   0.0000       2.712265        73.8045 
 105   0.0000       2.719293        73.9957 
 106   0.0000       2.727097        74.2081 
 107   0.0000       2.743016        74.6413 
 108   0.0000      25.201781       685.7753 
 109   0.0000      25.360935       690.1061 
 110   0.0000      25.397603       691.1039 
 111   0.0000      25.459049       692.7759 
 112   0.0000      25.483352       693.4373 
 113   0.0000      25.566465       695.6989 

                    ********************************
                    * MULLIKEN POPULATION ANALYSIS *
                    ********************************

-----------------------
MULLIKEN ATOMIC CHARGES
-----------------------
   0 O :   -0.870882
   1 H :    0.414614
   2 H :    0.443738
   3 O :   -0.884109
   4 H :    0.448805
   5 H :    0.434900
   6 O :   -0.876831
   7 H :    0.455138
   8 H :    0.426480
   9 O :   -0.886840
  10 H :    0.429011
  11 H :    0.459178
  12 O :   -0.872632
  13 H :    0.433445
  14 H :    0.434909
  15 O :   -0.862161
  16 H :    0.419935
  17 H :    0.453302
Sum of atomic charges:   -0.0000000

--------------------------------
MULLIKEN REDUCED ORBITAL CHARGES
--------------------------------
  0 O s       :     3.836508  s :     3.836508
      pz      :     1.438047  p :     5.009777
      px      :     1.873745
      py      :     1.697985
      dz2     :     0.001267  d :     0.024597
      dxz     :     0.002973
      dyz     :     0.012424
      dx2y2   :     0.002799
      dxy     :     0.005133
  1 H s       :     0.585386  s :     0.585386
  2 H s       :     0.556262  s :     0.556262
  3 O s       :     3.838018  s :     3.838018
      pz      :     1.833781  p :     5.020893
      px      :     1.420595
      py      :     1.766517
      dz2     :     0.003725  d :     0.025198
      dxz     :     0.001699
      dyz     :     0.004968
      dx2y2   :     0.003933
      dxy     :     0.010872
  4 H s       :     0.551195  s :     0.551195
  5 H s       :     0.565100  s :     0.565100
  6 O s       :     3.836862  s :     3.836862
      pz      :     1.530444  p :     5.016443
      px      :     1.589186
      py      :     1.896813
      dz2     :     0.004516  d :     0.023527
      dxz     :     0.007247
      dyz     :     0.003025
      dx2y2   :     0.006673
      dxy     :     0.002065
  7 H s       :     0.544862  s :     0.544862
  8 H s       :     0.573520  s :     0.573520
  9 O s       :     3.835728  s :     3.835728
      pz      :     1.513528  p :     5.028550
      px      :     1.690561
      py      :     1.824461
      dz2     :     0.006111  d :     0.022562
      dxz     :     0.002858
      dyz     :     0.005349
      dx2y2   :     0.002040
      dxy     :     0.006203
 10 H s       :     0.570989  s :     0.570989
 11 H s       :     0.540822  s :     0.540822
 12 O s       :     3.839480  s :     3.839480
      pz      :     1.686781  p :     5.007140
      px      :     1.563741
      py      :     1.756618
      dz2     :     0.002358  d :     0.026012
      dxz     :     0.001698
      dyz     :     0.009178
      dx2y2   :     0.006124
      dxy     :     0.006655
 13 H s       :     0.566555  s :     0.566555
 14 H s       :     0.565091  s :     0.565091
 15 O s       :     3.836213  s :     3.836213
      pz      :     1.642376  p :     5.001087
      px      :     1.533972
      py      :     1.824738
      dz2     :     0.005614  d :     0.024862
      dxz     :     0.001438
      dyz     :     0.008160
      dx2y2   :     0.008817
      dxy     :     0.000833
 16 H s       :     0.580065  s :     0.580065
 17 H s       :     0.546698  s :     0.546698


                     *******************************
                     * LOEWDIN POPULATION ANALYSIS *
                     *******************************

----------------------
LOEWDIN ATOMIC CHARGES
----------------------
   0 O :   -0.613620
   1 H :    0.302345
   2 H :    0.298909
   3 O :   -0.605623
   4 H :    0.303246
   5 H :    0.300512
   6 O :   -0.608766
   7 H :    0.303330
   8 H :    0.308899
   9 O :   -0.613554
  10 H :    0.310502
  11 H :    0.307410
  12 O :   -0.602798
  13 H :    0.301448
  14 H :    0.298271
  15 O :   -0.600018
  16 H :    0.306458
  17 H :    0.303051

-------------------------------
LOEWDIN REDUCED ORBITAL CHARGES
-------------------------------
  0 O s       :     3.581243  s :     3.581243
      pz      :     1.434813  p :     5.001022
      px      :     1.865737
      py      :     1.700472
      dz2     :     0.002264  d :     0.031355
      dxz     :     0.003752
      dyz     :     0.016616
      dx2y2   :     0.003007
      dxy     :     0.005717
  1 H s       :     0.697655  s :     0.697655
  2 H s       :     0.701091  s :     0.701091
  3 O s       :     3.577217  s :     3.577217
      pz      :     1.833305  p :     4.997125
      px      :     1.406775
      py      :     1.757045
      dz2     :     0.004671  d :     0.031281
      dxz     :     0.002422
      dyz     :     0.005268
      dx2y2   :     0.005223
      dxy     :     0.013696
  4 H s       :     0.696754  s :     0.696754
  5 H s       :     0.699488  s :     0.699488
  6 O s       :     3.578222  s :     3.578222
      pz      :     1.515999  p :     5.000547
      px      :     1.590903
      py      :     1.893645
      dz2     :     0.006146  d :     0.029997
      dxz     :     0.009791
      dyz     :     0.003696
      dx2y2   :     0.007991
      dxy     :     0.002374
  7 H s       :     0.696670  s :     0.696670
  8 H s       :     0.691101  s :     0.691101
  9 O s       :     3.577673  s :     3.577673
      pz      :     1.492719  p :     5.006935
      px      :     1.688869
      py      :     1.825348
      dz2     :     0.008355  d :     0.028946
      dxz     :     0.004253
      dyz     :     0.006668
      dx2y2   :     0.002442
      dxy     :     0.007228
 10 H s       :     0.689498  s :     0.689498
 11 H s       :     0.692590  s :     0.692590
 12 O s       :     3.580961  s :     3.580961
      pz      :     1.682969  p :     4.989530
      px      :     1.556275
      py      :     1.750286
      dz2     :     0.002873  d :     0.032306
      dxz     :     0.002599
      dyz     :     0.011133
      dx2y2   :     0.007786
      dxy     :     0.007915
 13 H s       :     0.698552  s :     0.698552
 14 H s       :     0.701729  s :     0.701729
 15 O s       :     3.579428  s :     3.579428
      pz      :     1.644970  p :     4.989011
      px      :     1.518138
      py      :     1.825903
      dz2     :     0.007473  d :     0.031580
      dxz     :     0.002100
      dyz     :     0.010048
      dx2y2   :     0.010880
      dxy     :     0.001078
 16 H s       :     0.693542  s :     0.693542
 17 H s       :     0.696949  s :     0.696949


                      *****************************
                      * MAYER POPULATION ANALYSIS *
                      *****************************

  NA   - Mulliken gross atomic population
  ZA   - Total nuclear charge
  QA   - Mulliken gross atomic charge
  VA   - Mayer's total valence
  BVA  - Mayer's bonded valence
  FA   - Mayer's free valence

  ATOM       NA         ZA         QA         VA         BVA        FA
  0 O      8.8709     8.0000    -0.8709     1.6405     1.6405    -0.0000
  1 H      0.5854     1.0000     0.4146     0.8094     0.8094    -0.0000
  2 H      0.5563     1.0000     0.4437     0.8251     0.8251    -0.0000
  3 O      8.8841     8.0000    -0.8841     1.6656     1.6656    -0.0000
  4 H      0.5512     1.0000     0.4488     0.8202     0.8202     0.0000
  5 H      0.5651     1.0000     0.4349     0.8214     0.8214     0.0000
  6 O      8.8768     8.0000    -0.8768     1.6626     1.6626    -0.0000
  7 H      0.5449     1.0000     0.4551     0.8148     0.8148    -0.0000
  8 H      0.5735     1.0000     0.4265     0.8004     0.8004     0.0000
  9 O      8.8868     8.0000    -0.8868     1.6620     1.6620    -0.0000
 10 H      0.5710     1.0000     0.4290     0.7987     0.7987    -0.0000
 11 H      0.5408     1.0000     0.4592     0.8163     0.8163    -0.0000
 12 O      8.8726     8.0000    -0.8726     1.6614     1.6614    -0.0000
 13 H      0.5666     1.0000     0.4334     0.8208     0.8208    -0.0000
 14 H      0.5651     1.0000     0.4349     0.8243     0.8243    -0.0000
 15 O      8.8622     8.0000    -0.8622     1.6621     1.6621    -0.0000
 16 H      0.5801     1.0000     0.4199     0.8044     0.8044    -0.0000
 17 H      0.5467     1.0000     0.4533     0.8140     0.8140    -0.0000

  Mayer bond orders larger than 0.100000
B(  0-O ,  1-H ) :   0.8078 B(  0-O ,  2-H ) :   0.6838 B(  0-O ,  4-H ) :   0.1233 
B(  2-H , 12-O ) :   0.1401 B(  3-O ,  4-H ) :   0.6969 B(  3-O ,  5-H ) :   0.7384 
B(  3-O , 11-H ) :   0.1861 B(  6-O ,  7-H ) :   0.6659 B(  6-O ,  8-H ) :   0.7974 
B(  7-H , 15-O ) :   0.1472 B(  9-O , 10-H ) :   0.7952 B(  9-O , 11-H ) :   0.6278 
B(  9-O , 17-H ) :   0.1299 B( 12-O , 13-H ) :   0.7466 B( 12-O , 14-H ) :   0.7353 
B( 15-O , 16-H ) :   0.8045 B( 15-O , 17-H ) :   0.6840 

-------
TIMINGS
-------

Total SCF time: 0 days 0 hours 1 min 21 sec 

Total time                  ....      81.960 sec
Sum of individual times     ....      75.244 sec  ( 91.8%)

Fock matrix formation       ....      63.314 sec  ( 77.2%)
  Split-RI-J                ....       8.952 sec  ( 14.1% of F)
  Chain of spheres X        ....      20.774 sec  ( 32.8% of F)
  XC integration            ....      17.430 sec  ( 27.5% of F)
    Basis function eval.    ....       3.142 sec  ( 18.0% of XC)
    Density eval.           ....       1.508 sec  (  8.7% of XC)
    XC-Functional eval.     ....       1.462 sec  (  8.4% of XC)
    XC-Potential eval.      ....       0.650 sec  (  3.7% of XC)
Diagonalization             ....       0.740 sec  (  0.9%)
Density matrix formation    ....       0.115 sec  (  0.1%)
Population analysis         ....       0.132 sec  (  0.2%)
Initial guess               ....       0.200 sec  (  0.2%)
Orbital Transformation      ....       0.000 sec  (  0.0%)
Orbital Orthonormalization  ....       0.000 sec  (  0.0%)
DIIS solution               ....       2.773 sec  (  3.4%)
SOSCF solution              ....       1.255 sec  (  1.5%)
Grid generation             ....       6.715 sec  (  8.2%)

Maximum memory used throughout the entire SCF-calculation: 53.6 MB


-------------------------------------------------------------------------------
                          DFT DISPERSION CORRECTION                            
                                                                               
                              DFTD3 V3.1  Rev 1                                
                          USING Becke-Johnson damping                          
-------------------------------------------------------------------------------
The PBEh-3c composite method is recognized
Using three-body term ABC
Active option DFTDOPT                   ...         4   

molecular C6(AA) [au] = 1602.580833 


            DFT-D V3
 parameters
 s6 scaling factor         :     1.0000 
 a1 scaling factor         :     0.4860 
 s8 scaling factor         :     0.0000 
 a2 scaling factor         :     4.5000 
 Damping factor alpha9(ATM):    16.0000 
 ad hoc parameters k1-k3   :    16.0000     1.3333    -4.0000 

 Edisp/kcal,au: -3.769072966359  -0.006006399457 
 E6   /kcal   :  -3.835844163 
 E8   /kcal   :  -0.000000000 
 E6(ABC)      :   0.066771197 
 % E8         :   0.000000000 
 % E6(ABC)    :  -1.771554898 

-------------------------   ----------------
Dispersion correction           -0.006006399
-------------------------   ----------------

------------------   -----------------
gCP correction             0.047996381
------------------   -----------------

-------------------------   --------------------
FINAL SINGLE POINT ENERGY      -457.637037875144
-------------------------   --------------------


                            ***************************************
                            *     ORCA property calculations      *
                            ***************************************

                                    ---------------------
                                    Active property flags
                                    ---------------------
   (+) Dipole Moment


------------------------------------------------------------------------------
                       ORCA ELECTRIC PROPERTIES CALCULATION
------------------------------------------------------------------------------

Dipole Moment Calculation                       ... on
Quadrupole Moment Calculation                   ... off
Polarizability Calculation                      ... off
GBWName                                         ... pbeh-3c.gbw
Electron density                                ... pbeh-3c.scfp
The origin for moment calculation is the CENTER OF MASS  = (-0.085307, -0.046939  0.034907)

-------------
DIPOLE MOMENT
-------------
                                X             Y             Z
Electronic contribution:     -0.02537      -0.11442      -0.02778
Nuclear contribution   :      0.81278       0.44722      -0.33259
                        -----------------------------------------
Total Dipole Moment    :      0.78741       0.33280      -0.36037
                        -----------------------------------------
Magnitude (a.u.)       :      0.92770
Magnitude (Debye)      :      2.35804



--------------------
Rotational spectrum 
--------------------
 
Rotational constants in cm-1:     0.074211     0.037806     0.036130 
Rotational constants in MHz :  2224.797981  1133.382270  1083.162549 

 Dipole components along the rotational axes: 
x,y,z [a.u.] :     0.680453    -0.566093     0.277772 
x,y,z [Debye]:     1.729573    -1.438894     0.706041 

 

Timings for individual modules:

Sum of individual times         ...       85.384 sec (=   1.423 min)
GTO integral calculation        ...        2.606 sec (=   0.043 min)   3.1 %
SCF iterations                  ...       82.778 sec (=   1.380 min)  96.9 %
                             ****ORCA TERMINATED NORMALLY****
TOTAL RUN TIME: 0 days 0 hours 1 minutes 27 seconds 663 msec
