
                                 *****************
                                 * O   R   C   A *
                                 *****************

                                            #,                                       
                                            ###                                      
                                            ####                                     
                                            #####                                    
                                            ######                                   
                                           ########,                                 
                                     ,,################,,,,,                         
                               ,,#################################,,                 
                          ,,##########################################,,             
                       ,#########################################, ''#####,          
                    ,#############################################,,   '####,        
                  ,##################################################,,,,####,       
                ,###########''''           ''''###############################       
              ,#####''   ,,,,##########,,,,          '''####'''          '####       
            ,##' ,,,,###########################,,,                        '##       
           ' ,,###''''                  '''############,,,                           
         ,,##''                                '''############,,,,        ,,,,,,###''
      ,#''                                            '''#######################'''  
     '                                                          ''''####''''         
             ,#######,   #######,   ,#######,      ##                                
            ,#'     '#,  ##    ##  ,#'     '#,    #''#        ######   ,####,        
            ##       ##  ##   ,#'  ##            #'  '#       #        #'  '#        
            ##       ##  #######   ##           ,######,      #####,   #    #        
            '#,     ,#'  ##    ##  '#,     ,#' ,#      #,         ##   #,  ,#        
             '#######'   ##     ##  '#######'  #'      '#     #####' # '####'        



                  #######################################################
                  #                        -***-                        #
                  #          Department of theory and spectroscopy      #
                  #    Directorship and core code : Frank Neese         #
                  #        Max Planck Institute fuer Kohlenforschung    #
                  #                Kaiser Wilhelm Platz 1               #
                  #                 D-45470 Muelheim/Ruhr               #
                  #                      Germany                        #
                  #                                                     #
                  #                  All rights reserved                #
                  #                        -***-                        #
                  #######################################################


                         Program Version 5.0.3 -  RELEASE  -


 With contributions from (in alphabetic order):
   Daniel Aravena         : Magnetic Suceptibility
   Michael Atanasov       : Ab Initio Ligand Field Theory (pilot matlab implementation)
   Alexander A. Auer      : GIAO ZORA, VPT2 properties, NMR spectrum
   Ute Becker             : Parallelization
   Giovanni Bistoni       : ED, misc. LED, open-shell LED, HFLD
   Martin Brehm           : Molecular dynamics
   Dmytro Bykov           : SCF Hessian
   Vijay G. Chilkuri      : MRCI spin determinant printing, contributions to CSF-ICE
   Dipayan Datta          : RHF DLPNO-CCSD density
   Achintya Kumar Dutta   : EOM-CC, STEOM-CC
   Dmitry Ganyushin       : Spin-Orbit,Spin-Spin,Magnetic field MRCI
   Miquel Garcia          : C-PCM and meta-GGA Hessian, CC/C-PCM, Gaussian charge scheme
   Yang Guo               : DLPNO-NEVPT2, F12-NEVPT2, CIM, IAO-localization
   Andreas Hansen         : Spin unrestricted coupled pair/coupled cluster methods
   Benjamin Helmich-Paris : MC-RPA, TRAH-SCF, COSX integrals
   Lee Huntington         : MR-EOM, pCC
   Robert Izsak           : Overlap fitted RIJCOSX, COSX-SCS-MP3, EOM
   Marcus Kettner         : VPT2
   Christian Kollmar      : KDIIS, OOCD, Brueckner-CCSD(T), CCSD density, CASPT2, CASPT2-K
   Simone Kossmann        : Meta GGA functionals, TD-DFT gradient, OOMP2, MP2 Hessian
   Martin Krupicka        : Initial AUTO-CI
   Lucas Lang             : DCDCAS
   Marvin Lechner         : AUTO-CI (C++ implementation), FIC-MRCC
   Dagmar Lenk            : GEPOL surface, SMD
   Dimitrios Liakos       : Extrapolation schemes; Compound Job, initial MDCI parallelization
   Dimitrios Manganas     : Further ROCIS development; embedding schemes
   Dimitrios Pantazis     : SARC Basis sets
   Anastasios Papadopoulos: AUTO-CI, single reference methods and gradients
   Taras Petrenko         : DFT Hessian,TD-DFT gradient, ASA, ECA, R-Raman, ABS, FL, XAS/XES, NRVS
   Peter Pinski           : DLPNO-MP2, DLPNO-MP2 Gradient
   Christoph Reimann      : Effective Core Potentials
   Marius Retegan         : Local ZFS, SOC
   Christoph Riplinger    : Optimizer, TS searches, QM/MM, DLPNO-CCSD(T), (RO)-DLPNO pert. Triples
   Tobias Risthaus        : Range-separated hybrids, TD-DFT gradient, RPA, STAB
   Michael Roemelt        : Original ROCIS implementation
   Masaaki Saitow         : Open-shell DLPNO-CCSD energy and density
   Barbara Sandhoefer     : DKH picture change effects
   Avijit Sen             : IP-ROCIS
   Kantharuban Sivalingam : CASSCF convergence, NEVPT2, FIC-MRCI
   Bernardo de Souza      : ESD, SOC TD-DFT
   Georgi Stoychev        : AutoAux, RI-MP2 NMR, DLPNO-MP2 response
   Willem Van den Heuvel  : Paramagnetic NMR
   Boris Wezisla          : Elementary symmetry handling
   Frank Wennmohs         : Technical directorship


 We gratefully acknowledge several colleagues who have allowed us to
 interface, adapt or use parts of their codes:
   Stefan Grimme, W. Hujo, H. Kruse, P. Pracht,  : VdW corrections, initial TS optimization,
                  C. Bannwarth, S. Ehlert          DFT functionals, gCP, sTDA/sTD-DF
   Ed Valeev, F. Pavosevic, A. Kumar             : LibInt (2-el integral package), F12 methods
   Garnet Chan, S. Sharma, J. Yang, R. Olivares  : DMRG
   Ulf Ekstrom                                   : XCFun DFT Library
   Mihaly Kallay                                 : mrcc  (arbitrary order and MRCC methods)
   Jiri Pittner, Ondrej Demel                    : Mk-CCSD
   Frank Weinhold                                : gennbo (NPA and NBO analysis)
   Christopher J. Cramer and Donald G. Truhlar   : smd solvation model
   Lars Goerigk                                  : TD-DFT with DH, B97 family of functionals
   V. Asgeirsson, H. Jonsson                     : NEB implementation
   FAccTs GmbH                                   : IRC, NEB, NEB-TS, DLPNO-Multilevel, CI-OPT
                                                   MM, QMMM, 2- and 3-layer-ONIOM, Crystal-QMMM,
                                                   LR-CPCM, SF, NACMEs, symmetry and pop. for TD-DFT,
                                                   nearIR, NL-DFT gradient (VV10), updates on ESD,
                                                   ML-optimized integration grids
   S Lehtola, MJT Oliveira, MAL Marques          : LibXC Library
   Liviu Ungur et al                             : ANISO software


 Your calculation uses the libint2 library for the computation of 2-el integrals
 For citations please refer to: http://libint.valeyev.net

 Your ORCA version has been built with support for libXC version: 5.1.0
 For citations please refer to: https://tddft.org/programs/libxc/

 This ORCA versions uses:
   CBLAS   interface :  Fast vector & matrix operations
   LAPACKE interface :  Fast linear algebra routines
   SCALAPACK package :  Parallel linear algebra routines
   Shared memory     :  Shared parallel matrices
   BLAS/LAPACK       :  OpenBLAS 0.3.15  USE64BITINT DYNAMIC_ARCH NO_AFFINITY Haswell SINGLE_THREADED
        Core in use  :  Haswell
   Copyright (c) 2011-2014, The OpenBLAS Project




***************************************
The coordinates will be read from file: pbme3.xyz
***************************************


Your calculation utilizes the geometrical counterpoise correction gCP
Please cite in your paper:
H.Kruse, S. Grimme J.Chem.Phys., 136, (2012), 154101 
   

Your calculation utilizes the atom-pairwise dispersion correction
with the Becke-Johnson damping scheme (D3BJ)
Cite in your paper:
S.Grimme, S.Ehrlich, L.Goerigk, J Comput Chem, (2011), 32, 1456–1465 
S.Grimme, J.Antony, S.Ehrlich and H.Krieg, J.Chem.Phys., 132, (2010), 154104 
   

Your calculation employs the composite approach PBEh-3c.
Please cite in your paper:
S. Grimme, J. G. Brandenburg, C. Bannwarth, A. Hansen J.Chem.Phys., 143, (2015), 054107 
   

================================================================================

cite the ECPs for Pb [Def2-ECP] as follows:
Ce-Yb(ecp-28): M. Dolg, H. Stoll, H.Preuss, J. Chem. Phys., 1989, 90, 1730-1734.
Y-Cd(ecp-28), Hf-Hg(ecp-46): D. Andrae,U. Haeussermann, M. Dolg, H. Stoll, H. Preuss, Theor. Chim. Acta, 1990, 77, 123-141.
In-Sb(ecp-28), Tl-Bi(ecp-46): B. Metz, H. Stoll, M. Dolg, J. Chem. Phys., 2000, 113, 2563-2569.
Te-Xe(ecp-28), Po-Rn(ecp-46): K. A. Peterson, D. Figgen, E. Goll, H. Stoll, M. Dolg, J. Chem. Phys., 2003, 119, 11113-11123.
Rb(ecp-28), Cs(ecp-46): T. Leininger, A. Nicklass, W. Kuechle, H. Stoll, M. Dolg, A. Bergner, Chem. Phys. Lett., 1996, 255, 274-280.
Sr(ecp-28), Ba(ecp-46): M. Kaupp, P. V. Schleyer, H. Stoll and H. Preuss, J. Chem. Phys., 1991, 94, 1360-1366.
La(ecp-46): M. Dolg, H. Stoll, A. Savin, H. Preuss, Theor. Chim. Acta, 1989, 75, 173-194.
Lu(ecp-28): X. Cao, M. Dolg, J. Chem. Phys., 2001, 115, 7348-7355.

ECP parameters for Pb [Def2-ECP] have been obtained from:
TURBOMOLE (7.0.2)

----- Orbital basis set information -----
Your calculation utilizes the basis: def2-mSVP

----- AuxJ basis set information -----
Your calculation utilizes the auxiliary basis: def2/J
   F. Weigend, Phys. Chem. Chem. Phys. 8, 1057 (2006).

================================================================================
                                        WARNINGS
                       Please study these warnings very carefully!
================================================================================


WARNING: your system is open-shell and RHF/RKS was chosen
  ===> : WILL SWITCH to UHF/UKS


WARNING: No Hueckel Guess possible with ECP basis!
  ===> : Switching to HCORE guess!

INFO   : the flag for use of the SHARK integral package has been found!

================================================================================
                                       INPUT FILE
================================================================================
NAME = pbeh-3c.inp
|  1> ! PBEh-3c def2/J TightSCF DefGrid3
|  2> 
|  3> %maxcore 60000
|  4> 
|  5> %pal
|  6> nprocs 4
|  7> end
|  8> 
|  9> *xyzfile 0 2 pbme3.xyz
| 10> 
| 11>                          ****END OF INPUT****
================================================================================

                       ****************************
                       * Single Point Calculation *
                       ****************************

---------------------------------
CARTESIAN COORDINATES (ANGSTROEM)
---------------------------------
  Pb    -0.000000    0.000000   -0.895988
  C      1.045997    1.811720   -0.034445
  C      1.045997   -1.811720   -0.034445
  C     -2.091994    0.000000   -0.034445
  H      0.994935    1.723277    1.052445
  H      2.084780    1.824474   -0.359669
  H      0.537651    2.717709   -0.359669
  H     -2.622431    0.893235   -0.359669
  H     -2.622431   -0.893235   -0.359669
  H     -1.989869    0.000000    1.052445
  H      0.537651   -2.717709   -0.359669
  H      2.084780   -1.824474   -0.359669
  H      0.994935   -1.723277    1.052445

----------------------------
CARTESIAN COORDINATES (A.U.)
----------------------------
  NO LB      ZA    FRAG     MASS         X           Y           Z
   0 Pb   22.0000*   0   207.200   -0.000000    0.000000   -1.693171
   1 C     6.0000    0    12.011    1.976648    3.423655   -0.065091
   2 C     6.0000    0    12.011    1.976648   -3.423655   -0.065091
   3 C     6.0000    0    12.011   -3.953296    0.000000   -0.065091
   4 H     1.0000    0     1.008    1.880154    3.256522    1.988833
   5 H     1.0000    0     1.008    3.939662    3.447756   -0.679676
   6 H     1.0000    0     1.008    1.016013    5.135726   -0.679676
   7 H     1.0000    0     1.008   -4.955675    1.687970   -0.679676
   8 H     1.0000    0     1.008   -4.955675   -1.687970   -0.679676
   9 H     1.0000    0     1.008   -3.760307    0.000000    1.988833
  10 H     1.0000    0     1.008    1.016013   -5.135726   -0.679676
  11 H     1.0000    0     1.008    3.939662   -3.447756   -0.679676
  12 H     1.0000    0     1.008    1.880154   -3.256522    1.988833
* core charge reduced due to ECP

--------------------------------
INTERNAL COORDINATES (ANGSTROEM)
--------------------------------
 Pb     0   0   0     0.000000000000     0.00000000     0.00000000
 C      1   0   0     2.262453652443     0.00000000     0.00000000
 C      1   2   0     2.262453652443   106.40867432     0.00000000
 C      1   2   3     2.262453682264   106.40867201   113.18506497
 H      2   1   3     1.091677054363   107.01545545   303.40747066
 H      2   1   3     1.088578268649   109.68163855    62.77820894
 H      2   1   3     1.088578272947   109.68164595   184.03672316
 H      4   1   2     1.088578244843   109.68164044    62.77820873
 H      4   1   2     1.088578244843   109.68164044   184.03672471
 H      4   1   2     1.091677057039   107.01545365   303.40746672
 H      3   1   2     1.088578272947   109.68164595   175.96327684
 H      3   1   2     1.088578268649   109.68163855   297.22179106
 H      3   1   2     1.091677054363   107.01545545    56.59252934

---------------------------
INTERNAL COORDINATES (A.U.)
---------------------------
 Pb     0   0   0     0.000000000000     0.00000000     0.00000000
 C      1   0   0     4.275417793808     0.00000000     0.00000000
 C      1   2   0     4.275417793808   106.40867432     0.00000000
 C      1   2   3     4.275417850161   106.40867201   113.18506497
 H      2   1   3     2.062970659432   107.01545545   303.40747066
 H      2   1   3     2.057114803085   109.68163855    62.77820894
 H      2   1   3     2.057114811207   109.68164595   184.03672316
 H      4   1   2     2.057114758097   109.68164044    62.77820873
 H      4   1   2     2.057114758097   109.68164044   184.03672471
 H      4   1   2     2.062970664490   107.01545365   303.40746672
 H      3   1   2     2.057114811207   109.68164595   175.96327684
 H      3   1   2     2.057114803085   109.68163855   297.22179106
 H      3   1   2     2.062970659432   107.01545545    56.59252934

---------------------
BASIS SET INFORMATION
---------------------
There are 3 groups of distinct atoms

 Group   1 Type Pb  : 10s7p6d contracted to 4s4p2d pattern {6211/4111/51}
 Group   2 Type C   : 8s4p1d contracted to 4s2p1d pattern {5111/31/1}
 Group   3 Type H   : 4s contracted to 2s pattern {31}

Atom   0Pb   basis set group =>   1
Atom   1C    basis set group =>   2
Atom   2C    basis set group =>   2
Atom   3C    basis set group =>   2
Atom   4H    basis set group =>   3
Atom   5H    basis set group =>   3
Atom   6H    basis set group =>   3
Atom   7H    basis set group =>   3
Atom   8H    basis set group =>   3
Atom   9H    basis set group =>   3
Atom  10H    basis set group =>   3
Atom  11H    basis set group =>   3
Atom  12H    basis set group =>   3
---------------------------------
AUXILIARY/J BASIS SET INFORMATION
---------------------------------
There are 3 groups of distinct atoms

 Group   1 Type Pb  : 11s5p5d3f1g contracted to 8s4p3d2f1g pattern {41111111/2111/311/21/1}
 Group   2 Type C   : 12s5p4d2f1g contracted to 6s4p3d1f1g pattern {711111/2111/211/2/1}
 Group   3 Type H   : 5s2p1d contracted to 3s1p1d pattern {311/2/1}

Atom   0Pb   basis set group =>   1
Atom   1C    basis set group =>   2
Atom   2C    basis set group =>   2
Atom   3C    basis set group =>   2
Atom   4H    basis set group =>   3
Atom   5H    basis set group =>   3
Atom   6H    basis set group =>   3
Atom   7H    basis set group =>   3
Atom   8H    basis set group =>   3
Atom   9H    basis set group =>   3
Atom  10H    basis set group =>   3
Atom  11H    basis set group =>   3
Atom  12H    basis set group =>   3
-------------------------
ECP PARAMETER INFORMATION
-------------------------

 Group 1, Type Pb ECP Def2-ECP (replacing 60 core electrons, lmax=3)

Atom   0Pb   ECP group =>   1



           ************************************************************
           *        Program running with 4 parallel MPI-processes     *
           *              working on a common directory               *
           ************************************************************
------------------------------------------------------------------------------
                           ORCA GTO INTEGRAL CALCULATION
                           -- RI-GTO INTEGRALS CHOSEN --
------------------------------------------------------------------------------
------------------------------------------------------------------------------
                   ___                                                        
                  /   \      - P O W E R E D   B Y -                         
                 /     \                                                     
                 |  |  |   _    _      __       _____    __    __             
                 |  |  |  | |  | |    /  \     |  _  \  |  |  /  |          
                  \  \/   | |  | |   /    \    | | | |  |  | /  /          
                 / \  \   | |__| |  /  /\  \   | |_| |  |  |/  /          
                |  |  |   |  __  | /  /__\  \  |    /   |      \           
                |  |  |   | |  | | |   __   |  |    \   |  |\   \          
                \     /   | |  | | |  |  |  |  | |\  \  |  | \   \       
                 \___/    |_|  |_| |__|  |__|  |_| \__\ |__|  \__/        
                                                                              
                      - O R C A' S   B I G   F R I E N D -                    
                                      &                                       
                       - I N T E G R A L  F E E D E R -                       
                                                                              
 v1 FN, 2020, v2 2021                                                         
------------------------------------------------------------------------------


Reading SHARK input file pbeh-3c.SHARKINP.tmp ... ok
----------------------
SHARK INTEGRAL PACKAGE
----------------------

Number of atoms                             ...     13
Number of basis functions                   ...     89
Number of shells                            ...     49
Maximum angular momentum                    ...      2
Integral batch strategy                     ... SHARK/LIBINT Hybrid
RI-J (if used) integral strategy            ... SPLIT-RIJ (Revised 2003 algorithm where possible)
Printlevel                                  ...      1
Contraction scheme used                     ... SEGMENTED contraction
Coulomb Range Separation                    ... NOT USED
Exchange Range Separation                   ... NOT USED
Finite Nucleus Model                        ... NOT USED
Auxiliary Coulomb fitting basis             ... AVAILABLE
   # of basis functions in Aux-J            ...    304
   # of shells in Aux-J                     ...    108
   Maximum angular momentum in Aux-J        ...      4
Auxiliary J/K fitting basis                 ... NOT available
Auxiliary Correlation fitting basis         ... NOT available
Auxiliary 'external' fitting basis          ... NOT available
Integral threshold                          ...     2.500000e-11
Primitive cut-off                           ...     2.500000e-12
Primitive pair pre-selection threshold      ...     2.500000e-12

Calculating pre-screening integrals         ... done (  0.1 sec) Dimension = 49
Organizing shell pair data                  ... done (  0.6 sec)
Shell pair information
Total number of shell pairs                 ...      1225
Shell pairs after pre-screening             ...      1153
Total number of primitive shell pairs       ...      4949
Primitive shell pairs kept                  ...      3461
          la=0 lb=0:    538 shell pairs
          la=1 lb=0:    337 shell pairs
          la=1 lb=1:     55 shell pairs
          la=2 lb=0:    158 shell pairs
          la=2 lb=1:     50 shell pairs
          la=2 lb=2:     15 shell pairs

Calculating one electron integrals          ... done (  0.0 sec)
Calculating ECP integrals                   ... done (  0.1 sec)
Calculating RI/J V-Matrix + Cholesky decomp.... done (  0.3 sec)
Calculating Nuclear repulsion               ... done (  0.0 sec) ENN=    192.247130131043 Eh

SHARK setup successfully completed in   2.2 seconds

Maximum memory used throughout the entire GTOINT-calculation: 10.8 MB


           ************************************************************
           *        Program running with 4 parallel MPI-processes     *
           *              working on a common directory               *
           ************************************************************
-------------------------------------------------------------------------------
                                 ORCA SCF
-------------------------------------------------------------------------------

------------
SCF SETTINGS
------------
Hamiltonian:
 Density Functional     Method          .... DFT(GTOs)
 Exchange Functional    Exchange        .... PBE
   PBE kappa parameter   XKappa         ....  1.024500
   PBE mue parameter    XMuePBE         ....  0.123457
 Correlation Functional Correlation     .... PBE
   PBE beta parameter  CBetaPBE         ....  0.030000
 LDA part of GGA corr.  LDAOpt          .... PW91-LDA
 Gradients option       PostSCFGGA      .... off
 Hybrid DFT is turned on
   Fraction HF Exchange ScalHFX         ....  0.420000
   Scaling of DF-GGA-X  ScalDFX         ....  0.580000
   Scaling of DF-GGA-C  ScalDFC         ....  1.000000
   Scaling of DF-LDA-C  ScalLDAC        ....  1.000000
   Perturbative correction              ....  0.000000
   Density functional embedding theory  .... OFF
 RI-approximation to the Coulomb term is turned on
   Number of AuxJ basis functions       .... 304
   RIJ-ON(X) (HFX calculated with O(N)) .... on
   Number of AuxJ basis functions       .... 304
   RIJ-COSX (HFX calculated with COS-X)).... on


General Settings:
 Integral files         IntName         .... pbeh-3c
 Hartree-Fock type      HFTyp           .... UHF
 Total Charge           Charge          ....    0
 Multiplicity           Mult            ....    2
 Number of Electrons    NEL             ....   49
 Basis Dimension        Dim             ....   89
 Nuclear Repulsion      ENuc            ....    192.2471301310 Eh

Convergence Acceleration:
 DIIS                   CNVDIIS         .... on
   Start iteration      DIISMaxIt       ....    12
   Startup error        DIISStart       ....  0.200000
   # of expansion vecs  DIISMaxEq       ....     5
   Bias factor          DIISBfac        ....   1.050
   Max. coefficient     DIISMaxC        ....  10.000
 Trust-Rad. Augm. Hess. CNVTRAH         .... auto
   Auto Start mean grad. ratio tolernc. ....  1.125000
   Auto Start start iteration           ....    20
   Auto Start num. interpolation iter.  ....    10
   Max. Number of Micro iterations      ....    16
   Max. Number of Macro iterations      .... Maxiter - #DIIS iter
   Number of Davidson start vectors     ....     2
   Converg. threshold I  (grad. norm)   ....   1.000e-05
   Converg. threshold II (energy diff.) ....   1.000e-08
   Grad. Scal. Fac. for Micro threshold ....   0.100
   Minimum threshold for Micro iter.    ....   0.010
   NR start threshold (gradient norm)   ....   0.001
   Initial trust radius                 ....   0.400
   Minimum AH scaling param. (alpha)    ....   1.000
   Maximum AH scaling param. (alpha)    .... 1000.000
   Orbital update algorithm             .... Taylor
   White noise on init. David. guess    .... on
   Maximum white noise                  ....   0.010
   Quad. conv. algorithm                .... NR
   COSX micro iterations for RIJONX calc.... off
 SOSCF                  CNVSOSCF        .... off
 Level Shifting         CNVShift        .... on
   Level shift para.    LevelShift      ....    0.2500
   Turn off err/grad.   ShiftErr        ....    0.0010
 Zerner damping         CNVZerner       .... off
 Static damping         CNVDamp         .... on
   Fraction old density DampFac         ....    0.7000
   Max. Damping (<1)    DampMax         ....    0.9800
   Min. Damping (>=0)   DampMin         ....    0.0000
   Turn off err/grad.   DampErr         ....    0.1000
 Fernandez-Rico         CNVRico         .... off

SCF Procedure:
 Maximum # iterations   MaxIter         ....   125
 SCF integral mode      SCFMode         .... Direct
   Integral package                     .... SHARK and LIBINT hybrid scheme
 Reset frequency        DirectResetFreq ....    20
 Integral Threshold     Thresh          ....  2.500e-11 Eh
 Primitive CutOff       TCut            ....  2.500e-12 Eh

Convergence Tolerance:
 Convergence Check Mode ConvCheckMode   .... Total+1el-Energy
 Convergence forced     ConvForced      .... 0
 Energy Change          TolE            ....  1.000e-08 Eh
 1-El. energy change                    ....  1.000e-05 Eh
 DIIS Error             TolErr          ....  5.000e-07


Diagonalization of the overlap matrix:
Smallest eigenvalue                        ... 1.802e-02
Time for diagonalization                   ...    0.002 sec
Threshold for overlap eigenvalues          ... 1.000e-08
Number of eigenvalues below threshold      ... 0
Time for construction of square roots      ...    0.201 sec
Total time needed                          ...    0.203 sec

--------------------
INITIAL GUESS: HCORE
--------------------
                      -----------------
                      INTIAL GUESS DONE 
                      -----------------
-------------------
DFT GRID GENERATION
-------------------

General Integration Accuracy     IntAcc      ... 4.959
Radial Grid Type                 RadialGrid  ... OptM3 with GC (2021)
Angular Grid (max. ang.)         AngularGrid ... 6 (Lebedev-590)
Angular grid pruning method      GridPruning ... 4 (adaptive)
Weight generation scheme         WeightScheme... Becke
Basis function cutoff            BFCut       ... 1.0000e-11
Integration weight cutoff        WCut        ... 1.0000e-14
Angular grids for H and He will be reduced by one unit
Partially contracted basis set               ... off
Rotationally invariant grid construction     ... off

Total number of grid points                  ...   145189
Total number of batches                      ...     2274
Average number of points per batch           ...       63
Average number of grid points per atom       ...    11168
Time for grid setup =    2.678 sec

--------------------
COSX GRID GENERATION
--------------------

GRIDX 1
-------
General Integration Accuracy     IntAcc      ... 4.020
Radial Grid Type                 RadialGrid  ... OptM3 with GC (2021)
Angular Grid (max. ang.)         AngularGrid ... 2 (Lebedev-110)
Angular grid pruning method      GridPruning ... 4 (adaptive)
Weight generation scheme         WeightScheme... Becke
Basis function cutoff            BFCut       ... 1.0000e-11
Integration weight cutoff        WCut        ... 1.0000e-14
Angular grids for H and He will be reduced by one unit
Partially contracted basis set               ... on
Rotationally invariant grid construction     ... off

Total number of grid points                  ...    16210
Total number of batches                      ...      260
Average number of points per batch           ...       62
Average number of grid points per atom       ...     1247
UseSFitting                                  ... on

GRIDX 2
-------
General Integration Accuracy     IntAcc      ... 4.338
Radial Grid Type                 RadialGrid  ... OptM3 with GC (2021)
Angular Grid (max. ang.)         AngularGrid ... 3 (Lebedev-194)
Angular grid pruning method      GridPruning ... 4 (adaptive)
Weight generation scheme         WeightScheme... Becke
Basis function cutoff            BFCut       ... 1.0000e-11
Integration weight cutoff        WCut        ... 1.0000e-14
Angular grids for H and He will be reduced by one unit
Partially contracted basis set               ... on
Rotationally invariant grid construction     ... off

Total number of grid points                  ...    34039
Total number of batches                      ...      538
Average number of points per batch           ...       63
Average number of grid points per atom       ...     2618
UseSFitting                                  ... on

GRIDX 3
-------
General Integration Accuracy     IntAcc      ... 4.871
Radial Grid Type                 RadialGrid  ... OptM3 with GC (2021)
Angular Grid (max. ang.)         AngularGrid ... 4 (Lebedev-302)
Angular grid pruning method      GridPruning ... 4 (adaptive)
Weight generation scheme         WeightScheme... Becke
Basis function cutoff            BFCut       ... 1.0000e-11
Integration weight cutoff        WCut        ... 1.0000e-14
Angular grids for H and He will be reduced by one unit
Partially contracted basis set               ... on
Rotationally invariant grid construction     ... off

Total number of grid points                  ...    67496
Total number of batches                      ...     1061
Average number of points per batch           ...       63
Average number of grid points per atom       ...     5192
UseSFitting                                  ... on

Time for X-Grid setup             =    3.781 sec

--------------
SCF ITERATIONS
--------------
ITER       Energy         Delta-E        Max-DP      RMS-DP      [F,P]     Damp
               ***  Starting incremental Fock matrix formation  ***
  0   -285.0699707223   0.000000000000 2.69251365  0.09930524  0.9735288 0.7000
  1   -294.4246669686  -9.354696246213 0.75300603  0.02921827  0.6607198 0.7000
  2   -299.8149864401  -5.390319471524 0.67928409  0.02502930  0.4641131 0.7000
  3   -303.4657132841  -3.650726844015 0.51396177  0.01886536  0.3244194 0.7000
  4   -306.0437372638  -2.578023979655 0.36188436  0.01364563  0.2272322 0.7000
                               ***Turning on DIIS***
  5   -307.8789642682  -1.835227004492 0.25150750  0.00975931  0.1594109 0.7000
  6   -309.1811285364  -1.302164268163 0.17679697  0.00703591  0.1119862 0.7000
  7   -310.1021960394  -0.921067502964 0.44249929  0.01667655  0.0788383 0.0000
  8   -312.2859338357  -2.183737796364 0.01746502  0.00048125  0.0033023 0.0000
  9   -312.2868534309  -0.000919595146 0.01374005  0.00031252  0.0020046 0.0000
 10   -312.2871205696  -0.000267138759 0.00707397  0.00023458  0.0008724 0.0000
               *** Restarting incremental Fock matrix formation ***
                                   *** Resetting DIIS ***
 11   -312.2872554624  -0.000134892791 0.00169566  0.00004638  0.0005140 0.0000
 12   -312.2872606679  -0.000005205489 0.00054732  0.00001908  0.0004561 0.0000
 13   -312.2872637381  -0.000003070181 0.00033243  0.00001649  0.0001618 0.0000
 14   -312.2872650175  -0.000001279417 0.00026187  0.00000893  0.0000557 0.0000
 15   -312.2872652739  -0.000000256344 0.00007852  0.00000355  0.0000368 0.0000
 16   -312.2872653234  -0.000000049538 0.00002606  0.00000119  0.0000111 0.0000
 17   -312.2872653287  -0.000000005288 0.00001546  0.00000072  0.0000061 0.0000
 18   -312.2872653302  -0.000000001481 0.00001053  0.00000033  0.0000038 0.0000
                 **** Energy Check signals convergence ****

               *****************************************************
               *                     SUCCESS                       *
               *           SCF CONVERGED AFTER  19 CYCLES          *
               *****************************************************

Old exchange energy                            =    -14.151912999 Eh
New exchange energy                            =    -14.151909274 Eh
Exchange energy change after final integration =      0.000003725 Eh
Total energy after final integration           =   -312.287261606 Eh
Final COS-X integration done in                =     2.565 sec

----------------
TOTAL SCF ENERGY
----------------

Total Energy       :         -312.28726161 Eh           -8497.76841 eV

Components:
Nuclear Repulsion  :          192.24713013 Eh            5231.31037 eV
Electronic Energy  :         -504.53439174 Eh          -13729.07877 eV
One Electron Energy:         -878.19194169 Eh          -23896.81762 eV
Two Electron Energy:          373.65754995 Eh           10167.73885 eV
Max COSX asymmetry :            0.00000021 Eh               0.00001 eV

Virial components:
Potential Energy   :         -493.25344260 Eh          -13422.10854 eV
Kinetic Energy     :          180.96618099 Eh            4924.34013 eV
Virial Ratio       :            2.72566642


DFT components:
N(Alpha)           :       25.000001853543 electrons
N(Beta)            :       24.000001762627 electrons
N(Total)           :       49.000003616170 electrons
E(X)               :      -18.994838361426 Eh       
E(C)               :       -2.267061622353 Eh       
E(XC)              :      -21.261899983779 Eh       
DFET-embed. en.    :        0.000000000000 Eh       

---------------
SCF CONVERGENCE
---------------

  Last Energy change         ...   -3.2128e-10  Tolerance :   1.0000e-08
  Last MAX-Density change    ...    0.0000e+00  Tolerance :   1.0000e-07
  Last RMS-Density change    ...    0.0000e+00  Tolerance :   5.0000e-09
  Last DIIS Error            ...    3.5239e-06  Tolerance :   5.0000e-07

             **** THE GBW FILE WAS UPDATED (pbeh-3c.gbw) ****
             **** DENSITY pbeh-3c.scfp WAS UPDATED ****
             **** ENERGY FILE WAS UPDATED (pbeh-3c.en.tmp) ****
----------------------
UHF SPIN CONTAMINATION
----------------------

Warning: in a DFT calculation there is little theoretical justification to 
         calculate <S**2> as in Hartree-Fock theory. We will do it anyways
         but you should keep in mind that the values have only limited relevance

Expectation value of <S**2>     :     0.753353
Ideal value S*(S+1) for S=0.5   :     0.750000
Deviation                       :     0.003353

             **** THE GBW FILE WAS UPDATED (pbeh-3c.gbw) ****
             **** DENSITY pbeh-3c.scfp WAS UPDATED ****
----------------
ORBITAL ENERGIES
----------------
                 SPIN UP ORBITALS
  NO   OCC          E(Eh)            E(eV) 
   0   1.0000     -10.427657      -283.7510 
   1   1.0000     -10.427654      -283.7509 
   2   1.0000     -10.427649      -283.7508 
   3   1.0000      -5.666190      -154.1849 
   4   1.0000      -3.461011       -94.1789 
   5   1.0000      -3.456635       -94.0598 
   6   1.0000      -3.456634       -94.0598 
   7   1.0000      -0.903183       -24.5769 
   8   1.0000      -0.903181       -24.5768 
   9   1.0000      -0.897185       -24.4137 
  10   1.0000      -0.891865       -24.2689 
  11   1.0000      -0.891865       -24.2689 
  12   1.0000      -0.772918       -21.0322 
  13   1.0000      -0.745030       -20.2733 
  14   1.0000      -0.745029       -20.2733 
  15   1.0000      -0.530571       -14.4376 
  16   1.0000      -0.458441       -12.4748 
  17   1.0000      -0.452814       -12.3217 
  18   1.0000      -0.452814       -12.3217 
  19   1.0000      -0.447489       -12.1768 
  20   1.0000      -0.447489       -12.1768 
  21   1.0000      -0.444307       -12.0902 
  22   1.0000      -0.305810        -8.3215 
  23   1.0000      -0.305806        -8.3214 
  24   1.0000      -0.221041        -6.0148 
  25   0.0000       0.061602         1.6763 
  26   0.0000       0.065386         1.7793 
  27   0.0000       0.065401         1.7797 
  28   0.0000       0.138786         3.7766 
  29   0.0000       0.185469         5.0469 
  30   0.0000       0.189412         5.1542 
  31   0.0000       0.189416         5.1543 
  32   0.0000       0.211523         5.7558 
  33   0.0000       0.211524         5.7558 
  34   0.0000       0.223977         6.0947 
  35   0.0000       0.223978         6.0947 
  36   0.0000       0.244473         6.6525 
  37   0.0000       0.287964         7.8359 
  38   0.0000       0.357086         9.7168 
  39   0.0000       0.357104         9.7173 
  40   0.0000       0.371145        10.0994 
  41   0.0000       0.416494        11.3334 
  42   0.0000       0.416495        11.3334 
  43   0.0000       0.460767        12.5381 
  44   0.0000       0.466205        12.6861 
  45   0.0000       0.466245        12.6872 
  46   0.0000       0.581324        15.8186 
  47   0.0000       0.607882        16.5413 
  48   0.0000       0.607890        16.5415 
  49   0.0000       0.621167        16.9028 
  50   0.0000       0.623527        16.9670 
  51   0.0000       0.623535        16.9672 
  52   0.0000       0.630763        17.1639 
  53   0.0000       0.749608        20.3979 
  54   0.0000       0.749627        20.3984 
  55   0.0000       1.027469        27.9588 
  56   0.0000       1.042449        28.3665 
  57   0.0000       1.042451        28.3665 
  58   0.0000       1.051110        28.6022 
  59   0.0000       1.051115        28.6023 
  60   0.0000       1.060021        28.8446 
  61   0.0000       1.088358        29.6157 
  62   0.0000       1.113122        30.2896 
  63   0.0000       1.113129        30.2898 
  64   0.0000       1.236094        33.6358 
  65   0.0000       1.236130        33.6368 
  66   0.0000       1.308534        35.6070 
  67   0.0000       1.722927        46.8832 
  68   0.0000       1.745869        47.5075 
  69   0.0000       1.745871        47.5076 
  70   0.0000       1.821007        49.5521 
  71   0.0000       1.832127        49.8547 
  72   0.0000       1.832129        49.8548 
  73   0.0000       2.008998        54.6676 
  74   0.0000       2.071840        56.3776 
  75   0.0000       2.071843        56.3777 
  76   0.0000       2.318305        63.0843 
  77   0.0000       2.318309        63.0844 
  78   0.0000       2.338568        63.6357 
  79   0.0000       2.341808        63.7238 
  80   0.0000       2.346267        63.8452 
  81   0.0000       2.346282        63.8456 
  82   0.0000      13.706058       372.9608 
  83   0.0000      13.706068       372.9611 
  84   0.0000      13.716102       373.2341 
  85   0.0000      20.317904       552.8783 
  86   0.0000      20.942001       569.8608 
  87   0.0000      20.942001       569.8608 
  88   0.0000      56.513408      1537.8080 

                 SPIN DOWN ORBITALS
  NO   OCC          E(Eh)            E(eV) 
   0   1.0000     -10.425184      -283.6837 
   1   1.0000     -10.425184      -283.6837 
   2   1.0000     -10.425179      -283.6836 
   3   1.0000      -5.663640      -154.1155 
   4   1.0000      -3.456530       -94.0570 
   5   1.0000      -3.456066       -94.0443 
   6   1.0000      -3.456065       -94.0443 
   7   1.0000      -0.899056       -24.4646 
   8   1.0000      -0.899053       -24.4645 
   9   1.0000      -0.891513       -24.2593 
  10   1.0000      -0.888731       -24.1836 
  11   1.0000      -0.888730       -24.1836 
  12   1.0000      -0.764107       -20.7924 
  13   1.0000      -0.738962       -20.1082 
  14   1.0000      -0.738962       -20.1082 
  15   1.0000      -0.506983       -13.7957 
  16   1.0000      -0.452956       -12.3256 
  17   1.0000      -0.450839       -12.2680 
  18   1.0000      -0.450839       -12.2680 
  19   1.0000      -0.443610       -12.0712 
  20   1.0000      -0.443609       -12.0712 
  21   1.0000      -0.442681       -12.0460 
  22   1.0000      -0.286700        -7.8015 
  23   1.0000      -0.286699        -7.8015 
  24   0.0000      -0.081493        -2.2175 
  25   0.0000       0.075326         2.0497 
  26   0.0000       0.080660         2.1949 
  27   0.0000       0.080671         2.1952 
  28   0.0000       0.143305         3.8995 
  29   0.0000       0.190865         5.1937 
  30   0.0000       0.191900         5.2219 
  31   0.0000       0.191904         5.2220 
  32   0.0000       0.218292         5.9400 
  33   0.0000       0.218292         5.9400 
  34   0.0000       0.226993         6.1768 
  35   0.0000       0.226993         6.1768 
  36   0.0000       0.246048         6.6953 
  37   0.0000       0.306956         8.3527 
  38   0.0000       0.362865         9.8740 
  39   0.0000       0.362876         9.8743 
  40   0.0000       0.392358        10.6766 
  41   0.0000       0.425041        11.5660 
  42   0.0000       0.425042        11.5660 
  43   0.0000       0.474468        12.9109 
  44   0.0000       0.474502        12.9119 
  45   0.0000       0.474991        12.9252 
  46   0.0000       0.592198        16.1145 
  47   0.0000       0.615746        16.7553 
  48   0.0000       0.615755        16.7555 
  49   0.0000       0.625350        17.0166 
  50   0.0000       0.629338        17.1252 
  51   0.0000       0.629347        17.1254 
  52   0.0000       0.631871        17.1941 
  53   0.0000       0.760633        20.6979 
  54   0.0000       0.760651        20.6984 
  55   0.0000       1.031192        28.0602 
  56   0.0000       1.044616        28.4255 
  57   0.0000       1.044618        28.4255 
  58   0.0000       1.053756        28.6742 
  59   0.0000       1.053760        28.6743 
  60   0.0000       1.061518        28.8854 
  61   0.0000       1.091775        29.7087 
  62   0.0000       1.116831        30.3905 
  63   0.0000       1.116838        30.3907 
  64   0.0000       1.238908        33.7124 
  65   0.0000       1.238942        33.7133 
  66   0.0000       1.313586        35.7445 
  67   0.0000       1.730497        47.0892 
  68   0.0000       1.752899        47.6988 
  69   0.0000       1.752900        47.6988 
  70   0.0000       1.827981        49.7419 
  71   0.0000       1.839891        50.0660 
  72   0.0000       1.839892        50.0660 
  73   0.0000       2.018334        54.9217 
  74   0.0000       2.081421        56.6383 
  75   0.0000       2.081423        56.6384 
  76   0.0000       2.322069        63.1867 
  77   0.0000       2.322073        63.1868 
  78   0.0000       2.343034        63.7572 
  79   0.0000       2.344751        63.8039 
  80   0.0000       2.350195        63.9520 
  81   0.0000       2.350208        63.9524 
  82   0.0000      13.709332       373.0499 
  83   0.0000      13.709341       373.0501 
  84   0.0000      13.719367       373.3230 
  85   0.0000      20.325365       553.0813 
  86   0.0000      20.943758       569.9086 
  87   0.0000      20.943758       569.9086 
  88   0.0000      56.514921      1537.8492 

                    ********************************
                    * MULLIKEN POPULATION ANALYSIS *
                    ********************************

--------------------------------------------
MULLIKEN ATOMIC CHARGES AND SPIN POPULATIONS
--------------------------------------------
   0 Pb:    0.684319    0.628499
   1 C :   -0.929018    0.129306
   2 C :   -0.929018    0.129306
   3 C :   -0.929034    0.129278
   4 H :    0.231224    0.008566
   5 H :    0.234839   -0.007016
   6 H :    0.234841   -0.007017
   7 H :    0.234858   -0.007013
   8 H :    0.234858   -0.007013
   9 H :    0.231228    0.008572
  10 H :    0.234841   -0.007017
  11 H :    0.234839   -0.007016
  12 H :    0.231224    0.008566
Sum of atomic charges         :    0.0000000
Sum of atomic spin populations:    1.0000000

-----------------------------------------------------
MULLIKEN REDUCED ORBITAL CHARGES AND SPIN POPULATIONS
-----------------------------------------------------
CHARGE
  0 Pbs       :     3.541276  s :     3.541276
      pz      :     2.573315  p :     7.707802
      px      :     2.567216
      py      :     2.567270
      dz2     :     2.012269  d :    10.066603
      dxz     :     2.010792
      dyz     :     2.010766
      dx2y2   :     2.016393
      dxy     :     2.016383
  1 C s       :     3.454532  s :     3.454532
      pz      :     1.130240  p :     3.449223
      px      :     1.148245
      py      :     1.170738
      dz2     :     0.010181  d :     0.025263
      dxz     :     0.002313
      dyz     :     0.001939
      dx2y2   :     0.006824
      dxy     :     0.004006
  2 C s       :     3.454532  s :     3.454532
      pz      :     1.130240  p :     3.449223
      px      :     1.148245
      py      :     1.170738
      dz2     :     0.010181  d :     0.025263
      dxz     :     0.002313
      dyz     :     0.001939
      dx2y2   :     0.006824
      dxy     :     0.004006
  3 C s       :     3.454519  s :     3.454519
      pz      :     1.130249  p :     3.449249
      px      :     1.181954
      py      :     1.137046
      dz2     :     0.010181  d :     0.025265
      dxz     :     0.001751
      dyz     :     0.002502
      dx2y2   :     0.002597
      dxy     :     0.008233
  4 H s       :     0.768776  s :     0.768776
  5 H s       :     0.765161  s :     0.765161
  6 H s       :     0.765159  s :     0.765159
  7 H s       :     0.765142  s :     0.765142
  8 H s       :     0.765142  s :     0.765142
  9 H s       :     0.768772  s :     0.768772
 10 H s       :     0.765159  s :     0.765159
 11 H s       :     0.765161  s :     0.765161
 12 H s       :     0.768776  s :     0.768776

SPIN
  0 Pbs       :     0.151111  s :     0.151111
      pz      :     0.514581  p :     0.472726
      px      :    -0.020921
      py      :    -0.020933
      dz2     :     0.004774  d :     0.004661
      dxz     :    -0.000625
      dyz     :    -0.000625
      dx2y2   :     0.000569
      dxy     :     0.000569
  1 C s       :     0.018326  s :     0.018326
      pz      :     0.019853  p :     0.110793
      px      :     0.026069
      py      :     0.064871
      dz2     :     0.000329  d :     0.000187
      dxz     :     0.000054
      dyz     :     0.000034
      dx2y2   :    -0.000189
      dxy     :    -0.000040
  2 C s       :     0.018326  s :     0.018326
      pz      :     0.019853  p :     0.110793
      px      :     0.026069
      py      :     0.064872
      dz2     :     0.000329  d :     0.000187
      dxz     :     0.000054
      dyz     :     0.000034
      dx2y2   :    -0.000189
      dxy     :    -0.000040
  3 C s       :     0.018319  s :     0.018319
      pz      :     0.019847  p :     0.110771
      px      :     0.084260
      py      :     0.006664
      dz2     :     0.000329  d :     0.000187
      dxz     :     0.000024
      dyz     :     0.000065
      dx2y2   :     0.000034
      dxy     :    -0.000264
  4 H s       :     0.008566  s :     0.008566
  5 H s       :    -0.007016  s :    -0.007016
  6 H s       :    -0.007017  s :    -0.007017
  7 H s       :    -0.007013  s :    -0.007013
  8 H s       :    -0.007013  s :    -0.007013
  9 H s       :     0.008572  s :     0.008572
 10 H s       :    -0.007017  s :    -0.007017
 11 H s       :    -0.007016  s :    -0.007016
 12 H s       :     0.008566  s :     0.008566


                     *******************************
                     * LOEWDIN POPULATION ANALYSIS *
                     *******************************

-------------------------------------------
LOEWDIN ATOMIC CHARGES AND SPIN POPULATIONS
-------------------------------------------
   0 Pb:    0.405743    0.670650
   1 C :   -0.563506    0.106388
   2 C :   -0.563506    0.106388
   3 C :   -0.563513    0.106371
   4 H :    0.143069    0.011273
   5 H :    0.142594   -0.003937
   6 H :    0.142594   -0.003938
   7 H :    0.142600   -0.003935
   8 H :    0.142600   -0.003935
   9 H :    0.143071    0.011276
  10 H :    0.142594   -0.003938
  11 H :    0.142594   -0.003937
  12 H :    0.143069    0.011273

----------------------------------------------------
LOEWDIN REDUCED ORBITAL CHARGES AND SPIN POPULATIONS
----------------------------------------------------
CHARGE
  0 Pbs       :     3.375137  s :     3.375137
      pz      :     2.648187  p :     7.972744
      px      :     2.662270
      py      :     2.662286
      dz2     :     2.037284  d :    10.246377
      dxz     :     2.038634
      dyz     :     2.038628
      dx2y2   :     2.065917
      dxy     :     2.065914
  1 C s       :     3.024128  s :     3.024128
      pz      :     1.145143  p :     3.496842
      px      :     1.156882
      py      :     1.194816
      dz2     :     0.016500  d :     0.042537
      dxz     :     0.003940
      dyz     :     0.003713
      dx2y2   :     0.011250
      dxy     :     0.007135
  2 C s       :     3.024128  s :     3.024128
      pz      :     1.145143  p :     3.496842
      px      :     1.156882
      py      :     1.194816
      dz2     :     0.016500  d :     0.042537
      dxz     :     0.003940
      dyz     :     0.003713
      dx2y2   :     0.011250
      dxy     :     0.007135
  3 C s       :     3.024125  s :     3.024125
      pz      :     1.145145  p :     3.496851
      px      :     1.213777
      py      :     1.137928
      dz2     :     0.016499  d :     0.042538
      dxz     :     0.003599
      dyz     :     0.004054
      dx2y2   :     0.005077
      dxy     :     0.013308
  4 H s       :     0.856931  s :     0.856931
  5 H s       :     0.857406  s :     0.857406
  6 H s       :     0.857406  s :     0.857406
  7 H s       :     0.857400  s :     0.857400
  8 H s       :     0.857400  s :     0.857400
  9 H s       :     0.856929  s :     0.856929
 10 H s       :     0.857406  s :     0.857406
 11 H s       :     0.857406  s :     0.857406
 12 H s       :     0.856931  s :     0.856931

SPIN
  0 Pbs       :     0.139894  s :     0.139894
      pz      :     0.548163  p :     0.513197
      px      :    -0.017479
      py      :    -0.017487
      dz2     :     0.015422  d :     0.017560
      dxz     :    -0.000057
      dyz     :    -0.000057
      dx2y2   :     0.001126
      dxy     :     0.001126
  1 C s       :     0.012489  s :     0.012489
      pz      :     0.023311  p :     0.093509
      px      :     0.019517
      py      :     0.050681
      dz2     :     0.000594  d :     0.000390
      dxz     :     0.000065
      dyz     :     0.000151
      dx2y2   :    -0.000282
      dxy     :    -0.000138
  2 C s       :     0.012489  s :     0.012489
      pz      :     0.023311  p :     0.093509
      px      :     0.019517
      py      :     0.050681
      dz2     :     0.000594  d :     0.000390
      dxz     :     0.000065
      dyz     :     0.000151
      dx2y2   :    -0.000282
      dxy     :    -0.000138
  3 C s       :     0.012486  s :     0.012486
      pz      :     0.023308  p :     0.093495
      px      :     0.066254
      py      :     0.003932
      dz2     :     0.000594  d :     0.000391
      dxz     :     0.000194
      dyz     :     0.000022
      dx2y2   :    -0.000066
      dxy     :    -0.000354
  4 H s       :     0.011273  s :     0.011273
  5 H s       :    -0.003937  s :    -0.003937
  6 H s       :    -0.003938  s :    -0.003938
  7 H s       :    -0.003935  s :    -0.003935
  8 H s       :    -0.003935  s :    -0.003935
  9 H s       :     0.011276  s :     0.011276
 10 H s       :    -0.003938  s :    -0.003938
 11 H s       :    -0.003937  s :    -0.003937
 12 H s       :     0.011273  s :     0.011273


                      *****************************
                      * MAYER POPULATION ANALYSIS *
                      *****************************

  NA   - Mulliken gross atomic population
  ZA   - Total nuclear charge
  QA   - Mulliken gross atomic charge
  VA   - Mayer's total valence
  BVA  - Mayer's bonded valence
  FA   - Mayer's free valence

  ATOM       NA         ZA         QA         VA         BVA        FA
  0 Pb    21.3157    22.0000     0.6843     3.1133     2.6025     0.5107
  1 C      6.9290     6.0000    -0.9290     3.6982     3.6830     0.0152
  2 C      6.9290     6.0000    -0.9290     3.6982     3.6830     0.0152
  3 C      6.9290     6.0000    -0.9290     3.6982     3.6830     0.0152
  4 H      0.7688     1.0000     0.2312     0.9069     0.9068     0.0001
  5 H      0.7652     1.0000     0.2348     0.9071     0.9070     0.0000
  6 H      0.7652     1.0000     0.2348     0.9071     0.9070     0.0000
  7 H      0.7651     1.0000     0.2349     0.9071     0.9070     0.0000
  8 H      0.7651     1.0000     0.2349     0.9071     0.9070     0.0000
  9 H      0.7688     1.0000     0.2312     0.9069     0.9068     0.0001
 10 H      0.7652     1.0000     0.2348     0.9071     0.9070     0.0000
 11 H      0.7652     1.0000     0.2348     0.9071     0.9070     0.0000
 12 H      0.7688     1.0000     0.2312     0.9069     0.9068     0.0001

  Mayer bond orders larger than 0.100000
B(  0-Pb,  1-C ) :   0.8599 B(  0-Pb,  2-C ) :   0.8599 B(  0-Pb,  3-C ) :   0.8599 
B(  1-C ,  4-H ) :   0.9102 B(  1-C ,  5-H ) :   0.9156 B(  1-C ,  6-H ) :   0.9156 
B(  2-C , 10-H ) :   0.9156 B(  2-C , 11-H ) :   0.9156 B(  2-C , 12-H ) :   0.9102 
B(  3-C ,  7-H ) :   0.9156 B(  3-C ,  8-H ) :   0.9156 B(  3-C ,  9-H ) :   0.9102 


-------
TIMINGS
-------

Total SCF time: 0 days 0 hours 2 min 42 sec 

Total time                  ....     162.164 sec
Sum of individual times     ....     148.365 sec  ( 91.5%)

Fock matrix formation       ....     127.460 sec  ( 78.6%)
  Split-RI-J                ....      10.638 sec  (  8.3% of F)
  Chain of spheres X        ....      26.702 sec  ( 20.9% of F)
  XC integration            ....      39.093 sec  ( 30.7% of F)
    Basis function eval.    ....       2.787 sec  (  7.1% of XC)
    Density eval.           ....       2.841 sec  (  7.3% of XC)
    XC-Functional eval.     ....       2.107 sec  (  5.4% of XC)
    XC-Potential eval.      ....       1.565 sec  (  4.0% of XC)
Diagonalization             ....       4.836 sec  (  3.0%)
Density matrix formation    ....       0.027 sec  (  0.0%)
Population analysis         ....       2.294 sec  (  1.4%)
Initial guess               ....       0.123 sec  (  0.1%)
Orbital Transformation      ....       0.000 sec  (  0.0%)
Orbital Orthonormalization  ....       0.000 sec  (  0.0%)
DIIS solution               ....       7.164 sec  (  4.4%)
Grid generation             ....       6.460 sec  (  4.0%)

Maximum memory used throughout the entire SCF-calculation: 50.8 MB


-------------------------------------------------------------------------------
                          DFT DISPERSION CORRECTION                            
                                                                               
                              DFTD3 V3.1  Rev 1                                
                          USING Becke-Johnson damping                          
-------------------------------------------------------------------------------
The PBEh-3c composite method is recognized
Using three-body term ABC
Active option DFTDOPT                   ...         4   

molecular C6(AA) [au] = 2610.863746 


            DFT-D V3
 parameters
 s6 scaling factor         :     1.0000 
 a1 scaling factor         :     0.4860 
 s8 scaling factor         :     0.0000 
 a2 scaling factor         :     4.5000 
 Damping factor alpha9(ATM):    16.0000 
 ad hoc parameters k1-k3   :    16.0000     1.3333    -4.0000 

 Edisp/kcal,au: -2.865898132347  -0.004567098897 
 E6   /kcal   :  -2.877045278 
 E8   /kcal   :  -0.000000000 
 E6(ABC)      :   0.011147146 
 % E8         :   0.000000000 
 % E6(ABC)    :  -0.388958202 

-------------------------   ----------------
Dispersion correction           -0.004567099
-------------------------   ----------------

 ** NOTE ** -> element pb will be treated as ge
NOTIFICATION: Different basis set in ORCA and otool_gcp:
ORCA: 89  gCP: 95 
If you are NOT using ECPs, check your basis set inputs!
------------------   -----------------
gCP correction             0.011365990
------------------   -----------------

-------------------------   --------------------
FINAL SINGLE POINT ENERGY      -312.280462714273
-------------------------   --------------------


                            ***************************************
                            *     ORCA property calculations      *
                            ***************************************

                                    ---------------------
                                    Active property flags
                                    ---------------------
   (+) Dipole Moment


------------------------------------------------------------------------------
                       ORCA ELECTRIC PROPERTIES CALCULATION
------------------------------------------------------------------------------

Dipole Moment Calculation                       ... on
Quadrupole Moment Calculation                   ... off
Polarizability Calculation                      ... off
GBWName                                         ... pbeh-3c.gbw
Electron density                                ... pbeh-3c.scfp
The origin for moment calculation is the CENTER OF MASS  = (-0.000000,  0.000000 -1.392232)

-------------
DIPOLE MOMENT
-------------
                                X             Y             Z
Electronic contribution:     -0.00005       0.00000     -31.63394
Nuclear contribution   :     -0.00000       0.00000      31.68638
                        -----------------------------------------
Total Dipole Moment    :     -0.00005       0.00000       0.05244
                        -----------------------------------------
Magnitude (a.u.)       :      0.05244
Magnitude (Debye)      :      0.13330



--------------------
Rotational spectrum 
--------------------
 
Rotational constants in cm-1:     0.119042     0.119042     0.078013 
Rotational constants in MHz :  3568.780429  3568.780368  2338.761609 

 Dipole components along the rotational axes: 
x,y,z [a.u.] :    -0.000000    -0.000050     0.052445 
x,y,z [Debye]:    -0.000000    -0.000127     0.133303 

 

Timings for individual modules:

Sum of individual times         ...      166.050 sec (=   2.767 min)
GTO integral calculation        ...        2.912 sec (=   0.049 min)   1.8 %
SCF iterations                  ...      163.138 sec (=   2.719 min)  98.2 %
                             ****ORCA TERMINATED NORMALLY****
TOTAL RUN TIME: 0 days 0 hours 2 minutes 50 seconds 540 msec
