
                                 *****************
                                 * O   R   C   A *
                                 *****************

                                            #,                                       
                                            ###                                      
                                            ####                                     
                                            #####                                    
                                            ######                                   
                                           ########,                                 
                                     ,,################,,,,,                         
                               ,,#################################,,                 
                          ,,##########################################,,             
                       ,#########################################, ''#####,          
                    ,#############################################,,   '####,        
                  ,##################################################,,,,####,       
                ,###########''''           ''''###############################       
              ,#####''   ,,,,##########,,,,          '''####'''          '####       
            ,##' ,,,,###########################,,,                        '##       
           ' ,,###''''                  '''############,,,                           
         ,,##''                                '''############,,,,        ,,,,,,###''
      ,#''                                            '''#######################'''  
     '                                                          ''''####''''         
             ,#######,   #######,   ,#######,      ##                                
            ,#'     '#,  ##    ##  ,#'     '#,    #''#        ######   ,####,        
            ##       ##  ##   ,#'  ##            #'  '#       #        #'  '#        
            ##       ##  #######   ##           ,######,      #####,   #    #        
            '#,     ,#'  ##    ##  '#,     ,#' ,#      #,         ##   #,  ,#        
             '#######'   ##     ##  '#######'  #'      '#     #####' # '####'        



                  #######################################################
                  #                        -***-                        #
                  #          Department of theory and spectroscopy      #
                  #    Directorship and core code : Frank Neese         #
                  #        Max Planck Institute fuer Kohlenforschung    #
                  #                Kaiser Wilhelm Platz 1               #
                  #                 D-45470 Muelheim/Ruhr               #
                  #                      Germany                        #
                  #                                                     #
                  #                  All rights reserved                #
                  #                        -***-                        #
                  #######################################################


                         Program Version 5.0.3 -  RELEASE  -


 With contributions from (in alphabetic order):
   Daniel Aravena         : Magnetic Suceptibility
   Michael Atanasov       : Ab Initio Ligand Field Theory (pilot matlab implementation)
   Alexander A. Auer      : GIAO ZORA, VPT2 properties, NMR spectrum
   Ute Becker             : Parallelization
   Giovanni Bistoni       : ED, misc. LED, open-shell LED, HFLD
   Martin Brehm           : Molecular dynamics
   Dmytro Bykov           : SCF Hessian
   Vijay G. Chilkuri      : MRCI spin determinant printing, contributions to CSF-ICE
   Dipayan Datta          : RHF DLPNO-CCSD density
   Achintya Kumar Dutta   : EOM-CC, STEOM-CC
   Dmitry Ganyushin       : Spin-Orbit,Spin-Spin,Magnetic field MRCI
   Miquel Garcia          : C-PCM and meta-GGA Hessian, CC/C-PCM, Gaussian charge scheme
   Yang Guo               : DLPNO-NEVPT2, F12-NEVPT2, CIM, IAO-localization
   Andreas Hansen         : Spin unrestricted coupled pair/coupled cluster methods
   Benjamin Helmich-Paris : MC-RPA, TRAH-SCF, COSX integrals
   Lee Huntington         : MR-EOM, pCC
   Robert Izsak           : Overlap fitted RIJCOSX, COSX-SCS-MP3, EOM
   Marcus Kettner         : VPT2
   Christian Kollmar      : KDIIS, OOCD, Brueckner-CCSD(T), CCSD density, CASPT2, CASPT2-K
   Simone Kossmann        : Meta GGA functionals, TD-DFT gradient, OOMP2, MP2 Hessian
   Martin Krupicka        : Initial AUTO-CI
   Lucas Lang             : DCDCAS
   Marvin Lechner         : AUTO-CI (C++ implementation), FIC-MRCC
   Dagmar Lenk            : GEPOL surface, SMD
   Dimitrios Liakos       : Extrapolation schemes; Compound Job, initial MDCI parallelization
   Dimitrios Manganas     : Further ROCIS development; embedding schemes
   Dimitrios Pantazis     : SARC Basis sets
   Anastasios Papadopoulos: AUTO-CI, single reference methods and gradients
   Taras Petrenko         : DFT Hessian,TD-DFT gradient, ASA, ECA, R-Raman, ABS, FL, XAS/XES, NRVS
   Peter Pinski           : DLPNO-MP2, DLPNO-MP2 Gradient
   Christoph Reimann      : Effective Core Potentials
   Marius Retegan         : Local ZFS, SOC
   Christoph Riplinger    : Optimizer, TS searches, QM/MM, DLPNO-CCSD(T), (RO)-DLPNO pert. Triples
   Tobias Risthaus        : Range-separated hybrids, TD-DFT gradient, RPA, STAB
   Michael Roemelt        : Original ROCIS implementation
   Masaaki Saitow         : Open-shell DLPNO-CCSD energy and density
   Barbara Sandhoefer     : DKH picture change effects
   Avijit Sen             : IP-ROCIS
   Kantharuban Sivalingam : CASSCF convergence, NEVPT2, FIC-MRCI
   Bernardo de Souza      : ESD, SOC TD-DFT
   Georgi Stoychev        : AutoAux, RI-MP2 NMR, DLPNO-MP2 response
   Willem Van den Heuvel  : Paramagnetic NMR
   Boris Wezisla          : Elementary symmetry handling
   Frank Wennmohs         : Technical directorship


 We gratefully acknowledge several colleagues who have allowed us to
 interface, adapt or use parts of their codes:
   Stefan Grimme, W. Hujo, H. Kruse, P. Pracht,  : VdW corrections, initial TS optimization,
                  C. Bannwarth, S. Ehlert          DFT functionals, gCP, sTDA/sTD-DF
   Ed Valeev, F. Pavosevic, A. Kumar             : LibInt (2-el integral package), F12 methods
   Garnet Chan, S. Sharma, J. Yang, R. Olivares  : DMRG
   Ulf Ekstrom                                   : XCFun DFT Library
   Mihaly Kallay                                 : mrcc  (arbitrary order and MRCC methods)
   Jiri Pittner, Ondrej Demel                    : Mk-CCSD
   Frank Weinhold                                : gennbo (NPA and NBO analysis)
   Christopher J. Cramer and Donald G. Truhlar   : smd solvation model
   Lars Goerigk                                  : TD-DFT with DH, B97 family of functionals
   V. Asgeirsson, H. Jonsson                     : NEB implementation
   FAccTs GmbH                                   : IRC, NEB, NEB-TS, DLPNO-Multilevel, CI-OPT
                                                   MM, QMMM, 2- and 3-layer-ONIOM, Crystal-QMMM,
                                                   LR-CPCM, SF, NACMEs, symmetry and pop. for TD-DFT,
                                                   nearIR, NL-DFT gradient (VV10), updates on ESD,
                                                   ML-optimized integration grids
   S Lehtola, MJT Oliveira, MAL Marques          : LibXC Library
   Liviu Ungur et al                             : ANISO software


 Your calculation uses the libint2 library for the computation of 2-el integrals
 For citations please refer to: http://libint.valeyev.net

 Your ORCA version has been built with support for libXC version: 5.1.0
 For citations please refer to: https://tddft.org/programs/libxc/

 This ORCA versions uses:
   CBLAS   interface :  Fast vector & matrix operations
   LAPACKE interface :  Fast linear algebra routines
   SCALAPACK package :  Parallel linear algebra routines
   Shared memory     :  Shared parallel matrices
   BLAS/LAPACK       :  OpenBLAS 0.3.15  USE64BITINT DYNAMIC_ARCH NO_AFFINITY Haswell SINGLE_THREADED
        Core in use  :  Haswell
   Copyright (c) 2011-2014, The OpenBLAS Project




***************************************
The coordinates will be read from file: pme3-ch2.xyz
***************************************


Your calculation utilizes the geometrical counterpoise correction gCP
Please cite in your paper:
H.Kruse, S. Grimme J.Chem.Phys., 136, (2012), 154101 
   

Your calculation utilizes the atom-pairwise dispersion correction
with the Becke-Johnson damping scheme (D3BJ)
Cite in your paper:
S.Grimme, S.Ehrlich, L.Goerigk, J Comput Chem, (2011), 32, 1456–1465 
S.Grimme, J.Antony, S.Ehrlich and H.Krieg, J.Chem.Phys., 132, (2010), 154104 
   

Your calculation employs the composite approach PBEh-3c.
Please cite in your paper:
S. Grimme, J. G. Brandenburg, C. Bannwarth, A. Hansen J.Chem.Phys., 143, (2015), 054107 
   

================================================================================

----- Orbital basis set information -----
Your calculation utilizes the basis: def2-mSVP

----- AuxJ basis set information -----
Your calculation utilizes the auxiliary basis: def2/J
   F. Weigend, Phys. Chem. Chem. Phys. 8, 1057 (2006).

================================================================================
                                        WARNINGS
                       Please study these warnings very carefully!
================================================================================


INFO   : the flag for use of the SHARK integral package has been found!

================================================================================
                                       INPUT FILE
================================================================================
NAME = pbeh-3c.inp
|  1> ! PBEh-3c def2/J TightSCF DefGrid3
|  2> 
|  3> %maxcore 60000
|  4> 
|  5> %pal
|  6> nprocs 4
|  7> end
|  8> 
|  9> *xyzfile 0 1 pme3-ch2.xyz
| 10> 
| 11>                          ****END OF INPUT****
================================================================================

                       ****************************
                       * Single Point Calculation *
                       ****************************

---------------------------------
CARTESIAN COORDINATES (ANGSTROEM)
---------------------------------
  C      1.809184    0.260190    0.000000
  P      0.150871    0.001558    0.000000
  H      2.338272    0.062089    0.923680
  H      2.338272    0.062089   -0.923680
  C     -0.613282    0.751370   -1.463964
  C     -0.613282    0.751370    1.463964
  C     -0.613282   -1.676752    0.000000
  H     -1.680384    0.537421   -1.500228
  H     -0.441483    1.824867   -1.442853
  H     -0.135094    0.336296   -2.350876
  H     -1.703681   -1.633379    0.000000
  H     -0.269018   -2.214200   -0.883416
  H     -0.269018   -2.214200    0.883416
  H     -1.680384    0.537421    1.500228
  H     -0.135094    0.336296    2.350876
  H     -0.441483    1.824867    1.442853

----------------------------
CARTESIAN COORDINATES (A.U.)
----------------------------
  NO LB      ZA    FRAG     MASS         X           Y           Z
   0 C     6.0000    0    12.011    3.418862    0.491688    0.000000
   1 P    15.0000    0    30.974    0.285105    0.002944    0.000000
   2 H     1.0000    0     1.008    4.418693    0.117331    1.745502
   3 H     1.0000    0     1.008    4.418693    0.117331   -1.745502
   4 C     6.0000    0    12.011   -1.158935    1.419883   -2.766491
   5 C     6.0000    0    12.011   -1.158935    1.419883    2.766491
   6 C     6.0000    0    12.011   -1.158935   -3.168602    0.000000
   7 H     1.0000    0     1.008   -3.175465    1.015579   -2.835020
   8 H     1.0000    0     1.008   -0.834282    3.448499   -2.726597
   9 H     1.0000    0     1.008   -0.255291    0.635507   -4.442511
  10 H     1.0000    0     1.008   -3.219490   -3.086639    0.000000
  11 H     1.0000    0     1.008   -0.508370   -4.184231   -1.669414
  12 H     1.0000    0     1.008   -0.508370   -4.184231    1.669414
  13 H     1.0000    0     1.008   -3.175465    1.015579    2.835020
  14 H     1.0000    0     1.008   -0.255291    0.635507    4.442511
  15 H     1.0000    0     1.008   -0.834282    3.448499    2.726597

--------------------------------
INTERNAL COORDINATES (ANGSTROEM)
--------------------------------
 C      0   0   0     0.000000000000     0.00000000     0.00000000
 P      1   0   0     1.678359969056     0.00000000     0.00000000
 H      1   2   0     1.082756930152   117.04038651     0.00000000
 H      1   2   3     1.082756930152   117.04038651   146.58304700
 C      2   1   3     1.813653217485   110.64598466   166.31698518
 C      2   1   3     1.813653217485   110.64598466    47.09996781
 C      2   1   3     1.844086204017   123.34478720   286.70847650
 H      5   2   1     1.088942456924   111.01035077   176.68121817
 H      5   2   1     1.087362119871   109.02096097   298.57540409
 H      5   2   1     1.089753561209   108.33619119    56.84544351
 H      7   2   1     1.091261186999   112.20243325   180.00000085
 H      7   2   1     1.089858522600   108.53659104   301.24781364
 H      7   2   1     1.089858522600   108.53659104    58.75218636
 H      6   2   1     1.088942456924   111.01035077   183.31878183
 H      6   2   1     1.089753561209   108.33619119   303.15455649
 H      6   2   1     1.087362119871   109.02096097    61.42459591

---------------------------
INTERNAL COORDINATES (A.U.)
---------------------------
 C      0   0   0     0.000000000000     0.00000000     0.00000000
 P      1   0   0     3.171640695653     0.00000000     0.00000000
 H      1   2   0     2.046114067592   117.04038651     0.00000000
 H      1   2   3     2.046114067592   117.04038651   146.58304700
 C      2   1   3     3.427307882952   110.64598466   166.31698518
 C      2   1   3     3.427307882952   110.64598466    47.09996781
 C      2   1   3     3.484817892935   123.34478720   286.70847650
 H      5   2   1     2.057803019185   111.01035077   176.68121817
 H      5   2   1     2.054816614957   109.02096097   298.57540409
 H      5   2   1     2.059335784150   108.33619119    56.84544351
 H      7   2   1     2.062184784006   112.20243325   180.00000085
 H      7   2   1     2.059534132433   108.53659104   301.24781364
 H      7   2   1     2.059534132433   108.53659104    58.75218636
 H      6   2   1     2.057803019185   111.01035077   183.31878183
 H      6   2   1     2.059335784150   108.33619119   303.15455649
 H      6   2   1     2.054816614957   109.02096097    61.42459591

---------------------
BASIS SET INFORMATION
---------------------
There are 3 groups of distinct atoms

 Group   1 Type C   : 8s4p1d contracted to 4s2p1d pattern {5111/31/1}
 Group   2 Type P   : 10s7p1d contracted to 4s3p1d pattern {5311/511/1}
 Group   3 Type H   : 4s contracted to 2s pattern {31}

Atom   0C    basis set group =>   1
Atom   1P    basis set group =>   2
Atom   2H    basis set group =>   3
Atom   3H    basis set group =>   3
Atom   4C    basis set group =>   1
Atom   5C    basis set group =>   1
Atom   6C    basis set group =>   1
Atom   7H    basis set group =>   3
Atom   8H    basis set group =>   3
Atom   9H    basis set group =>   3
Atom  10H    basis set group =>   3
Atom  11H    basis set group =>   3
Atom  12H    basis set group =>   3
Atom  13H    basis set group =>   3
Atom  14H    basis set group =>   3
Atom  15H    basis set group =>   3
---------------------------------
AUXILIARY/J BASIS SET INFORMATION
---------------------------------
There are 3 groups of distinct atoms

 Group   1 Type C   : 12s5p4d2f1g contracted to 6s4p3d1f1g pattern {711111/2111/211/2/1}
 Group   2 Type P   : 14s5p5d2f1g contracted to 8s4p3d1f1g pattern {71111111/2111/311/2/1}
 Group   3 Type H   : 5s2p1d contracted to 3s1p1d pattern {311/2/1}

Atom   0C    basis set group =>   1
Atom   1P    basis set group =>   2
Atom   2H    basis set group =>   3
Atom   3H    basis set group =>   3
Atom   4C    basis set group =>   1
Atom   5C    basis set group =>   1
Atom   6C    basis set group =>   1
Atom   7H    basis set group =>   3
Atom   8H    basis set group =>   3
Atom   9H    basis set group =>   3
Atom  10H    basis set group =>   3
Atom  11H    basis set group =>   3
Atom  12H    basis set group =>   3
Atom  13H    basis set group =>   3
Atom  14H    basis set group =>   3
Atom  15H    basis set group =>   3


           ************************************************************
           *        Program running with 4 parallel MPI-processes     *
           *              working on a common directory               *
           ************************************************************
------------------------------------------------------------------------------
                           ORCA GTO INTEGRAL CALCULATION
                           -- RI-GTO INTEGRALS CHOSEN --
------------------------------------------------------------------------------
------------------------------------------------------------------------------
                   ___                                                        
                  /   \      - P O W E R E D   B Y -                         
                 /     \                                                     
                 |  |  |   _    _      __       _____    __    __             
                 |  |  |  | |  | |    /  \     |  _  \  |  |  /  |          
                  \  \/   | |  | |   /    \    | | | |  |  | /  /          
                 / \  \   | |__| |  /  /\  \   | |_| |  |  |/  /          
                |  |  |   |  __  | /  /__\  \  |    /   |      \           
                |  |  |   | |  | | |   __   |  |    \   |  |\   \          
                \     /   | |  | | |  |  |  |  | |\  \  |  | \   \       
                 \___/    |_|  |_| |__|  |__|  |_| \__\ |__|  \__/        
                                                                              
                      - O R C A' S   B I G   F R I E N D -                    
                                      &                                       
                       - I N T E G R A L  F E E D E R -                       
                                                                              
 v1 FN, 2020, v2 2021                                                         
------------------------------------------------------------------------------


Reading SHARK input file pbeh-3c.SHARKINP.tmp ... ok
----------------------
SHARK INTEGRAL PACKAGE
----------------------

Number of atoms                             ...     16
Number of basis functions                   ...    100
Number of shells                            ...     58
Maximum angular momentum                    ...      2
Integral batch strategy                     ... SHARK/LIBINT Hybrid
RI-J (if used) integral strategy            ... SPLIT-RIJ (Revised 2003 algorithm where possible)
Printlevel                                  ...      1
Contraction scheme used                     ... SEGMENTED contraction
Coulomb Range Separation                    ... NOT USED
Exchange Range Separation                   ... NOT USED
Finite Nucleus Model                        ... NOT USED
Auxiliary Coulomb fitting basis             ... AVAILABLE
   # of basis functions in Aux-J            ...    368
   # of shells in Aux-J                     ...    132
   Maximum angular momentum in Aux-J        ...      4
Auxiliary J/K fitting basis                 ... NOT available
Auxiliary Correlation fitting basis         ... NOT available
Auxiliary 'external' fitting basis          ... NOT available
Integral threshold                          ...     2.500000e-11
Primitive cut-off                           ...     2.500000e-12
Primitive pair pre-selection threshold      ...     2.500000e-12

Calculating pre-screening integrals         ... done (  0.1 sec) Dimension = 58
Organizing shell pair data                  ... done (  0.5 sec)
Shell pair information
Total number of shell pairs                 ...      1711
Shell pairs after pre-screening             ...      1655
Total number of primitive shell pairs       ...      6663
Primitive shell pairs kept                  ...      4683
          la=0 lb=0:    847 shell pairs
          la=1 lb=0:    462 shell pairs
          la=1 lb=1:     66 shell pairs
          la=2 lb=0:    210 shell pairs
          la=2 lb=1:     55 shell pairs
          la=2 lb=2:     15 shell pairs

Calculating one electron integrals          ... done (  0.0 sec)
Calculating RI/J V-Matrix + Cholesky decomp.... done (  0.6 sec)
Calculating Nuclear repulsion               ... done (  0.0 sec) ENN=    255.328730190783 Eh

SHARK setup successfully completed in   2.7 seconds

Maximum memory used throughout the entire GTOINT-calculation: 10.4 MB


           ************************************************************
           *        Program running with 4 parallel MPI-processes     *
           *              working on a common directory               *
           ************************************************************
-------------------------------------------------------------------------------
                                 ORCA SCF
-------------------------------------------------------------------------------

------------
SCF SETTINGS
------------
Hamiltonian:
 Density Functional     Method          .... DFT(GTOs)
 Exchange Functional    Exchange        .... PBE
   PBE kappa parameter   XKappa         ....  1.024500
   PBE mue parameter    XMuePBE         ....  0.123457
 Correlation Functional Correlation     .... PBE
   PBE beta parameter  CBetaPBE         ....  0.030000
 LDA part of GGA corr.  LDAOpt          .... PW91-LDA
 Gradients option       PostSCFGGA      .... off
 Hybrid DFT is turned on
   Fraction HF Exchange ScalHFX         ....  0.420000
   Scaling of DF-GGA-X  ScalDFX         ....  0.580000
   Scaling of DF-GGA-C  ScalDFC         ....  1.000000
   Scaling of DF-LDA-C  ScalLDAC        ....  1.000000
   Perturbative correction              ....  0.000000
   Density functional embedding theory  .... OFF
 RI-approximation to the Coulomb term is turned on
   Number of AuxJ basis functions       .... 368
   RIJ-ON(X) (HFX calculated with O(N)) .... on
   Number of AuxJ basis functions       .... 368
   RIJ-COSX (HFX calculated with COS-X)).... on


General Settings:
 Integral files         IntName         .... pbeh-3c
 Hartree-Fock type      HFTyp           .... RHF
 Total Charge           Charge          ....    0
 Multiplicity           Mult            ....    1
 Number of Electrons    NEL             ....   50
 Basis Dimension        Dim             ....  100
 Nuclear Repulsion      ENuc            ....    255.3287301908 Eh

Convergence Acceleration:
 DIIS                   CNVDIIS         .... on
   Start iteration      DIISMaxIt       ....    12
   Startup error        DIISStart       ....  0.200000
   # of expansion vecs  DIISMaxEq       ....     5
   Bias factor          DIISBfac        ....   1.050
   Max. coefficient     DIISMaxC        ....  10.000
 Trust-Rad. Augm. Hess. CNVTRAH         .... auto
   Auto Start mean grad. ratio tolernc. ....  1.125000
   Auto Start start iteration           ....    20
   Auto Start num. interpolation iter.  ....    10
   Max. Number of Micro iterations      ....    16
   Max. Number of Macro iterations      .... Maxiter - #DIIS iter
   Number of Davidson start vectors     ....     2
   Converg. threshold I  (grad. norm)   ....   1.000e-05
   Converg. threshold II (energy diff.) ....   1.000e-08
   Grad. Scal. Fac. for Micro threshold ....   0.100
   Minimum threshold for Micro iter.    ....   0.010
   NR start threshold (gradient norm)   ....   0.001
   Initial trust radius                 ....   0.400
   Minimum AH scaling param. (alpha)    ....   1.000
   Maximum AH scaling param. (alpha)    .... 1000.000
   Orbital update algorithm             .... Taylor
   White noise on init. David. guess    .... on
   Maximum white noise                  ....   0.010
   Quad. conv. algorithm                .... NR
   COSX micro iterations for RIJONX calc.... off
 SOSCF                  CNVSOSCF        .... on
   Start iteration      SOSCFMaxIt      ....   150
   Startup grad/error   SOSCFStart      ....  0.003300
 Level Shifting         CNVShift        .... on
   Level shift para.    LevelShift      ....    0.2500
   Turn off err/grad.   ShiftErr        ....    0.0010
 Zerner damping         CNVZerner       .... off
 Static damping         CNVDamp         .... on
   Fraction old density DampFac         ....    0.7000
   Max. Damping (<1)    DampMax         ....    0.9800
   Min. Damping (>=0)   DampMin         ....    0.0000
   Turn off err/grad.   DampErr         ....    0.1000
 Fernandez-Rico         CNVRico         .... off

SCF Procedure:
 Maximum # iterations   MaxIter         ....   125
 SCF integral mode      SCFMode         .... Direct
   Integral package                     .... SHARK and LIBINT hybrid scheme
 Reset frequency        DirectResetFreq ....    20
 Integral Threshold     Thresh          ....  2.500e-11 Eh
 Primitive CutOff       TCut            ....  2.500e-12 Eh

Convergence Tolerance:
 Convergence Check Mode ConvCheckMode   .... Total+1el-Energy
 Convergence forced     ConvForced      .... 0
 Energy Change          TolE            ....  1.000e-08 Eh
 1-El. energy change                    ....  1.000e-05 Eh
 Orbital Gradient       TolG            ....  1.000e-05
 Orbital Rotation angle TolX            ....  1.000e-05
 DIIS Error             TolErr          ....  5.000e-07


Diagonalization of the overlap matrix:
Smallest eigenvalue                        ... 3.975e-03
Time for diagonalization                   ...    0.003 sec
Threshold for overlap eigenvalues          ... 1.000e-08
Number of eigenvalues below threshold      ... 0
Time for construction of square roots      ...    0.132 sec
Total time needed                          ...    0.136 sec

--------------------------------
INITIAL GUESS: MINIMAL BASIS EHT
--------------------------------
The minimal basis has 40 functions
EHT matrix was diagonalized
Basis set overlap was calculated now projecting the orbitals
Using GuessMode=FMatrix for the initial guess
C*T matrix was formed
Effective Fockian was calculated
Effective Fockian was diagonalized
Initial density was built
                      ------------------
                      INITIAL GUESS DONE
                      ------------------
-------------------
DFT GRID GENERATION
-------------------

General Integration Accuracy     IntAcc      ... 4.959
Radial Grid Type                 RadialGrid  ... OptM3 with GC (2021)
Angular Grid (max. ang.)         AngularGrid ... 6 (Lebedev-590)
Angular grid pruning method      GridPruning ... 4 (adaptive)
Weight generation scheme         WeightScheme... Becke
Basis function cutoff            BFCut       ... 1.0000e-11
Integration weight cutoff        WCut        ... 1.0000e-14
Angular grids for H and He will be reduced by one unit
Partially contracted basis set               ... off
Rotationally invariant grid construction     ... off

Total number of grid points                  ...   169364
Total number of batches                      ...     2656
Average number of points per batch           ...       63
Average number of grid points per atom       ...    10585
Time for grid setup =    3.019 sec

--------------------
COSX GRID GENERATION
--------------------

GRIDX 1
-------
General Integration Accuracy     IntAcc      ... 4.020
Radial Grid Type                 RadialGrid  ... OptM3 with GC (2021)
Angular Grid (max. ang.)         AngularGrid ... 2 (Lebedev-110)
Angular grid pruning method      GridPruning ... 4 (adaptive)
Weight generation scheme         WeightScheme... Becke
Basis function cutoff            BFCut       ... 1.0000e-11
Integration weight cutoff        WCut        ... 1.0000e-14
Angular grids for H and He will be reduced by one unit
Partially contracted basis set               ... on
Rotationally invariant grid construction     ... off

Total number of grid points                  ...    17589
Total number of batches                      ...      283
Average number of points per batch           ...       62
Average number of grid points per atom       ...     1099
UseSFitting                                  ... on

GRIDX 2
-------
General Integration Accuracy     IntAcc      ... 4.338
Radial Grid Type                 RadialGrid  ... OptM3 with GC (2021)
Angular Grid (max. ang.)         AngularGrid ... 3 (Lebedev-194)
Angular grid pruning method      GridPruning ... 4 (adaptive)
Weight generation scheme         WeightScheme... Becke
Basis function cutoff            BFCut       ... 1.0000e-11
Integration weight cutoff        WCut        ... 1.0000e-14
Angular grids for H and He will be reduced by one unit
Partially contracted basis set               ... on
Rotationally invariant grid construction     ... off

Total number of grid points                  ...    38917
Total number of batches                      ...      618
Average number of points per batch           ...       62
Average number of grid points per atom       ...     2432
UseSFitting                                  ... on

GRIDX 3
-------
General Integration Accuracy     IntAcc      ... 4.871
Radial Grid Type                 RadialGrid  ... OptM3 with GC (2021)
Angular Grid (max. ang.)         AngularGrid ... 4 (Lebedev-302)
Angular grid pruning method      GridPruning ... 4 (adaptive)
Weight generation scheme         WeightScheme... Becke
Basis function cutoff            BFCut       ... 1.0000e-11
Integration weight cutoff        WCut        ... 1.0000e-14
Angular grids for H and He will be reduced by one unit
Partially contracted basis set               ... on
Rotationally invariant grid construction     ... off

Total number of grid points                  ...    77706
Total number of batches                      ...     1222
Average number of points per batch           ...       63
Average number of grid points per atom       ...     4857
UseSFitting                                  ... on

Time for X-Grid setup             =    4.248 sec

--------------
SCF ITERATIONS
--------------
ITER       Energy         Delta-E        Max-DP      RMS-DP      [F,P]     Damp
               ***  Starting incremental Fock matrix formation  ***
  0   -498.8559556688   0.000000000000 0.27402972  0.00529958  0.4403963 0.7000
  1   -499.1053528341  -0.249397165303 0.18073942  0.00366054  0.2729145 0.7000
                               ***Turning on DIIS***
  2   -499.2588605391  -0.153507705011 0.10944026  0.00229459  0.1919752 0.7000
  3   -499.3637091358  -0.104848596729 0.06021066  0.00152218  0.1348282 0.7000
  4   -499.4382721980  -0.074563062193 0.15977418  0.00382817  0.0943023 0.0000
  5   -499.6163824542  -0.178110256124 0.02161547  0.00051513  0.0162299 0.0000
  6   -499.6167129627  -0.000330508531 0.00369015  0.00015786  0.0059218 0.0000
                      *** Initiating the SOSCF procedure ***
                           *** Shutting down DIIS ***
                      *** Re-Reading the Fockian *** 
                      *** Removing any level shift *** 
ITER      Energy       Delta-E        Grad      Rot      Max-DP    RMS-DP
  7   -499.61680027  -0.0000873081  0.000469  0.000469  0.002065  0.000098
               *** Restarting incremental Fock matrix formation ***
  8   -499.61681772  -0.0000174445  0.000210  0.000655  0.002115  0.000080
  9   -499.61682030  -0.0000025831  0.000136  0.000647  0.001238  0.000053
 10   -499.61682057  -0.0000002714  0.000101  0.000233  0.000554  0.000021
 11   -499.61682077  -0.0000002001  0.000007  0.000012  0.000056  0.000002
 12   -499.61682077  -0.0000000040  0.000006  0.000005  0.000032  0.000001
                 **** Energy Check signals convergence ****
              ***Rediagonalizing the Fockian in SOSCF/NRSCF***

               *****************************************************
               *                     SUCCESS                       *
               *           SCF CONVERGED AFTER  13 CYCLES          *
               *****************************************************

Old exchange energy                            =    -19.868534436 Eh
New exchange energy                            =    -19.868535678 Eh
Exchange energy change after final integration =     -0.000001242 Eh
Total energy after final integration           =   -499.616822015 Eh
Final COS-X integration done in                =     1.798 sec

----------------
TOTAL SCF ENERGY
----------------

Total Energy       :         -499.61682201 Eh          -13595.26490 eV

Components:
Nuclear Repulsion  :          255.32873019 Eh            6947.84797 eV
Electronic Energy  :         -754.94555221 Eh          -20543.11287 eV
One Electron Energy:        -1190.59477892 Eh          -32397.73100 eV
Two Electron Energy:          435.64922672 Eh           11854.61814 eV
Max COSX asymmetry :            0.00000279 Eh               0.00008 eV

Virial components:
Potential Energy   :         -997.24816765 Eh          -27136.50223 eV
Kinetic Energy     :          497.63134563 Eh           13541.23734 eV
Virial Ratio       :            2.00398985


DFT components:
N(Alpha)           :       24.999999996750 electrons
N(Beta)            :       24.999999996750 electrons
N(Total)           :       49.999999993500 electrons
E(X)               :      -26.401313351724 Eh       
E(C)               :       -2.229489067336 Eh       
E(XC)              :      -28.630802419061 Eh       
DFET-embed. en.    :        0.000000000000 Eh       

---------------
SCF CONVERGENCE
---------------

  Last Energy change         ...    1.1069e-09  Tolerance :   1.0000e-08
  Last MAX-Density change    ...    2.6645e-15  Tolerance :   1.0000e-07
  Last RMS-Density change    ...    6.3447e-17  Tolerance :   5.0000e-09
  Last Orbital Gradient      ...    4.0985e-07  Tolerance :   1.0000e-05
  Last Orbital Rotation      ...    5.4061e-07  Tolerance :   1.0000e-05

             **** THE GBW FILE WAS UPDATED (pbeh-3c.gbw) ****
             **** DENSITY pbeh-3c.scfp WAS UPDATED ****
             **** ENERGY FILE WAS UPDATED (pbeh-3c.en.tmp) ****
             **** THE GBW FILE WAS UPDATED (pbeh-3c.gbw) ****
             **** DENSITY pbeh-3c.scfp WAS UPDATED ****
----------------
ORBITAL ENERGIES
----------------

  NO   OCC          E(Eh)            E(eV) 
   0   2.0000     -77.782657     -2116.5737 
   1   2.0000     -10.441743      -284.1343 
   2   2.0000     -10.441728      -284.1339 
   3   2.0000     -10.431872      -283.8657 
   4   2.0000     -10.360639      -281.9273 
   5   2.0000      -6.847880      -186.3403 
   6   2.0000      -4.940513      -134.4382 
   7   2.0000      -4.939450      -134.4093 
   8   2.0000      -4.938265      -134.3770 
   9   2.0000      -0.879306       -23.9271 
  10   2.0000      -0.792487       -21.5647 
  11   2.0000      -0.781463       -21.2647 
  12   2.0000      -0.726131       -19.7590 
  13   2.0000      -0.584257       -15.8984 
  14   2.0000      -0.506122       -13.7723 
  15   2.0000      -0.500153       -13.6098 
  16   2.0000      -0.500140       -13.6095 
  17   2.0000      -0.479976       -13.0608 
  18   2.0000      -0.465511       -12.6672 
  19   2.0000      -0.452368       -12.3095 
  20   2.0000      -0.428241       -11.6530 
  21   2.0000      -0.397372       -10.8130 
  22   2.0000      -0.384543       -10.4640 
  23   2.0000      -0.383680       -10.4405 
  24   2.0000      -0.195684        -5.3248 
  25   0.0000       0.114179         3.1070 
  26   0.0000       0.115007         3.1295 
  27   0.0000       0.125826         3.4239 
  28   0.0000       0.148856         4.0506 
  29   0.0000       0.170700         4.6450 
  30   0.0000       0.172638         4.6977 
  31   0.0000       0.194611         5.2956 
  32   0.0000       0.199440         5.4270 
  33   0.0000       0.202824         5.5191 
  34   0.0000       0.203886         5.5480 
  35   0.0000       0.217412         5.9161 
  36   0.0000       0.229401         6.2423 
  37   0.0000       0.248578         6.7642 
  38   0.0000       0.276325         7.5192 
  39   0.0000       0.291769         7.9394 
  40   0.0000       0.436753        11.8847 
  41   0.0000       0.437713        11.9108 
  42   0.0000       0.443919        12.0796 
  43   0.0000       0.472863        12.8673 
  44   0.0000       0.473397        12.8818 
  45   0.0000       0.536059        14.5869 
  46   0.0000       0.542943        14.7742 
  47   0.0000       0.576370        15.6838 
  48   0.0000       0.579097        15.7580 
  49   0.0000       0.604786        16.4571 
  50   0.0000       0.675824        18.3901 
  51   0.0000       0.711315        19.3559 
  52   0.0000       0.717239        19.5171 
  53   0.0000       0.737046        20.0561 
  54   0.0000       0.745156        20.2767 
  55   0.0000       0.752154        20.4671 
  56   0.0000       0.776327        21.1249 
  57   0.0000       0.860563        23.4171 
  58   0.0000       0.976585        26.5742 
  59   0.0000       0.983819        26.7711 
  60   0.0000       0.993274        27.0284 
  61   0.0000       1.008088        27.4315 
  62   0.0000       1.024485        27.8776 
  63   0.0000       1.027834        27.9688 
  64   0.0000       1.037720        28.2378 
  65   0.0000       1.063245        28.9324 
  66   0.0000       1.067004        29.0347 
  67   0.0000       1.103456        30.0266 
  68   0.0000       1.127154        30.6714 
  69   0.0000       1.132912        30.8281 
  70   0.0000       1.150751        31.3135 
  71   0.0000       1.152702        31.3666 
  72   0.0000       1.181858        32.1600 
  73   0.0000       1.318594        35.8808 
  74   0.0000       1.356092        36.9011 
  75   0.0000       1.388119        37.7726 
  76   0.0000       1.711367        46.5687 
  77   0.0000       1.738478        47.3064 
  78   0.0000       1.745762        47.5046 
  79   0.0000       1.849761        50.3345 
  80   0.0000       1.874761        51.0148 
  81   0.0000       1.940761        52.8108 
  82   0.0000       1.975061        53.7441 
  83   0.0000       2.028331        55.1937 
  84   0.0000       2.117155        57.6107 
  85   0.0000       2.217241        60.3342 
  86   0.0000       2.250396        61.2364 
  87   0.0000       2.255020        61.3622 
  88   0.0000       2.283042        62.1247 
  89   0.0000       2.314598        62.9834 
  90   0.0000       2.315068        62.9962 
  91   0.0000       2.318934        63.1014 
  92   0.0000       2.327000        63.3209 
  93   0.0000       2.367048        64.4107 
  94   0.0000       2.397010        65.2260 
  95   0.0000       2.425782        66.0089 
  96   0.0000      13.712088       373.1249 
  97   0.0000      13.753864       374.2617 
  98   0.0000      13.772486       374.7684 
  99   0.0000      13.785150       375.1130 

                    ********************************
                    * MULLIKEN POPULATION ANALYSIS *
                    ********************************

-----------------------
MULLIKEN ATOMIC CHARGES
-----------------------
   0 C :   -0.844630
   1 P :    0.742693
   2 H :    0.190960
   3 H :    0.190960
   4 C :   -0.829413
   5 C :   -0.829413
   6 C :   -0.837142
   7 H :    0.231916
   8 H :    0.265925
   9 H :    0.253764
  10 H :    0.220911
  11 H :    0.245931
  12 H :    0.245931
  13 H :    0.231916
  14 H :    0.253764
  15 H :    0.265925
Sum of atomic charges:   -0.0000000

--------------------------------
MULLIKEN REDUCED ORBITAL CHARGES
--------------------------------
  0 C s       :     3.330130  s :     3.330130
      pz      :     1.050169  p :     3.491465
      px      :     0.902110
      py      :     1.539186
      dz2     :     0.006669  d :     0.023035
      dxz     :     0.006182
      dyz     :     0.002526
      dx2y2   :     0.003661
      dxy     :     0.003997
  1 P s       :     5.166320  s :     5.166320
      pz      :     2.832414  p :     8.723972
      px      :     2.954033
      py      :     2.937526
      dz2     :     0.067155  d :     0.367015
      dxz     :     0.061907
      dyz     :     0.043961
      dx2y2   :     0.060920
      dxy     :     0.133071
  2 H s       :     0.809040  s :     0.809040
  3 H s       :     0.809040  s :     0.809040
  4 C s       :     3.427622  s :     3.427622
      pz      :     1.100214  p :     3.373011
      px      :     1.117013
      py      :     1.155784
      dz2     :     0.006681  d :     0.028780
      dxz     :     0.004624
      dyz     :     0.004076
      dx2y2   :     0.010308
      dxy     :     0.003090
  5 C s       :     3.427622  s :     3.427622
      pz      :     1.100214  p :     3.373011
      px      :     1.117013
      py      :     1.155784
      dz2     :     0.006681  d :     0.028780
      dxz     :     0.004624
      dyz     :     0.004076
      dx2y2   :     0.010308
      dxy     :     0.003090
  6 C s       :     3.427717  s :     3.427717
      pz      :     1.157723  p :     3.380620
      px      :     1.116834
      py      :     1.106064
      dz2     :     0.006762  d :     0.028805
      dxz     :     0.003281
      dyz     :     0.007770
      dx2y2   :     0.007594
      dxy     :     0.003398
  7 H s       :     0.768084  s :     0.768084
  8 H s       :     0.734075  s :     0.734075
  9 H s       :     0.746236  s :     0.746236
 10 H s       :     0.779089  s :     0.779089
 11 H s       :     0.754069  s :     0.754069
 12 H s       :     0.754069  s :     0.754069
 13 H s       :     0.768084  s :     0.768084
 14 H s       :     0.746236  s :     0.746236
 15 H s       :     0.734075  s :     0.734075


                     *******************************
                     * LOEWDIN POPULATION ANALYSIS *
                     *******************************

----------------------
LOEWDIN ATOMIC CHARGES
----------------------
   0 C :   -0.796656
   1 P :    0.802155
   2 H :    0.127423
   3 H :    0.127423
   4 C :   -0.511576
   5 C :   -0.511576
   6 C :   -0.546719
   7 H :    0.137912
   8 H :    0.154827
   9 H :    0.152119
  10 H :    0.131570
  11 H :    0.144120
  12 H :    0.144120
  13 H :    0.137912
  14 H :    0.152119
  15 H :    0.154827

-------------------------------
LOEWDIN REDUCED ORBITAL CHARGES
-------------------------------
  0 C s       :     3.020390  s :     3.020390
      pz      :     1.104195  p :     3.733284
      px      :     1.058717
      py      :     1.570372
      dz2     :     0.012916  d :     0.042982
      dxz     :     0.012419
      dyz     :     0.003183
      dx2y2   :     0.007880
      dxy     :     0.006583
  1 P s       :     4.977281  s :     4.977281
      pz      :     2.846597  p :     8.704462
      px      :     2.950698
      py      :     2.907168
      dz2     :     0.097657  d :     0.516101
      dxz     :     0.084634
      dyz     :     0.061494
      dx2y2   :     0.084800
      dxy     :     0.187516
  2 H s       :     0.872577  s :     0.872577
  3 H s       :     0.872577  s :     0.872577
  4 C s       :     3.003518  s :     3.003518
      pz      :     1.154806  p :     3.457190
      px      :     1.140795
      py      :     1.161589
      dz2     :     0.012172  d :     0.050867
      dxz     :     0.008846
      dyz     :     0.007885
      dx2y2   :     0.016917
      dxy     :     0.005048
  5 C s       :     3.003518  s :     3.003518
      pz      :     1.154806  p :     3.457190
      px      :     1.140795
      py      :     1.161589
      dz2     :     0.012172  d :     0.050867
      dxz     :     0.008846
      dyz     :     0.007885
      dx2y2   :     0.016917
      dxy     :     0.005048
  6 C s       :     3.021474  s :     3.021474
      pz      :     1.155428  p :     3.474167
      px      :     1.144143
      py      :     1.174595
      dz2     :     0.011831  d :     0.051079
      dxz     :     0.005002
      dyz     :     0.013034
      dx2y2   :     0.013771
      dxy     :     0.007442
  7 H s       :     0.862088  s :     0.862088
  8 H s       :     0.845173  s :     0.845173
  9 H s       :     0.847881  s :     0.847881
 10 H s       :     0.868430  s :     0.868430
 11 H s       :     0.855880  s :     0.855880
 12 H s       :     0.855880  s :     0.855880
 13 H s       :     0.862088  s :     0.862088
 14 H s       :     0.847881  s :     0.847881
 15 H s       :     0.845173  s :     0.845173


                      *****************************
                      * MAYER POPULATION ANALYSIS *
                      *****************************

  NA   - Mulliken gross atomic population
  ZA   - Total nuclear charge
  QA   - Mulliken gross atomic charge
  VA   - Mayer's total valence
  BVA  - Mayer's bonded valence
  FA   - Mayer's free valence

  ATOM       NA         ZA         QA         VA         BVA        FA
  0 C      6.8446     6.0000    -0.8446     3.4731     3.4731    -0.0000
  1 P     14.2573    15.0000     0.7427     4.4129     4.4129    -0.0000
  2 H      0.8090     1.0000     0.1910     0.9374     0.9374    -0.0000
  3 H      0.8090     1.0000     0.1910     0.9374     0.9374    -0.0000
  4 C      6.8294     6.0000    -0.8294     3.6912     3.6912     0.0000
  5 C      6.8294     6.0000    -0.8294     3.6912     3.6912    -0.0000
  6 C      6.8371     6.0000    -0.8371     3.6497     3.6497    -0.0000
  7 H      0.7681     1.0000     0.2319     0.9079     0.9079     0.0000
  8 H      0.7341     1.0000     0.2659     0.9004     0.9004    -0.0000
  9 H      0.7462     1.0000     0.2538     0.9031     0.9031    -0.0000
 10 H      0.7791     1.0000     0.2209     0.9125     0.9125    -0.0000
 11 H      0.7541     1.0000     0.2459     0.9064     0.9064     0.0000
 12 H      0.7541     1.0000     0.2459     0.9064     0.9064    -0.0000
 13 H      0.7681     1.0000     0.2319     0.9079     0.9079     0.0000
 14 H      0.7462     1.0000     0.2538     0.9031     0.9031     0.0000
 15 H      0.7341     1.0000     0.2659     0.9004     0.9004    -0.0000

  Mayer bond orders larger than 0.100000
B(  0-C ,  1-P ) :   1.5419 B(  0-C ,  2-H ) :   0.9207 B(  0-C ,  3-H ) :   0.9207 
B(  1-P ,  4-C ) :   0.9751 B(  1-P ,  5-C ) :   0.9751 B(  1-P ,  6-C ) :   0.8699 
B(  4-C ,  7-H ) :   0.9058 B(  4-C ,  8-H ) :   0.9030 B(  4-C ,  9-H ) :   0.9045 
B(  5-C , 13-H ) :   0.9058 B(  5-C , 14-H ) :   0.9045 B(  5-C , 15-H ) :   0.9030 
B(  6-C , 10-H ) :   0.9046 B(  6-C , 11-H ) :   0.9123 B(  6-C , 12-H ) :   0.9123 


-------
TIMINGS
-------

Total SCF time: 0 days 0 hours 0 min 43 sec 

Total time                  ....      43.386 sec
Sum of individual times     ....      40.529 sec  ( 93.4%)

Fock matrix formation       ....      32.617 sec  ( 75.2%)
  Split-RI-J                ....       2.532 sec  (  7.8% of F)
  Chain of spheres X        ....      14.480 sec  ( 44.4% of F)
  XC integration            ....      11.107 sec  ( 34.1% of F)
    Basis function eval.    ....       2.249 sec  ( 20.2% of XC)
    Density eval.           ....       1.331 sec  ( 12.0% of XC)
    XC-Functional eval.     ....       1.239 sec  ( 11.2% of XC)
    XC-Potential eval.      ....       0.679 sec  (  6.1% of XC)
Diagonalization             ....       0.167 sec  (  0.4%)
Density matrix formation    ....       0.004 sec  (  0.0%)
Population analysis         ....       0.010 sec  (  0.0%)
Initial guess               ....       0.008 sec  (  0.0%)
Orbital Transformation      ....       0.000 sec  (  0.0%)
Orbital Orthonormalization  ....       0.000 sec  (  0.0%)
DIIS solution               ....       0.414 sec  (  1.0%)
SOSCF solution              ....       0.043 sec  (  0.1%)
Grid generation             ....       7.267 sec  ( 16.8%)

Maximum memory used throughout the entire SCF-calculation: 52.3 MB


-------------------------------------------------------------------------------
                          DFT DISPERSION CORRECTION                            
                                                                               
                              DFTD3 V3.1  Rev 1                                
                          USING Becke-Johnson damping                          
-------------------------------------------------------------------------------
The PBEh-3c composite method is recognized
Using three-body term ABC
Active option DFTDOPT                   ...         4   

molecular C6(AA) [au] = 2434.161453 


            DFT-D V3
 parameters
 s6 scaling factor         :     1.0000 
 a1 scaling factor         :     0.4860 
 s8 scaling factor         :     0.0000 
 a2 scaling factor         :     4.5000 
 Damping factor alpha9(ATM):    16.0000 
 ad hoc parameters k1-k3   :    16.0000     1.3333    -4.0000 

 Edisp/kcal,au: -4.947411150634  -0.007884200681 
 E6   /kcal   :  -4.983249414 
 E8   /kcal   :  -0.000000000 
 E6(ABC)      :   0.035838264 
 % E8         :   0.000000000 
 % E6(ABC)    :  -0.724384177 

-------------------------   ----------------
Dispersion correction           -0.007884201
-------------------------   ----------------

------------------   -----------------
gCP correction             0.015122820
------------------   -----------------

-------------------------   --------------------
FINAL SINGLE POINT ENERGY      -499.609583395873
-------------------------   --------------------


                            ***************************************
                            *     ORCA property calculations      *
                            ***************************************

                                    ---------------------
                                    Active property flags
                                    ---------------------
   (+) Dipole Moment


------------------------------------------------------------------------------
                       ORCA ELECTRIC PROPERTIES CALCULATION
------------------------------------------------------------------------------

Dipole Moment Calculation                       ... on
Quadrupole Moment Calculation                   ... off
Polarizability Calculation                      ... off
GBWName                                         ... pbeh-3c.gbw
Electron density                                ... pbeh-3c.scfp
The origin for moment calculation is the CENTER OF MASS  = ( 0.046329,  0.011295  0.000000)

-------------
DIPOLE MOMENT
-------------
                                X             Y             Z
Electronic contribution:      1.09198       0.26165      -0.00000
Nuclear contribution   :     -2.31646      -0.56476      -0.00000
                        -----------------------------------------
Total Dipole Moment    :     -1.22448      -0.30311      -0.00000
                        -----------------------------------------
Magnitude (a.u.)       :      1.26144
Magnitude (Debye)      :      3.20632



--------------------
Rotational spectrum 
--------------------
 
Rotational constants in cm-1:     0.122623     0.118733     0.109601 
Rotational constants in MHz :  3676.136838  3559.538046  3285.751815 

 Dipole components along the rotational axes: 
x,y,z [a.u.] :    -1.175434    -0.000000     0.457797 
x,y,z [Debye]:    -2.987717    -0.000000     1.163628 

 

Timings for individual modules:

Sum of individual times         ...       48.405 sec (=   0.807 min)
GTO integral calculation        ...        4.182 sec (=   0.070 min)   8.6 %
SCF iterations                  ...       44.223 sec (=   0.737 min)  91.4 %
                             ****ORCA TERMINATED NORMALLY****
TOTAL RUN TIME: 0 days 0 hours 0 minutes 49 seconds 781 msec
