
                                 *****************
                                 * O   R   C   A *
                                 *****************

                                            #,                                       
                                            ###                                      
                                            ####                                     
                                            #####                                    
                                            ######                                   
                                           ########,                                 
                                     ,,################,,,,,                         
                               ,,#################################,,                 
                          ,,##########################################,,             
                       ,#########################################, ''#####,          
                    ,#############################################,,   '####,        
                  ,##################################################,,,,####,       
                ,###########''''           ''''###############################       
              ,#####''   ,,,,##########,,,,          '''####'''          '####       
            ,##' ,,,,###########################,,,                        '##       
           ' ,,###''''                  '''############,,,                           
         ,,##''                                '''############,,,,        ,,,,,,###''
      ,#''                                            '''#######################'''  
     '                                                          ''''####''''         
             ,#######,   #######,   ,#######,      ##                                
            ,#'     '#,  ##    ##  ,#'     '#,    #''#        ######   ,####,        
            ##       ##  ##   ,#'  ##            #'  '#       #        #'  '#        
            ##       ##  #######   ##           ,######,      #####,   #    #        
            '#,     ,#'  ##    ##  '#,     ,#' ,#      #,         ##   #,  ,#        
             '#######'   ##     ##  '#######'  #'      '#     #####' # '####'        



                  #######################################################
                  #                        -***-                        #
                  #          Department of theory and spectroscopy      #
                  #    Directorship and core code : Frank Neese         #
                  #        Max Planck Institute fuer Kohlenforschung    #
                  #                Kaiser Wilhelm Platz 1               #
                  #                 D-45470 Muelheim/Ruhr               #
                  #                      Germany                        #
                  #                                                     #
                  #                  All rights reserved                #
                  #                        -***-                        #
                  #######################################################


                         Program Version 5.0.3 -  RELEASE  -


 With contributions from (in alphabetic order):
   Daniel Aravena         : Magnetic Suceptibility
   Michael Atanasov       : Ab Initio Ligand Field Theory (pilot matlab implementation)
   Alexander A. Auer      : GIAO ZORA, VPT2 properties, NMR spectrum
   Ute Becker             : Parallelization
   Giovanni Bistoni       : ED, misc. LED, open-shell LED, HFLD
   Martin Brehm           : Molecular dynamics
   Dmytro Bykov           : SCF Hessian
   Vijay G. Chilkuri      : MRCI spin determinant printing, contributions to CSF-ICE
   Dipayan Datta          : RHF DLPNO-CCSD density
   Achintya Kumar Dutta   : EOM-CC, STEOM-CC
   Dmitry Ganyushin       : Spin-Orbit,Spin-Spin,Magnetic field MRCI
   Miquel Garcia          : C-PCM and meta-GGA Hessian, CC/C-PCM, Gaussian charge scheme
   Yang Guo               : DLPNO-NEVPT2, F12-NEVPT2, CIM, IAO-localization
   Andreas Hansen         : Spin unrestricted coupled pair/coupled cluster methods
   Benjamin Helmich-Paris : MC-RPA, TRAH-SCF, COSX integrals
   Lee Huntington         : MR-EOM, pCC
   Robert Izsak           : Overlap fitted RIJCOSX, COSX-SCS-MP3, EOM
   Marcus Kettner         : VPT2
   Christian Kollmar      : KDIIS, OOCD, Brueckner-CCSD(T), CCSD density, CASPT2, CASPT2-K
   Simone Kossmann        : Meta GGA functionals, TD-DFT gradient, OOMP2, MP2 Hessian
   Martin Krupicka        : Initial AUTO-CI
   Lucas Lang             : DCDCAS
   Marvin Lechner         : AUTO-CI (C++ implementation), FIC-MRCC
   Dagmar Lenk            : GEPOL surface, SMD
   Dimitrios Liakos       : Extrapolation schemes; Compound Job, initial MDCI parallelization
   Dimitrios Manganas     : Further ROCIS development; embedding schemes
   Dimitrios Pantazis     : SARC Basis sets
   Anastasios Papadopoulos: AUTO-CI, single reference methods and gradients
   Taras Petrenko         : DFT Hessian,TD-DFT gradient, ASA, ECA, R-Raman, ABS, FL, XAS/XES, NRVS
   Peter Pinski           : DLPNO-MP2, DLPNO-MP2 Gradient
   Christoph Reimann      : Effective Core Potentials
   Marius Retegan         : Local ZFS, SOC
   Christoph Riplinger    : Optimizer, TS searches, QM/MM, DLPNO-CCSD(T), (RO)-DLPNO pert. Triples
   Tobias Risthaus        : Range-separated hybrids, TD-DFT gradient, RPA, STAB
   Michael Roemelt        : Original ROCIS implementation
   Masaaki Saitow         : Open-shell DLPNO-CCSD energy and density
   Barbara Sandhoefer     : DKH picture change effects
   Avijit Sen             : IP-ROCIS
   Kantharuban Sivalingam : CASSCF convergence, NEVPT2, FIC-MRCI
   Bernardo de Souza      : ESD, SOC TD-DFT
   Georgi Stoychev        : AutoAux, RI-MP2 NMR, DLPNO-MP2 response
   Willem Van den Heuvel  : Paramagnetic NMR
   Boris Wezisla          : Elementary symmetry handling
   Frank Wennmohs         : Technical directorship


 We gratefully acknowledge several colleagues who have allowed us to
 interface, adapt or use parts of their codes:
   Stefan Grimme, W. Hujo, H. Kruse, P. Pracht,  : VdW corrections, initial TS optimization,
                  C. Bannwarth, S. Ehlert          DFT functionals, gCP, sTDA/sTD-DF
   Ed Valeev, F. Pavosevic, A. Kumar             : LibInt (2-el integral package), F12 methods
   Garnet Chan, S. Sharma, J. Yang, R. Olivares  : DMRG
   Ulf Ekstrom                                   : XCFun DFT Library
   Mihaly Kallay                                 : mrcc  (arbitrary order and MRCC methods)
   Jiri Pittner, Ondrej Demel                    : Mk-CCSD
   Frank Weinhold                                : gennbo (NPA and NBO analysis)
   Christopher J. Cramer and Donald G. Truhlar   : smd solvation model
   Lars Goerigk                                  : TD-DFT with DH, B97 family of functionals
   V. Asgeirsson, H. Jonsson                     : NEB implementation
   FAccTs GmbH                                   : IRC, NEB, NEB-TS, DLPNO-Multilevel, CI-OPT
                                                   MM, QMMM, 2- and 3-layer-ONIOM, Crystal-QMMM,
                                                   LR-CPCM, SF, NACMEs, symmetry and pop. for TD-DFT,
                                                   nearIR, NL-DFT gradient (VV10), updates on ESD,
                                                   ML-optimized integration grids
   S Lehtola, MJT Oliveira, MAL Marques          : LibXC Library
   Liviu Ungur et al                             : ANISO software


 Your calculation uses the libint2 library for the computation of 2-el integrals
 For citations please refer to: http://libint.valeyev.net

 Your ORCA version has been built with support for libXC version: 5.1.0
 For citations please refer to: https://tddft.org/programs/libxc/

 This ORCA versions uses:
   CBLAS   interface :  Fast vector & matrix operations
   LAPACKE interface :  Fast linear algebra routines
   SCALAPACK package :  Parallel linear algebra routines
   Shared memory     :  Shared parallel matrices
   BLAS/LAPACK       :  OpenBLAS 0.3.15  USE64BITINT DYNAMIC_ARCH NO_AFFINITY Haswell SINGLE_THREADED
        Core in use  :  Haswell
   Copyright (c) 2011-2014, The OpenBLAS Project




***************************************
The coordinates will be read from file: C3H7NH2.xyz
***************************************


Your calculation utilizes the geometrical counterpoise correction gCP
Please cite in your paper:
H.Kruse, S. Grimme J.Chem.Phys., 136, (2012), 154101 
   

Your calculation utilizes the atom-pairwise dispersion correction
with the Becke-Johnson damping scheme (D3BJ)
Cite in your paper:
S.Grimme, S.Ehrlich, L.Goerigk, J Comput Chem, (2011), 32, 1456–1465 
S.Grimme, J.Antony, S.Ehrlich and H.Krieg, J.Chem.Phys., 132, (2010), 154104 
   

Your calculation employs the composite approach PBEh-3c.
Please cite in your paper:
S. Grimme, J. G. Brandenburg, C. Bannwarth, A. Hansen J.Chem.Phys., 143, (2015), 054107 
   

================================================================================

----- Orbital basis set information -----
Your calculation utilizes the basis: def2-mSVP

----- AuxJ basis set information -----
Your calculation utilizes the auxiliary basis: def2/J
   F. Weigend, Phys. Chem. Chem. Phys. 8, 1057 (2006).

================================================================================
                                        WARNINGS
                       Please study these warnings very carefully!
================================================================================


INFO   : the flag for use of the SHARK integral package has been found!

================================================================================
                                       INPUT FILE
================================================================================
NAME = pbeh-3c.inp
|  1> ! PBEh-3c def2/J TightSCF DefGrid3
|  2> 
|  3> %maxcore 60000
|  4> 
|  5> %pal
|  6> nprocs 4
|  7> end
|  8> 
|  9> *xyzfile 0 1 C3H7NH2.xyz
| 10> 
| 11>                          ****END OF INPUT****
================================================================================

                       ****************************
                       * Single Point Calculation *
                       ****************************

---------------------------------
CARTESIAN COORDINATES (ANGSTROEM)
---------------------------------
  C     -1.253664   -0.662119   -1.067817
  H     -0.844184   -1.679199   -1.164704
  H     -1.027597   -0.123933   -2.000831
  H     -2.346417   -0.750194   -0.992519
  C     -0.668416    0.063970    0.145236
  H     -1.102482    1.072039    0.237277
  H     -0.944725   -0.476697    1.067686
  C      0.853260    0.195937    0.085331
  H      1.131780    0.756598   -0.822407
  H      1.297311   -0.816670   -0.022088
  N      1.358902    0.946927    1.244540
  H      1.172184    0.424326    2.104044
  H      2.374050    1.049016    1.186252

----------------------------
CARTESIAN COORDINATES (A.U.)
----------------------------
  NO LB      ZA    FRAG     MASS         X           Y           Z
   0 C     6.0000    0    12.011   -2.369082   -1.251223   -2.017882
   1 H     1.0000    0     1.008   -1.595276   -3.173227   -2.200971
   2 H     1.0000    0     1.008   -1.941878   -0.234199   -3.781023
   3 H     1.0000    0     1.008   -4.434086   -1.417662   -1.875589
   4 C     6.0000    0    12.011   -1.263124    0.120885    0.274456
   5 H     1.0000    0     1.008   -2.083390    2.025860    0.448389
   6 H     1.0000    0     1.008   -1.785272   -0.900826    2.017634
   7 C     6.0000    0    12.011    1.612428    0.370267    0.161252
   8 H     1.0000    0     1.008    2.138755    1.429763   -1.554125
   9 H     1.0000    0     1.008    2.451562   -1.543283   -0.041741
  10 N     7.0000    0    14.007    2.567952    1.789432    2.351840
  11 H     1.0000    0     1.008    2.215106    0.801860    3.976068
  12 H     1.0000    0     1.008    4.486305    1.982353    2.241691

--------------------------------
INTERNAL COORDINATES (ANGSTROEM)
--------------------------------
 C      0   0   0     0.000000000000     0.00000000     0.00000000
 H      1   0   0     1.100688278135     0.00000000     0.00000000
 H      1   2   0     1.100575130118   107.50693152     0.00000000
 H      1   2   3     1.098879515238   107.57280926   115.56699829
 C      1   2   3     1.530103645812   111.46791545   237.90432075
 H      5   1   2     1.101402861451   110.47717414   181.03691274
 H      5   1   2     1.104346371891   109.52318747   297.72741687
 C      5   1   2     1.528562824642   112.99586369    59.32885859
 H      8   5   1     1.102679605249   109.12352978    59.40010266
 H      8   5   1     1.110897500684   108.84538380   303.63182360
 N      8   5   1     1.470858695513   110.81905953   177.70803427
 H     11   8   5     1.023094423476   109.78880019    64.47152136
 H     11   8   5     1.021932506788   110.33720116   181.27841486

---------------------------
INTERNAL COORDINATES (A.U.)
---------------------------
 C      0   0   0     0.000000000000     0.00000000     0.00000000
 H      1   0   0     2.079999404492     0.00000000     0.00000000
 H      1   2   0     2.079785585727   107.50693152     0.00000000
 H      1   2   3     2.076581337976   107.57280926   115.56699829
 C      1   2   3     2.891476847099   111.46791545   237.90432075
 H      5   1   2     2.081349771260   110.47717414   181.03691274
 H      5   1   2     2.086912199863   109.52318747   297.72741687
 C      5   1   2     2.888565117066   112.99586369    59.32885859
 H      8   5   1     2.083762467382   109.12352978    59.40010266
 H      8   5   1     2.099292039150   108.84538380   303.63182360
 N      8   5   1     2.779520116217   110.81905953   177.70803427
 H     11   8   5     1.933368269512   109.78880019    64.47152136
 H     11   8   5     1.931172565180   110.33720116   181.27841486

---------------------
BASIS SET INFORMATION
---------------------
There are 3 groups of distinct atoms

 Group   1 Type C   : 8s4p1d contracted to 4s2p1d pattern {5111/31/1}
 Group   2 Type H   : 4s contracted to 2s pattern {31}
 Group   3 Type N   : 8s4p1d contracted to 4s2p1d pattern {5111/31/1}

Atom   0C    basis set group =>   1
Atom   1H    basis set group =>   2
Atom   2H    basis set group =>   2
Atom   3H    basis set group =>   2
Atom   4C    basis set group =>   1
Atom   5H    basis set group =>   2
Atom   6H    basis set group =>   2
Atom   7C    basis set group =>   1
Atom   8H    basis set group =>   2
Atom   9H    basis set group =>   2
Atom  10N    basis set group =>   3
Atom  11H    basis set group =>   2
Atom  12H    basis set group =>   2
---------------------------------
AUXILIARY/J BASIS SET INFORMATION
---------------------------------
There are 3 groups of distinct atoms

 Group   1 Type C   : 12s5p4d2f1g contracted to 6s4p3d1f1g pattern {711111/2111/211/2/1}
 Group   2 Type H   : 5s2p1d contracted to 3s1p1d pattern {311/2/1}
 Group   3 Type N   : 12s5p4d2f1g contracted to 6s4p3d1f1g pattern {711111/2111/211/2/1}

Atom   0C    basis set group =>   1
Atom   1H    basis set group =>   2
Atom   2H    basis set group =>   2
Atom   3H    basis set group =>   2
Atom   4C    basis set group =>   1
Atom   5H    basis set group =>   2
Atom   6H    basis set group =>   2
Atom   7C    basis set group =>   1
Atom   8H    basis set group =>   2
Atom   9H    basis set group =>   2
Atom  10N    basis set group =>   3
Atom  11H    basis set group =>   2
Atom  12H    basis set group =>   2


           ************************************************************
           *        Program running with 4 parallel MPI-processes     *
           *              working on a common directory               *
           ************************************************************
------------------------------------------------------------------------------
                           ORCA GTO INTEGRAL CALCULATION
                           -- RI-GTO INTEGRALS CHOSEN --
------------------------------------------------------------------------------
------------------------------------------------------------------------------
                   ___                                                        
                  /   \      - P O W E R E D   B Y -                         
                 /     \                                                     
                 |  |  |   _    _      __       _____    __    __             
                 |  |  |  | |  | |    /  \     |  _  \  |  |  /  |          
                  \  \/   | |  | |   /    \    | | | |  |  | /  /          
                 / \  \   | |__| |  /  /\  \   | |_| |  |  |/  /          
                |  |  |   |  __  | /  /__\  \  |    /   |      \           
                |  |  |   | |  | | |   __   |  |    \   |  |\   \          
                \     /   | |  | | |  |  |  |  | |\  \  |  | \   \       
                 \___/    |_|  |_| |__|  |__|  |_| \__\ |__|  \__/        
                                                                              
                      - O R C A' S   B I G   F R I E N D -                    
                                      &                                       
                       - I N T E G R A L  F E E D E R -                       
                                                                              
 v1 FN, 2020, v2 2021                                                         
------------------------------------------------------------------------------


Reading SHARK input file pbeh-3c.SHARKINP.tmp ... ok
----------------------
SHARK INTEGRAL PACKAGE
----------------------

Number of atoms                             ...     13
Number of basis functions                   ...     78
Number of shells                            ...     46
Maximum angular momentum                    ...      2
Integral batch strategy                     ... SHARK/LIBINT Hybrid
RI-J (if used) integral strategy            ... SPLIT-RIJ (Revised 2003 algorithm where possible)
Printlevel                                  ...      1
Contraction scheme used                     ... SEGMENTED contraction
Coulomb Range Separation                    ... NOT USED
Exchange Range Separation                   ... NOT USED
Finite Nucleus Model                        ... NOT USED
Auxiliary Coulomb fitting basis             ... AVAILABLE
   # of basis functions in Aux-J            ...    295
   # of shells in Aux-J                     ...    105
   Maximum angular momentum in Aux-J        ...      4
Auxiliary J/K fitting basis                 ... NOT available
Auxiliary Correlation fitting basis         ... NOT available
Auxiliary 'external' fitting basis          ... NOT available
Integral threshold                          ...     2.500000e-11
Primitive cut-off                           ...     2.500000e-12
Primitive pair pre-selection threshold      ...     2.500000e-12

Calculating pre-screening integrals         ... done (  0.1 sec) Dimension = 46
Organizing shell pair data                  ... done (  0.2 sec)
Shell pair information
Total number of shell pairs                 ...      1081
Shell pairs after pre-screening             ...      1039
Total number of primitive shell pairs       ...      3995
Primitive shell pairs kept                  ...      2946
          la=0 lb=0:    560 shell pairs
          la=1 lb=0:    269 shell pairs
          la=1 lb=1:     36 shell pairs
          la=2 lb=0:    132 shell pairs
          la=2 lb=1:     32 shell pairs
          la=2 lb=2:     10 shell pairs

Calculating one electron integrals          ... done (  0.0 sec)
Calculating RI/J V-Matrix + Cholesky decomp.... done (  0.3 sec)
Calculating Nuclear repulsion               ... done (  0.1 sec) ENN=    130.712199348847 Eh

SHARK setup successfully completed in   1.5 seconds

Maximum memory used throughout the entire GTOINT-calculation: 9.8 MB


           ************************************************************
           *        Program running with 4 parallel MPI-processes     *
           *              working on a common directory               *
           ************************************************************
-------------------------------------------------------------------------------
                                 ORCA SCF
-------------------------------------------------------------------------------

------------
SCF SETTINGS
------------
Hamiltonian:
 Density Functional     Method          .... DFT(GTOs)
 Exchange Functional    Exchange        .... PBE
   PBE kappa parameter   XKappa         ....  1.024500
   PBE mue parameter    XMuePBE         ....  0.123457
 Correlation Functional Correlation     .... PBE
   PBE beta parameter  CBetaPBE         ....  0.030000
 LDA part of GGA corr.  LDAOpt          .... PW91-LDA
 Gradients option       PostSCFGGA      .... off
 Hybrid DFT is turned on
   Fraction HF Exchange ScalHFX         ....  0.420000
   Scaling of DF-GGA-X  ScalDFX         ....  0.580000
   Scaling of DF-GGA-C  ScalDFC         ....  1.000000
   Scaling of DF-LDA-C  ScalLDAC        ....  1.000000
   Perturbative correction              ....  0.000000
   Density functional embedding theory  .... OFF
 RI-approximation to the Coulomb term is turned on
   Number of AuxJ basis functions       .... 295
   RIJ-ON(X) (HFX calculated with O(N)) .... on
   Number of AuxJ basis functions       .... 295
   RIJ-COSX (HFX calculated with COS-X)).... on


General Settings:
 Integral files         IntName         .... pbeh-3c
 Hartree-Fock type      HFTyp           .... RHF
 Total Charge           Charge          ....    0
 Multiplicity           Mult            ....    1
 Number of Electrons    NEL             ....   34
 Basis Dimension        Dim             ....   78
 Nuclear Repulsion      ENuc            ....    130.7121993488 Eh

Convergence Acceleration:
 DIIS                   CNVDIIS         .... on
   Start iteration      DIISMaxIt       ....    12
   Startup error        DIISStart       ....  0.200000
   # of expansion vecs  DIISMaxEq       ....     5
   Bias factor          DIISBfac        ....   1.050
   Max. coefficient     DIISMaxC        ....  10.000
 Trust-Rad. Augm. Hess. CNVTRAH         .... auto
   Auto Start mean grad. ratio tolernc. ....  1.125000
   Auto Start start iteration           ....    20
   Auto Start num. interpolation iter.  ....    10
   Max. Number of Micro iterations      ....    16
   Max. Number of Macro iterations      .... Maxiter - #DIIS iter
   Number of Davidson start vectors     ....     2
   Converg. threshold I  (grad. norm)   ....   1.000e-05
   Converg. threshold II (energy diff.) ....   1.000e-08
   Grad. Scal. Fac. for Micro threshold ....   0.100
   Minimum threshold for Micro iter.    ....   0.010
   NR start threshold (gradient norm)   ....   0.001
   Initial trust radius                 ....   0.400
   Minimum AH scaling param. (alpha)    ....   1.000
   Maximum AH scaling param. (alpha)    .... 1000.000
   Orbital update algorithm             .... Taylor
   White noise on init. David. guess    .... on
   Maximum white noise                  ....   0.010
   Quad. conv. algorithm                .... NR
   COSX micro iterations for RIJONX calc.... off
 SOSCF                  CNVSOSCF        .... on
   Start iteration      SOSCFMaxIt      ....   150
   Startup grad/error   SOSCFStart      ....  0.003300
 Level Shifting         CNVShift        .... on
   Level shift para.    LevelShift      ....    0.2500
   Turn off err/grad.   ShiftErr        ....    0.0010
 Zerner damping         CNVZerner       .... off
 Static damping         CNVDamp         .... on
   Fraction old density DampFac         ....    0.7000
   Max. Damping (<1)    DampMax         ....    0.9800
   Min. Damping (>=0)   DampMin         ....    0.0000
   Turn off err/grad.   DampErr         ....    0.1000
 Fernandez-Rico         CNVRico         .... off

SCF Procedure:
 Maximum # iterations   MaxIter         ....   125
 SCF integral mode      SCFMode         .... Direct
   Integral package                     .... SHARK and LIBINT hybrid scheme
 Reset frequency        DirectResetFreq ....    20
 Integral Threshold     Thresh          ....  2.500e-11 Eh
 Primitive CutOff       TCut            ....  2.500e-12 Eh

Convergence Tolerance:
 Convergence Check Mode ConvCheckMode   .... Total+1el-Energy
 Convergence forced     ConvForced      .... 0
 Energy Change          TolE            ....  1.000e-08 Eh
 1-El. energy change                    ....  1.000e-05 Eh
 Orbital Gradient       TolG            ....  1.000e-05
 Orbital Rotation angle TolX            ....  1.000e-05
 DIIS Error             TolErr          ....  5.000e-07


Diagonalization of the overlap matrix:
Smallest eigenvalue                        ... 6.585e-03
Time for diagonalization                   ...    0.002 sec
Threshold for overlap eigenvalues          ... 1.000e-08
Number of eigenvalues below threshold      ... 0
Time for construction of square roots      ...    0.146 sec
Total time needed                          ...    0.170 sec

--------------------------------
INITIAL GUESS: MINIMAL BASIS EHT
--------------------------------
The minimal basis has 29 functions
EHT matrix was diagonalized
Basis set overlap was calculated now projecting the orbitals
Using GuessMode=FMatrix for the initial guess
C*T matrix was formed
Effective Fockian was calculated
Effective Fockian was diagonalized
Initial density was built
                      ------------------
                      INITIAL GUESS DONE
                      ------------------
-------------------
DFT GRID GENERATION
-------------------

General Integration Accuracy     IntAcc      ... 4.959
Radial Grid Type                 RadialGrid  ... OptM3 with GC (2021)
Angular Grid (max. ang.)         AngularGrid ... 6 (Lebedev-590)
Angular grid pruning method      GridPruning ... 4 (adaptive)
Weight generation scheme         WeightScheme... Becke
Basis function cutoff            BFCut       ... 1.0000e-11
Integration weight cutoff        WCut        ... 1.0000e-14
Angular grids for H and He will be reduced by one unit
Partially contracted basis set               ... off
Rotationally invariant grid construction     ... off

Total number of grid points                  ...   136425
Total number of batches                      ...     2138
Average number of points per batch           ...       63
Average number of grid points per atom       ...    10494
Time for grid setup =    2.572 sec

--------------------
COSX GRID GENERATION
--------------------

GRIDX 1
-------
General Integration Accuracy     IntAcc      ... 4.020
Radial Grid Type                 RadialGrid  ... OptM3 with GC (2021)
Angular Grid (max. ang.)         AngularGrid ... 2 (Lebedev-110)
Angular grid pruning method      GridPruning ... 4 (adaptive)
Weight generation scheme         WeightScheme... Becke
Basis function cutoff            BFCut       ... 1.0000e-11
Integration weight cutoff        WCut        ... 1.0000e-14
Angular grids for H and He will be reduced by one unit
Partially contracted basis set               ... on
Rotationally invariant grid construction     ... off

Total number of grid points                  ...    14248
Total number of batches                      ...      232
Average number of points per batch           ...       61
Average number of grid points per atom       ...     1096
UseSFitting                                  ... on

GRIDX 2
-------
General Integration Accuracy     IntAcc      ... 4.338
Radial Grid Type                 RadialGrid  ... OptM3 with GC (2021)
Angular Grid (max. ang.)         AngularGrid ... 3 (Lebedev-194)
Angular grid pruning method      GridPruning ... 4 (adaptive)
Weight generation scheme         WeightScheme... Becke
Basis function cutoff            BFCut       ... 1.0000e-11
Integration weight cutoff        WCut        ... 1.0000e-14
Angular grids for H and He will be reduced by one unit
Partially contracted basis set               ... on
Rotationally invariant grid construction     ... off

Total number of grid points                  ...    31119
Total number of batches                      ...      493
Average number of points per batch           ...       63
Average number of grid points per atom       ...     2394
UseSFitting                                  ... on

GRIDX 3
-------
General Integration Accuracy     IntAcc      ... 4.871
Radial Grid Type                 RadialGrid  ... OptM3 with GC (2021)
Angular Grid (max. ang.)         AngularGrid ... 4 (Lebedev-302)
Angular grid pruning method      GridPruning ... 4 (adaptive)
Weight generation scheme         WeightScheme... Becke
Basis function cutoff            BFCut       ... 1.0000e-11
Integration weight cutoff        WCut        ... 1.0000e-14
Angular grids for H and He will be reduced by one unit
Partially contracted basis set               ... on
Rotationally invariant grid construction     ... off

Total number of grid points                  ...    62613
Total number of batches                      ...      985
Average number of points per batch           ...       63
Average number of grid points per atom       ...     4816
UseSFitting                                  ... on

Time for X-Grid setup             =    2.881 sec

--------------
SCF ITERATIONS
--------------
ITER       Energy         Delta-E        Max-DP      RMS-DP      [F,P]     Damp
               ***  Starting incremental Fock matrix formation  ***
  0   -173.7297849725   0.000000000000 0.13988886  0.00439087  0.3893504 0.7000
  1   -173.8528219447  -0.123036972188 0.08691771  0.00296914  0.2759590 0.7000
                               ***Turning on DIIS***
  2   -173.9306148922  -0.077792947532 0.05000359  0.00192109  0.1946996 0.7000
  3   -173.9844064825  -0.053791590340 0.02567270  0.00131402  0.1372051 0.7000
  4   -174.0225364861  -0.038130003521 0.07381539  0.00334872  0.0961138 0.0000
  5   -174.1141801853  -0.091643699204 0.01031418  0.00036478  0.0089168 0.0000
  6   -174.1143096934  -0.000129508160 0.00347575  0.00013592  0.0036874 0.0000
                      *** Initiating the SOSCF procedure ***
                           *** Shutting down DIIS ***
                      *** Re-Reading the Fockian *** 
                      *** Removing any level shift *** 
ITER      Energy       Delta-E        Grad      Rot      Max-DP    RMS-DP
  7   -174.11434942  -0.0000397297  0.000943  0.000943  0.005399  0.000158
               *** Restarting incremental Fock matrix formation ***
  8   -174.11435293  -0.0000035039  0.000121  0.000289  0.000586  0.000019
  9   -174.11435312  -0.0000001883  0.000038  0.000161  0.000301  0.000010
 10   -174.11435315  -0.0000000346  0.000009  0.000030  0.000067  0.000002
 11   -174.11435315  -0.0000000048  0.000004  0.000005  0.000012  0.000001
                  ***Gradient check signals convergence***
              ***Rediagonalizing the Fockian in SOSCF/NRSCF***

               *****************************************************
               *                     SUCCESS                       *
               *           SCF CONVERGED AFTER  12 CYCLES          *
               *****************************************************

Old exchange energy                            =    -10.639735372 Eh
New exchange energy                            =    -10.639737351 Eh
Exchange energy change after final integration =     -0.000001979 Eh
Total energy after final integration           =   -174.114355133 Eh
Final COS-X integration done in                =     2.820 sec

----------------
TOTAL SCF ENERGY
----------------

Total Energy       :         -174.11435513 Eh           -4737.89247 eV

Components:
Nuclear Repulsion  :          130.71219935 Eh            3556.85977 eV
Electronic Energy  :         -304.82655448 Eh           -8294.75224 eV
One Electron Energy:         -492.68144128 Eh          -13406.54359 eV
Two Electron Energy:          187.85488680 Eh            5111.79135 eV
Max COSX asymmetry :            0.00000180 Eh               0.00005 eV

Virial components:
Potential Energy   :         -346.68368894 Eh           -9433.74278 eV
Kinetic Energy     :          172.56933380 Eh            4695.85031 eV
Virial Ratio       :            2.00895305


DFT components:
N(Alpha)           :       17.000000671482 electrons
N(Beta)            :       17.000000671482 electrons
N(Total)           :       34.000001342964 electrons
E(X)               :      -14.107616497080 Eh       
E(C)               :       -1.438513640146 Eh       
E(XC)              :      -15.546130137226 Eh       
DFET-embed. en.    :        0.000000000000 Eh       

---------------
SCF CONVERGENCE
---------------

  Last Energy change         ...    6.7334e-10  Tolerance :   1.0000e-08
  Last MAX-Density change    ...    1.3323e-15  Tolerance :   1.0000e-07
  Last RMS-Density change    ...    3.8813e-17  Tolerance :   5.0000e-09
  Last Orbital Gradient      ...    2.2119e-06  Tolerance :   1.0000e-05
  Last Orbital Rotation      ...    2.7835e-06  Tolerance :   1.0000e-05

             **** THE GBW FILE WAS UPDATED (pbeh-3c.gbw) ****
             **** DENSITY pbeh-3c.scfp WAS UPDATED ****
             **** ENERGY FILE WAS UPDATED (pbeh-3c.en.tmp) ****
             **** THE GBW FILE WAS UPDATED (pbeh-3c.gbw) ****
             **** DENSITY pbeh-3c.scfp WAS UPDATED ****
----------------
ORBITAL ENERGIES
----------------

  NO   OCC          E(Eh)            E(eV) 
   0   2.0000     -14.605640      -397.4397 
   1   2.0000     -10.455267      -284.5023 
   2   2.0000     -10.429693      -283.8064 
   3   2.0000     -10.425004      -283.6788 
   4   2.0000      -0.966332       -26.2952 
   5   2.0000      -0.850026       -23.1304 
   6   2.0000      -0.733436       -19.9578 
   7   2.0000      -0.650632       -17.7046 
   8   2.0000      -0.540341       -14.7034 
   9   2.0000      -0.516420       -14.0525 
  10   2.0000      -0.494818       -13.4647 
  11   2.0000      -0.458141       -12.4666 
  12   2.0000      -0.427795       -11.6409 
  13   2.0000      -0.401109       -10.9147 
  14   2.0000      -0.381315       -10.3761 
  15   2.0000      -0.373977       -10.1764 
  16   2.0000      -0.281925        -7.6716 
  17   0.0000       0.134946         3.6721 
  18   0.0000       0.148631         4.0445 
  19   0.0000       0.186427         5.0729 
  20   0.0000       0.204135         5.5548 
  21   0.0000       0.207708         5.6520 
  22   0.0000       0.221821         6.0360 
  23   0.0000       0.229570         6.2469 
  24   0.0000       0.232907         6.3377 
  25   0.0000       0.251983         6.8568 
  26   0.0000       0.261765         7.1230 
  27   0.0000       0.284623         7.7450 
  28   0.0000       0.302489         8.2311 
  29   0.0000       0.511552        13.9200 
  30   0.0000       0.527417        14.3518 
  31   0.0000       0.544015        14.8034 
  32   0.0000       0.557651        15.1745 
  33   0.0000       0.593867        16.1600 
  34   0.0000       0.664618        18.0852 
  35   0.0000       0.684641        18.6300 
  36   0.0000       0.698831        19.0162 
  37   0.0000       0.714720        19.4485 
  38   0.0000       0.829954        22.5842 
  39   0.0000       0.924560        25.1585 
  40   0.0000       0.944412        25.6988 
  41   0.0000       0.993997        27.0480 
  42   0.0000       1.005505        27.3612 
  43   0.0000       1.028544        27.9881 
  44   0.0000       1.040823        28.3222 
  45   0.0000       1.051520        28.6133 
  46   0.0000       1.061167        28.8758 
  47   0.0000       1.070359        29.1260 
  48   0.0000       1.095436        29.8083 
  49   0.0000       1.097902        29.8754 
  50   0.0000       1.149024        31.2665 
  51   0.0000       1.380022        37.5523 
  52   0.0000       1.450342        39.4658 
  53   0.0000       1.517178        41.2845 
  54   0.0000       1.535065        41.7712 
  55   0.0000       1.661982        45.2248 
  56   0.0000       1.677174        45.6382 
  57   0.0000       1.846808        50.2542 
  58   0.0000       1.942366        52.8545 
  59   0.0000       1.980017        53.8790 
  60   0.0000       1.989162        54.1278 
  61   0.0000       2.008777        54.6616 
  62   0.0000       2.063819        56.1594 
  63   0.0000       2.152361        58.5687 
  64   0.0000       2.258339        61.4525 
  65   0.0000       2.294225        62.4290 
  66   0.0000       2.336944        63.5915 
  67   0.0000       2.423674        65.9515 
  68   0.0000       2.456409        66.8423 
  69   0.0000       2.495367        67.9024 
  70   0.0000       2.545289        69.2608 
  71   0.0000       2.621246        71.3277 
  72   0.0000       2.760893        75.1277 
  73   0.0000       2.825262        76.8793 
  74   0.0000      13.601221       370.1080 
  75   0.0000      13.870985       377.4487 
  76   0.0000      14.014739       381.3604 
  77   0.0000      19.151042       521.1264 

                    ********************************
                    * MULLIKEN POPULATION ANALYSIS *
                    ********************************

-----------------------
MULLIKEN ATOMIC CHARGES
-----------------------
   0 C :   -0.641286
   1 H :    0.206258
   2 H :    0.209228
   3 H :    0.220239
   4 C :   -0.416025
   5 H :    0.225276
   6 H :    0.195544
   7 C :   -0.256223
   8 H :    0.202734
   9 H :    0.169934
  10 N :   -0.738850
  11 H :    0.307544
  12 H :    0.315626
Sum of atomic charges:    0.0000000

--------------------------------
MULLIKEN REDUCED ORBITAL CHARGES
--------------------------------
  0 C s       :     3.381282  s :     3.381282
      pz      :     1.025431  p :     3.223341
      px      :     1.112626
      py      :     1.085284
      dz2     :     0.010428  d :     0.036663
      dxz     :     0.003478
      dyz     :     0.007894
      dx2y2   :     0.010571
      dxy     :     0.004292
  1 H s       :     0.793742  s :     0.793742
  2 H s       :     0.790772  s :     0.790772
  3 H s       :     0.779761  s :     0.779761
  4 C s       :     3.325520  s :     3.325520
      pz      :     1.013544  p :     3.047735
      px      :     0.937334
      py      :     1.096857
      dz2     :     0.010180  d :     0.042771
      dxz     :     0.006139
      dyz     :     0.008634
      dx2y2   :     0.009796
      dxy     :     0.008022
  5 H s       :     0.774724  s :     0.774724
  6 H s       :     0.804456  s :     0.804456
  7 C s       :     3.278329  s :     3.278329
      pz      :     0.939704  p :     2.919989
      px      :     0.956006
      py      :     1.024279
      dz2     :     0.012465  d :     0.057905
      dxz     :     0.009168
      dyz     :     0.014067
      dx2y2   :     0.012738
      dxy     :     0.009466
  8 H s       :     0.797266  s :     0.797266
  9 H s       :     0.830066  s :     0.830066
 10 N s       :     3.637089  s :     3.637089
      pz      :     1.140000  p :     4.066069
      px      :     1.287963
      py      :     1.638106
      dz2     :     0.007761  d :     0.035691
      dxz     :     0.001355
      dyz     :     0.013375
      dx2y2   :     0.011415
      dxy     :     0.001785
 11 H s       :     0.692456  s :     0.692456
 12 H s       :     0.684374  s :     0.684374


                     *******************************
                     * LOEWDIN POPULATION ANALYSIS *
                     *******************************

----------------------
LOEWDIN ATOMIC CHARGES
----------------------
   0 C :   -0.363512
   1 H :    0.122249
   2 H :    0.123768
   3 H :    0.128028
   4 C :   -0.253882
   5 H :    0.129343
   6 H :    0.115524
   7 C :   -0.163729
   8 H :    0.114773
   9 H :    0.088008
  10 N :   -0.479041
  11 H :    0.217818
  12 H :    0.220655

-------------------------------
LOEWDIN REDUCED ORBITAL CHARGES
-------------------------------
  0 C s       :     2.957411  s :     2.957411
      pz      :     1.099026  p :     3.338031
      px      :     1.120392
      py      :     1.118613
      dz2     :     0.019425  d :     0.068070
      dxz     :     0.007417
      dyz     :     0.015406
      dx2y2   :     0.018189
      dxy     :     0.007633
  1 H s       :     0.877751  s :     0.877751
  2 H s       :     0.876232  s :     0.876232
  3 H s       :     0.871972  s :     0.871972
  4 C s       :     2.920771  s :     2.920771
      pz      :     1.080264  p :     3.246021
      px      :     1.059648
      py      :     1.106109
      dz2     :     0.020623  d :     0.087090
      dxz     :     0.013715
      dyz     :     0.016683
      dx2y2   :     0.020627
      dxy     :     0.015442
  5 H s       :     0.870657  s :     0.870657
  6 H s       :     0.884476  s :     0.884476
  7 C s       :     2.912580  s :     2.912580
      pz      :     1.008981  p :     3.132849
      px      :     1.058320
      py      :     1.065548
      dz2     :     0.024902  d :     0.118300
      dxz     :     0.019113
      dyz     :     0.028186
      dx2y2   :     0.027856
      dxy     :     0.018243
  8 H s       :     0.885227  s :     0.885227
  9 H s       :     0.911992  s :     0.911992
 10 N s       :     3.260383  s :     3.260383
      pz      :     1.193642  p :     4.155441
      px      :     1.297633
      py      :     1.664167
      dz2     :     0.016192  d :     0.063217
      dxz     :     0.005477
      dyz     :     0.021777
      dx2y2   :     0.016738
      dxy     :     0.003033
 11 H s       :     0.782182  s :     0.782182
 12 H s       :     0.779345  s :     0.779345


                      *****************************
                      * MAYER POPULATION ANALYSIS *
                      *****************************

  NA   - Mulliken gross atomic population
  ZA   - Total nuclear charge
  QA   - Mulliken gross atomic charge
  VA   - Mayer's total valence
  BVA  - Mayer's bonded valence
  FA   - Mayer's free valence

  ATOM       NA         ZA         QA         VA         BVA        FA
  0 C      6.6413     6.0000    -0.6413     3.7371     3.7371     0.0000
  1 H      0.7937     1.0000     0.2063     0.9164     0.9164    -0.0000
  2 H      0.7908     1.0000     0.2092     0.9153     0.9153     0.0000
  3 H      0.7798     1.0000     0.2202     0.9140     0.9140     0.0000
  4 C      6.4160     6.0000    -0.4160     3.7479     3.7479    -0.0000
  5 H      0.7747     1.0000     0.2253     0.9063     0.9063    -0.0000
  6 H      0.8045     1.0000     0.1955     0.9134     0.9134     0.0000
  7 C      6.2562     6.0000    -0.2562     3.7877     3.7877    -0.0000
  8 H      0.7973     1.0000     0.2027     0.9092     0.9092     0.0000
  9 H      0.8301     1.0000     0.1699     0.9086     0.9086    -0.0000
 10 N      7.7388     7.0000    -0.7388     2.7691     2.7691     0.0000
 11 H      0.6925     1.0000     0.3075     0.8686     0.8686     0.0000
 12 H      0.6844     1.0000     0.3156     0.8639     0.8639     0.0000

  Mayer bond orders larger than 0.100000
B(  0-C ,  1-H ) :   0.9288 B(  0-C ,  2-H ) :   0.9289 B(  0-C ,  3-H ) :   0.9313 
B(  0-C ,  4-C ) :   0.9857 B(  4-C ,  5-H ) :   0.9123 B(  4-C ,  6-H ) :   0.9224 
B(  4-C ,  7-C ) :   0.9829 B(  7-C ,  8-H ) :   0.9141 B(  7-C ,  9-H ) :   0.9075 
B(  7-C , 10-N ) :   1.0319 B( 10-N , 11-H ) :   0.8655 B( 10-N , 12-H ) :   0.8643 


-------
TIMINGS
-------

Total SCF time: 0 days 0 hours 1 min 11 sec 

Total time                  ....      71.854 sec
Sum of individual times     ....      64.732 sec  ( 90.1%)

Fock matrix formation       ....      52.072 sec  ( 72.5%)
  Split-RI-J                ....       6.743 sec  ( 12.9% of F)
  Chain of spheres X        ....      14.136 sec  ( 27.1% of F)
  XC integration            ....      16.798 sec  ( 32.3% of F)
    Basis function eval.    ....       2.081 sec  ( 12.4% of XC)
    Density eval.           ....       1.453 sec  (  8.7% of XC)
    XC-Functional eval.     ....       1.255 sec  (  7.5% of XC)
    XC-Potential eval.      ....       0.546 sec  (  3.2% of XC)
Diagonalization             ....       1.417 sec  (  2.0%)
Density matrix formation    ....       0.192 sec  (  0.3%)
Population analysis         ....       0.920 sec  (  1.3%)
Initial guess               ....       0.011 sec  (  0.0%)
Orbital Transformation      ....       0.000 sec  (  0.0%)
Orbital Orthonormalization  ....       0.000 sec  (  0.0%)
DIIS solution               ....       2.797 sec  (  3.9%)
SOSCF solution              ....       1.869 sec  (  2.6%)
Grid generation             ....       5.453 sec  (  7.6%)

Maximum memory used throughout the entire SCF-calculation: 49.4 MB


-------------------------------------------------------------------------------
                          DFT DISPERSION CORRECTION                            
                                                                               
                              DFTD3 V3.1  Rev 1                                
                          USING Becke-Johnson damping                          
-------------------------------------------------------------------------------
The PBEh-3c composite method is recognized
Using three-body term ABC
Active option DFTDOPT                   ...         4   

molecular C6(AA) [au] = 1058.621871 


            DFT-D V3
 parameters
 s6 scaling factor         :     1.0000 
 a1 scaling factor         :     0.4860 
 s8 scaling factor         :     0.0000 
 a2 scaling factor         :     4.5000 
 Damping factor alpha9(ATM):    16.0000 
 ad hoc parameters k1-k3   :    16.0000     1.3333    -4.0000 

 Edisp/kcal,au: -2.903199199808  -0.004626541925 
 E6   /kcal   :  -2.908685548 
 E8   /kcal   :  -0.000000000 
 E6(ABC)      :   0.005486348 
 % E8         :   0.000000000 
 % E6(ABC)    :  -0.188975935 

-------------------------   ----------------
Dispersion correction           -0.004626542
-------------------------   ----------------

------------------   -----------------
gCP correction             0.018486123
------------------   -----------------

-------------------------   --------------------
FINAL SINGLE POINT ENERGY      -174.100495551911
-------------------------   --------------------


                            ***************************************
                            *     ORCA property calculations      *
                            ***************************************

                                    ---------------------
                                    Active property flags
                                    ---------------------
   (+) Dipole Moment


------------------------------------------------------------------------------
                       ORCA ELECTRIC PROPERTIES CALCULATION
------------------------------------------------------------------------------

Dipole Moment Calculation                       ... on
Quadrupole Moment Calculation                   ... off
Polarizability Calculation                      ... off
GBWName                                         ... pbeh-3c.gbw
Electron density                                ... pbeh-3c.scfp
The origin for moment calculation is the CENTER OF MASS  = ( 0.188747,  0.252026  0.222678)

-------------
DIPOLE MOMENT
-------------
                                X             Y             Z
Electronic contribution:      1.37869       1.18063       1.41959
Nuclear contribution   :     -1.10856      -1.63265      -1.37086
                        -----------------------------------------
Total Dipole Moment    :      0.27012      -0.45202       0.04872
                        -----------------------------------------
Magnitude (a.u.)       :      0.52883
Magnitude (Debye)      :      1.34418



--------------------
Rotational spectrum 
--------------------
 
Rotational constants in cm-1:     0.837245     0.123272     0.115393 
Rotational constants in MHz : 25099.959054  3695.609440  3459.406198 

 Dipole components along the rotational axes: 
x,y,z [a.u.] :     0.052088     0.259449     0.457858 
x,y,z [Debye]:     0.132396     0.659468     1.163782 

 

Timings for individual modules:

Sum of individual times         ...       74.913 sec (=   1.249 min)
GTO integral calculation        ...        1.978 sec (=   0.033 min)   2.6 %
SCF iterations                  ...       72.935 sec (=   1.216 min)  97.4 %
                             ****ORCA TERMINATED NORMALLY****
TOTAL RUN TIME: 0 days 0 hours 1 minutes 19 seconds 283 msec
