
                                 *****************
                                 * O   R   C   A *
                                 *****************

                                            #,                                       
                                            ###                                      
                                            ####                                     
                                            #####                                    
                                            ######                                   
                                           ########,                                 
                                     ,,################,,,,,                         
                               ,,#################################,,                 
                          ,,##########################################,,             
                       ,#########################################, ''#####,          
                    ,#############################################,,   '####,        
                  ,##################################################,,,,####,       
                ,###########''''           ''''###############################       
              ,#####''   ,,,,##########,,,,          '''####'''          '####       
            ,##' ,,,,###########################,,,                        '##       
           ' ,,###''''                  '''############,,,                           
         ,,##''                                '''############,,,,        ,,,,,,###''
      ,#''                                            '''#######################'''  
     '                                                          ''''####''''         
             ,#######,   #######,   ,#######,      ##                                
            ,#'     '#,  ##    ##  ,#'     '#,    #''#        ######   ,####,        
            ##       ##  ##   ,#'  ##            #'  '#       #        #'  '#        
            ##       ##  #######   ##           ,######,      #####,   #    #        
            '#,     ,#'  ##    ##  '#,     ,#' ,#      #,         ##   #,  ,#        
             '#######'   ##     ##  '#######'  #'      '#     #####' # '####'        



                  #######################################################
                  #                        -***-                        #
                  #          Department of theory and spectroscopy      #
                  #    Directorship and core code : Frank Neese         #
                  #        Max Planck Institute fuer Kohlenforschung    #
                  #                Kaiser Wilhelm Platz 1               #
                  #                 D-45470 Muelheim/Ruhr               #
                  #                      Germany                        #
                  #                                                     #
                  #                  All rights reserved                #
                  #                        -***-                        #
                  #######################################################


                         Program Version 5.0.3 -  RELEASE  -


 With contributions from (in alphabetic order):
   Daniel Aravena         : Magnetic Suceptibility
   Michael Atanasov       : Ab Initio Ligand Field Theory (pilot matlab implementation)
   Alexander A. Auer      : GIAO ZORA, VPT2 properties, NMR spectrum
   Ute Becker             : Parallelization
   Giovanni Bistoni       : ED, misc. LED, open-shell LED, HFLD
   Martin Brehm           : Molecular dynamics
   Dmytro Bykov           : SCF Hessian
   Vijay G. Chilkuri      : MRCI spin determinant printing, contributions to CSF-ICE
   Dipayan Datta          : RHF DLPNO-CCSD density
   Achintya Kumar Dutta   : EOM-CC, STEOM-CC
   Dmitry Ganyushin       : Spin-Orbit,Spin-Spin,Magnetic field MRCI
   Miquel Garcia          : C-PCM and meta-GGA Hessian, CC/C-PCM, Gaussian charge scheme
   Yang Guo               : DLPNO-NEVPT2, F12-NEVPT2, CIM, IAO-localization
   Andreas Hansen         : Spin unrestricted coupled pair/coupled cluster methods
   Benjamin Helmich-Paris : MC-RPA, TRAH-SCF, COSX integrals
   Lee Huntington         : MR-EOM, pCC
   Robert Izsak           : Overlap fitted RIJCOSX, COSX-SCS-MP3, EOM
   Marcus Kettner         : VPT2
   Christian Kollmar      : KDIIS, OOCD, Brueckner-CCSD(T), CCSD density, CASPT2, CASPT2-K
   Simone Kossmann        : Meta GGA functionals, TD-DFT gradient, OOMP2, MP2 Hessian
   Martin Krupicka        : Initial AUTO-CI
   Lucas Lang             : DCDCAS
   Marvin Lechner         : AUTO-CI (C++ implementation), FIC-MRCC
   Dagmar Lenk            : GEPOL surface, SMD
   Dimitrios Liakos       : Extrapolation schemes; Compound Job, initial MDCI parallelization
   Dimitrios Manganas     : Further ROCIS development; embedding schemes
   Dimitrios Pantazis     : SARC Basis sets
   Anastasios Papadopoulos: AUTO-CI, single reference methods and gradients
   Taras Petrenko         : DFT Hessian,TD-DFT gradient, ASA, ECA, R-Raman, ABS, FL, XAS/XES, NRVS
   Peter Pinski           : DLPNO-MP2, DLPNO-MP2 Gradient
   Christoph Reimann      : Effective Core Potentials
   Marius Retegan         : Local ZFS, SOC
   Christoph Riplinger    : Optimizer, TS searches, QM/MM, DLPNO-CCSD(T), (RO)-DLPNO pert. Triples
   Tobias Risthaus        : Range-separated hybrids, TD-DFT gradient, RPA, STAB
   Michael Roemelt        : Original ROCIS implementation
   Masaaki Saitow         : Open-shell DLPNO-CCSD energy and density
   Barbara Sandhoefer     : DKH picture change effects
   Avijit Sen             : IP-ROCIS
   Kantharuban Sivalingam : CASSCF convergence, NEVPT2, FIC-MRCI
   Bernardo de Souza      : ESD, SOC TD-DFT
   Georgi Stoychev        : AutoAux, RI-MP2 NMR, DLPNO-MP2 response
   Willem Van den Heuvel  : Paramagnetic NMR
   Boris Wezisla          : Elementary symmetry handling
   Frank Wennmohs         : Technical directorship


 We gratefully acknowledge several colleagues who have allowed us to
 interface, adapt or use parts of their codes:
   Stefan Grimme, W. Hujo, H. Kruse, P. Pracht,  : VdW corrections, initial TS optimization,
                  C. Bannwarth, S. Ehlert          DFT functionals, gCP, sTDA/sTD-DF
   Ed Valeev, F. Pavosevic, A. Kumar             : LibInt (2-el integral package), F12 methods
   Garnet Chan, S. Sharma, J. Yang, R. Olivares  : DMRG
   Ulf Ekstrom                                   : XCFun DFT Library
   Mihaly Kallay                                 : mrcc  (arbitrary order and MRCC methods)
   Jiri Pittner, Ondrej Demel                    : Mk-CCSD
   Frank Weinhold                                : gennbo (NPA and NBO analysis)
   Christopher J. Cramer and Donald G. Truhlar   : smd solvation model
   Lars Goerigk                                  : TD-DFT with DH, B97 family of functionals
   V. Asgeirsson, H. Jonsson                     : NEB implementation
   FAccTs GmbH                                   : IRC, NEB, NEB-TS, DLPNO-Multilevel, CI-OPT
                                                   MM, QMMM, 2- and 3-layer-ONIOM, Crystal-QMMM,
                                                   LR-CPCM, SF, NACMEs, symmetry and pop. for TD-DFT,
                                                   nearIR, NL-DFT gradient (VV10), updates on ESD,
                                                   ML-optimized integration grids
   S Lehtola, MJT Oliveira, MAL Marques          : LibXC Library
   Liviu Ungur et al                             : ANISO software


 Your calculation uses the libint2 library for the computation of 2-el integrals
 For citations please refer to: http://libint.valeyev.net

 Your ORCA version has been built with support for libXC version: 5.1.0
 For citations please refer to: https://tddft.org/programs/libxc/

 This ORCA versions uses:
   CBLAS   interface :  Fast vector & matrix operations
   LAPACKE interface :  Fast linear algebra routines
   SCALAPACK package :  Parallel linear algebra routines
   Shared memory     :  Shared parallel matrices
   BLAS/LAPACK       :  OpenBLAS 0.3.15  USE64BITINT DYNAMIC_ARCH NO_AFFINITY Haswell SINGLE_THREADED
        Core in use  :  Haswell
   Copyright (c) 2011-2014, The OpenBLAS Project




***************************************
The coordinates will be read from file: P12.xyz
***************************************


Your calculation utilizes the geometrical counterpoise correction gCP
Please cite in your paper:
H.Kruse, S. Grimme J.Chem.Phys., 136, (2012), 154101 
   

Your calculation utilizes the atom-pairwise dispersion correction
with the Becke-Johnson damping scheme (D3BJ)
Cite in your paper:
S.Grimme, S.Ehrlich, L.Goerigk, J Comput Chem, (2011), 32, 1456–1465 
S.Grimme, J.Antony, S.Ehrlich and H.Krieg, J.Chem.Phys., 132, (2010), 154104 
   

Your calculation employs the composite approach PBEh-3c.
Please cite in your paper:
S. Grimme, J. G. Brandenburg, C. Bannwarth, A. Hansen J.Chem.Phys., 143, (2015), 054107 
   

================================================================================

----- Orbital basis set information -----
Your calculation utilizes the basis: def2-mSVP

----- AuxJ basis set information -----
Your calculation utilizes the auxiliary basis: def2/J
   F. Weigend, Phys. Chem. Chem. Phys. 8, 1057 (2006).

================================================================================
                                        WARNINGS
                       Please study these warnings very carefully!
================================================================================


INFO   : the flag for use of the SHARK integral package has been found!

================================================================================
                                       INPUT FILE
================================================================================
NAME = pbeh-3c.inp
|  1> ! PBEh-3c def2/J TightSCF DefGrid3
|  2> 
|  3> %maxcore 60000
|  4> 
|  5> %pal
|  6> nprocs 4
|  7> end
|  8> 
|  9> *xyzfile 0 1 P12.xyz
| 10> 
| 11>                          ****END OF INPUT****
================================================================================

                       ****************************
                       * Single Point Calculation *
                       ****************************

---------------------------------
CARTESIAN COORDINATES (ANGSTROEM)
---------------------------------
  C      1.242011    0.665547   -0.581208
  C      1.242011   -0.665547   -0.581208
  C      0.000000   -1.121649    0.211501
  C     -1.242011   -0.665547   -0.581208
  C     -1.242011    0.665547   -0.581208
  C      0.000000    1.121649    0.211501
  C      0.000000    0.000000    1.295655
  H      1.930167    1.333337   -1.080060
  H      1.930167   -1.333337   -1.080060
  H      0.000000   -2.156192    0.547833
  H     -1.930167   -1.333337   -1.080060
  H     -1.930167    1.333337   -1.080060
  H      0.000000    2.156192    0.547833
  H      0.897924    0.000000    1.915376
  H     -0.897924    0.000000    1.915376

----------------------------
CARTESIAN COORDINATES (A.U.)
----------------------------
  NO LB      ZA    FRAG     MASS         X           Y           Z
   0 C     6.0000    0    12.011    2.347060    1.257702   -1.098324
   1 C     6.0000    0    12.011    2.347060   -1.257702   -1.098324
   2 C     6.0000    0    12.011    0.000000   -2.119609    0.399678
   3 C     6.0000    0    12.011   -2.347060   -1.257702   -1.098324
   4 C     6.0000    0    12.011   -2.347060    1.257702   -1.098324
   5 C     6.0000    0    12.011    0.000000    2.119609    0.399678
   6 C     6.0000    0    12.011    0.000000    0.000000    2.448434
   7 H     1.0000    0     1.008    3.647486    2.519642   -2.041019
   8 H     1.0000    0     1.008    3.647486   -2.519642   -2.041019
   9 H     1.0000    0     1.008    0.000000   -4.074612    1.035254
  10 H     1.0000    0     1.008   -3.647486   -2.519642   -2.041019
  11 H     1.0000    0     1.008   -3.647486    2.519642   -2.041019
  12 H     1.0000    0     1.008    0.000000    4.074612    1.035254
  13 H     1.0000    0     1.008    1.696830    0.000000    3.619536
  14 H     1.0000    0     1.008   -1.696830    0.000000    3.619536

--------------------------------
INTERNAL COORDINATES (ANGSTROEM)
--------------------------------
 C      0   0   0     0.000000000000     0.00000000     0.00000000
 C      1   0   0     1.331094600000     0.00000000     0.00000000
 C      2   1   0     1.542402675831   107.20002770     0.00000000
 C      3   2   1     1.542402675831   107.26767764    65.14103888
 C      4   3   2     1.331094600000   107.20002770   294.85896112
 C      1   2   3     1.542402675831   107.20002770     0.00000000
 C      3   2   1     1.559964134865    98.31199706   323.69717015
 H      1   2   3     1.080904918523   128.15610390   183.39091220
 H      2   1   3     1.080904918523   128.15610390   176.60908780
 H      3   2   1     1.087841082629   116.11144637   196.87218055
 H      4   3   2     1.080904918523   124.55232923   111.62169548
 H      5   4   3     1.080904918523   128.15610390   176.60908780
 H      6   1   2     1.087841082629   116.11144637   163.12781945
 H      7   3   2     1.091018284272   113.25143508   298.07533138
 H      7   3   2     1.091018284272   113.25143508   170.86096728

---------------------------
INTERNAL COORDINATES (A.U.)
---------------------------
 C      0   0   0     0.000000000000     0.00000000     0.00000000
 C      1   0   0     2.515404252341     0.00000000     0.00000000
 C      2   1   0     2.914718645547   107.20002770     0.00000000
 C      3   2   1     2.914718645547   107.26767764    65.14103888
 C      4   3   2     2.515404252341   107.20002770   294.85896112
 C      1   2   3     2.914718645547   107.20002770     0.00000000
 C      3   2   1     2.947904993634    98.31199706   323.69717015
 H      1   2   3     2.042614272817   128.15610390   183.39091220
 H      2   1   3     2.042614272817   128.15610390   176.60908780
 H      3   2   1     2.055721723397   116.11144637   196.87218055
 H      4   3   2     2.042614272817   124.55232923   111.62169548
 H      5   4   3     2.042614272817   128.15610390   176.60908780
 H      6   1   2     2.055721723397   116.11144637   163.12781945
 H      7   3   2     2.061725764374   113.25143508   298.07533138
 H      7   3   2     2.061725764374   113.25143508   170.86096728

---------------------
BASIS SET INFORMATION
---------------------
There are 2 groups of distinct atoms

 Group   1 Type C   : 8s4p1d contracted to 4s2p1d pattern {5111/31/1}
 Group   2 Type H   : 4s contracted to 2s pattern {31}

Atom   0C    basis set group =>   1
Atom   1C    basis set group =>   1
Atom   2C    basis set group =>   1
Atom   3C    basis set group =>   1
Atom   4C    basis set group =>   1
Atom   5C    basis set group =>   1
Atom   6C    basis set group =>   1
Atom   7H    basis set group =>   2
Atom   8H    basis set group =>   2
Atom   9H    basis set group =>   2
Atom  10H    basis set group =>   2
Atom  11H    basis set group =>   2
Atom  12H    basis set group =>   2
Atom  13H    basis set group =>   2
Atom  14H    basis set group =>   2
---------------------------------
AUXILIARY/J BASIS SET INFORMATION
---------------------------------
There are 2 groups of distinct atoms

 Group   1 Type C   : 12s5p4d2f1g contracted to 6s4p3d1f1g pattern {711111/2111/211/2/1}
 Group   2 Type H   : 5s2p1d contracted to 3s1p1d pattern {311/2/1}

Atom   0C    basis set group =>   1
Atom   1C    basis set group =>   1
Atom   2C    basis set group =>   1
Atom   3C    basis set group =>   1
Atom   4C    basis set group =>   1
Atom   5C    basis set group =>   1
Atom   6C    basis set group =>   1
Atom   7H    basis set group =>   2
Atom   8H    basis set group =>   2
Atom   9H    basis set group =>   2
Atom  10H    basis set group =>   2
Atom  11H    basis set group =>   2
Atom  12H    basis set group =>   2
Atom  13H    basis set group =>   2
Atom  14H    basis set group =>   2


           ************************************************************
           *        Program running with 4 parallel MPI-processes     *
           *              working on a common directory               *
           ************************************************************
------------------------------------------------------------------------------
                           ORCA GTO INTEGRAL CALCULATION
                           -- RI-GTO INTEGRALS CHOSEN --
------------------------------------------------------------------------------
------------------------------------------------------------------------------
                   ___                                                        
                  /   \      - P O W E R E D   B Y -                         
                 /     \                                                     
                 |  |  |   _    _      __       _____    __    __             
                 |  |  |  | |  | |    /  \     |  _  \  |  |  /  |          
                  \  \/   | |  | |   /    \    | | | |  |  | /  /          
                 / \  \   | |__| |  /  /\  \   | |_| |  |  |/  /          
                |  |  |   |  __  | /  /__\  \  |    /   |      \           
                |  |  |   | |  | | |   __   |  |    \   |  |\   \          
                \     /   | |  | | |  |  |  |  | |\  \  |  | \   \       
                 \___/    |_|  |_| |__|  |__|  |_| \__\ |__|  \__/        
                                                                              
                      - O R C A' S   B I G   F R I E N D -                    
                                      &                                       
                       - I N T E G R A L  F E E D E R -                       
                                                                              
 v1 FN, 2020, v2 2021                                                         
------------------------------------------------------------------------------


Reading SHARK input file pbeh-3c.SHARKINP.tmp ... ok
----------------------
SHARK INTEGRAL PACKAGE
----------------------

Number of atoms                             ...     15
Number of basis functions                   ...    121
Number of shells                            ...     65
Maximum angular momentum                    ...      2
Integral batch strategy                     ... SHARK/LIBINT Hybrid
RI-J (if used) integral strategy            ... SPLIT-RIJ (Revised 2003 algorithm where possible)
Printlevel                                  ...      1
Contraction scheme used                     ... SEGMENTED contraction
Coulomb Range Separation                    ... NOT USED
Exchange Range Separation                   ... NOT USED
Finite Nucleus Model                        ... NOT USED
Auxiliary Coulomb fitting basis             ... AVAILABLE
   # of basis functions in Aux-J            ...    431
   # of shells in Aux-J                     ...    145
   Maximum angular momentum in Aux-J        ...      4
Auxiliary J/K fitting basis                 ... NOT available
Auxiliary Correlation fitting basis         ... NOT available
Auxiliary 'external' fitting basis          ... NOT available
Integral threshold                          ...     2.500000e-11
Primitive cut-off                           ...     2.500000e-12
Primitive pair pre-selection threshold      ...     2.500000e-12

Calculating pre-screening integrals         ... done (  0.1 sec) Dimension = 65
Organizing shell pair data                  ... done (  0.3 sec)
Shell pair information
Total number of shell pairs                 ...      2145
Shell pairs after pre-screening             ...      2077
Total number of primitive shell pairs       ...      7741
Primitive shell pairs kept                  ...      5625
          la=0 lb=0:    922 shell pairs
          la=1 lb=0:    616 shell pairs
          la=1 lb=1:    105 shell pairs
          la=2 lb=0:    308 shell pairs
          la=2 lb=1:     98 shell pairs
          la=2 lb=2:     28 shell pairs

Calculating one electron integrals          ... done (  0.1 sec)
Calculating RI/J V-Matrix + Cholesky decomp.... done (  1.1 sec)
Calculating Nuclear repulsion               ... done (  0.0 sec) ENN=    287.742116315490 Eh

SHARK setup successfully completed in   3.1 seconds

Maximum memory used throughout the entire GTOINT-calculation: 10.8 MB


           ************************************************************
           *        Program running with 4 parallel MPI-processes     *
           *              working on a common directory               *
           ************************************************************
-------------------------------------------------------------------------------
                                 ORCA SCF
-------------------------------------------------------------------------------

------------
SCF SETTINGS
------------
Hamiltonian:
 Density Functional     Method          .... DFT(GTOs)
 Exchange Functional    Exchange        .... PBE
   PBE kappa parameter   XKappa         ....  1.024500
   PBE mue parameter    XMuePBE         ....  0.123457
 Correlation Functional Correlation     .... PBE
   PBE beta parameter  CBetaPBE         ....  0.030000
 LDA part of GGA corr.  LDAOpt          .... PW91-LDA
 Gradients option       PostSCFGGA      .... off
 Hybrid DFT is turned on
   Fraction HF Exchange ScalHFX         ....  0.420000
   Scaling of DF-GGA-X  ScalDFX         ....  0.580000
   Scaling of DF-GGA-C  ScalDFC         ....  1.000000
   Scaling of DF-LDA-C  ScalLDAC        ....  1.000000
   Perturbative correction              ....  0.000000
   Density functional embedding theory  .... OFF
 RI-approximation to the Coulomb term is turned on
   Number of AuxJ basis functions       .... 431
   RIJ-ON(X) (HFX calculated with O(N)) .... on
   Number of AuxJ basis functions       .... 431
   RIJ-COSX (HFX calculated with COS-X)).... on


General Settings:
 Integral files         IntName         .... pbeh-3c
 Hartree-Fock type      HFTyp           .... RHF
 Total Charge           Charge          ....    0
 Multiplicity           Mult            ....    1
 Number of Electrons    NEL             ....   50
 Basis Dimension        Dim             ....  121
 Nuclear Repulsion      ENuc            ....    287.7421163155 Eh

Convergence Acceleration:
 DIIS                   CNVDIIS         .... on
   Start iteration      DIISMaxIt       ....    12
   Startup error        DIISStart       ....  0.200000
   # of expansion vecs  DIISMaxEq       ....     5
   Bias factor          DIISBfac        ....   1.050
   Max. coefficient     DIISMaxC        ....  10.000
 Trust-Rad. Augm. Hess. CNVTRAH         .... auto
   Auto Start mean grad. ratio tolernc. ....  1.125000
   Auto Start start iteration           ....    20
   Auto Start num. interpolation iter.  ....    10
   Max. Number of Micro iterations      ....    16
   Max. Number of Macro iterations      .... Maxiter - #DIIS iter
   Number of Davidson start vectors     ....     2
   Converg. threshold I  (grad. norm)   ....   1.000e-05
   Converg. threshold II (energy diff.) ....   1.000e-08
   Grad. Scal. Fac. for Micro threshold ....   0.100
   Minimum threshold for Micro iter.    ....   0.010
   NR start threshold (gradient norm)   ....   0.001
   Initial trust radius                 ....   0.400
   Minimum AH scaling param. (alpha)    ....   1.000
   Maximum AH scaling param. (alpha)    .... 1000.000
   Orbital update algorithm             .... Taylor
   White noise on init. David. guess    .... on
   Maximum white noise                  ....   0.010
   Quad. conv. algorithm                .... NR
   COSX micro iterations for RIJONX calc.... off
 SOSCF                  CNVSOSCF        .... on
   Start iteration      SOSCFMaxIt      ....   150
   Startup grad/error   SOSCFStart      ....  0.003300
 Level Shifting         CNVShift        .... on
   Level shift para.    LevelShift      ....    0.2500
   Turn off err/grad.   ShiftErr        ....    0.0010
 Zerner damping         CNVZerner       .... off
 Static damping         CNVDamp         .... on
   Fraction old density DampFac         ....    0.7000
   Max. Damping (<1)    DampMax         ....    0.9800
   Min. Damping (>=0)   DampMin         ....    0.0000
   Turn off err/grad.   DampErr         ....    0.1000
 Fernandez-Rico         CNVRico         .... off

SCF Procedure:
 Maximum # iterations   MaxIter         ....   125
 SCF integral mode      SCFMode         .... Direct
   Integral package                     .... SHARK and LIBINT hybrid scheme
 Reset frequency        DirectResetFreq ....    20
 Integral Threshold     Thresh          ....  2.500e-11 Eh
 Primitive CutOff       TCut            ....  2.500e-12 Eh

Convergence Tolerance:
 Convergence Check Mode ConvCheckMode   .... Total+1el-Energy
 Convergence forced     ConvForced      .... 0
 Energy Change          TolE            ....  1.000e-08 Eh
 1-El. energy change                    ....  1.000e-05 Eh
 Orbital Gradient       TolG            ....  1.000e-05
 Orbital Rotation angle TolX            ....  1.000e-05
 DIIS Error             TolErr          ....  5.000e-07


Diagonalization of the overlap matrix:
Smallest eigenvalue                        ... 9.959e-04
Time for diagonalization                   ...    0.003 sec
Threshold for overlap eigenvalues          ... 1.000e-08
Number of eigenvalues below threshold      ... 0
Time for construction of square roots      ...    0.035 sec
Total time needed                          ...    0.041 sec

--------------------------------
INITIAL GUESS: MINIMAL BASIS EHT
--------------------------------
The minimal basis has 43 functions
EHT matrix was diagonalized
Basis set overlap was calculated now projecting the orbitals
Using GuessMode=FMatrix for the initial guess
C*T matrix was formed
Effective Fockian was calculated
Effective Fockian was diagonalized
Initial density was built
                      ------------------
                      INITIAL GUESS DONE
                      ------------------
-------------------
DFT GRID GENERATION
-------------------

General Integration Accuracy     IntAcc      ... 4.959
Radial Grid Type                 RadialGrid  ... OptM3 with GC (2021)
Angular Grid (max. ang.)         AngularGrid ... 6 (Lebedev-590)
Angular grid pruning method      GridPruning ... 4 (adaptive)
Weight generation scheme         WeightScheme... Becke
Basis function cutoff            BFCut       ... 1.0000e-11
Integration weight cutoff        WCut        ... 1.0000e-14
Angular grids for H and He will be reduced by one unit
Partially contracted basis set               ... off
Rotationally invariant grid construction     ... off

Total number of grid points                  ...   169002
Total number of batches                      ...     2648
Average number of points per batch           ...       63
Average number of grid points per atom       ...    11267
Time for grid setup =    4.079 sec

--------------------
COSX GRID GENERATION
--------------------

GRIDX 1
-------
General Integration Accuracy     IntAcc      ... 4.020
Radial Grid Type                 RadialGrid  ... OptM3 with GC (2021)
Angular Grid (max. ang.)         AngularGrid ... 2 (Lebedev-110)
Angular grid pruning method      GridPruning ... 4 (adaptive)
Weight generation scheme         WeightScheme... Becke
Basis function cutoff            BFCut       ... 1.0000e-11
Integration weight cutoff        WCut        ... 1.0000e-14
Angular grids for H and He will be reduced by one unit
Partially contracted basis set               ... on
Rotationally invariant grid construction     ... off

Total number of grid points                  ...    18578
Total number of batches                      ...      296
Average number of points per batch           ...       62
Average number of grid points per atom       ...     1239
UseSFitting                                  ... on

GRIDX 2
-------
General Integration Accuracy     IntAcc      ... 4.338
Radial Grid Type                 RadialGrid  ... OptM3 with GC (2021)
Angular Grid (max. ang.)         AngularGrid ... 3 (Lebedev-194)
Angular grid pruning method      GridPruning ... 4 (adaptive)
Weight generation scheme         WeightScheme... Becke
Basis function cutoff            BFCut       ... 1.0000e-11
Integration weight cutoff        WCut        ... 1.0000e-14
Angular grids for H and He will be reduced by one unit
Partially contracted basis set               ... on
Rotationally invariant grid construction     ... off

Total number of grid points                  ...    40709
Total number of batches                      ...      642
Average number of points per batch           ...       63
Average number of grid points per atom       ...     2714
UseSFitting                                  ... on

GRIDX 3
-------
General Integration Accuracy     IntAcc      ... 4.871
Radial Grid Type                 RadialGrid  ... OptM3 with GC (2021)
Angular Grid (max. ang.)         AngularGrid ... 4 (Lebedev-302)
Angular grid pruning method      GridPruning ... 4 (adaptive)
Weight generation scheme         WeightScheme... Becke
Basis function cutoff            BFCut       ... 1.0000e-11
Integration weight cutoff        WCut        ... 1.0000e-14
Angular grids for H and He will be reduced by one unit
Partially contracted basis set               ... on
Rotationally invariant grid construction     ... off

Total number of grid points                  ...    78378
Total number of batches                      ...     1233
Average number of points per batch           ...       63
Average number of grid points per atom       ...     5225
UseSFitting                                  ... on

Time for X-Grid setup             =    4.675 sec

--------------
SCF ITERATIONS
--------------
ITER       Energy         Delta-E        Max-DP      RMS-DP      [F,P]     Damp
               ***  Starting incremental Fock matrix formation  ***
  0   -270.2931241438   0.000000000000 0.09878339  0.00581253  0.3997820 0.7000
  1   -270.4660698685  -0.172945724696 0.07183830  0.00426490  0.2811472 0.7000
                               ***Turning on DIIS***
  2   -270.5903452740  -0.124275405555 0.05217319  0.00316335  0.1967192 0.7000
  3   -270.6790112628  -0.088665988809 0.03967749  0.00248383  0.1377163 0.7000
  4   -270.7421509970  -0.063139734137 0.09536128  0.00614668  0.0965349 0.0000
                      *** Initiating the SOSCF procedure ***
                           *** Shutting down DIIS ***
                      *** Re-Reading the Fockian *** 
                      *** Removing any level shift *** 
ITER      Energy       Delta-E        Grad      Rot      Max-DP    RMS-DP
  5   -270.89388112  -0.1517301187  0.002195  0.002195  0.002231  0.000188
               *** Restarting incremental Fock matrix formation ***
  6   -270.89398583  -0.0001047117  0.000792  0.001642  0.001589  0.000123
  7   -270.89400325  -0.0000174207  0.000312  0.000672  0.000961  0.000048
  8   -270.89400612  -0.0000028684  0.000154  0.000285  0.000441  0.000019
  9   -270.89400689  -0.0000007772  0.000005  0.000006  0.000012  0.000001
 10   -270.89400690  -0.0000000051  0.000003  0.000003  0.000005  0.000000
                  ***Gradient check signals convergence***
              ***Rediagonalizing the Fockian in SOSCF/NRSCF***

               *****************************************************
               *                     SUCCESS                       *
               *           SCF CONVERGED AFTER  11 CYCLES          *
               *****************************************************

Old exchange energy                            =    -16.419102914 Eh
New exchange energy                            =    -16.419090813 Eh
Exchange energy change after final integration =      0.000012102 Eh
Total energy after final integration           =   -270.893994791 Eh
Final COS-X integration done in                =     5.072 sec

----------------
TOTAL SCF ENERGY
----------------

Total Energy       :         -270.89399479 Eh           -7371.40035 eV

Components:
Nuclear Repulsion  :          287.74211632 Eh            7829.86105 eV
Electronic Energy  :         -558.63611111 Eh          -15201.26140 eV
One Electron Energy:         -934.57649687 Eh          -25431.11937 eV
Two Electron Energy:          375.94038576 Eh           10229.85797 eV
Max COSX asymmetry :            0.00000128 Eh               0.00003 eV

Virial components:
Potential Energy   :         -539.47550947 Eh          -14679.87492 eV
Kinetic Energy     :          268.58151468 Eh            7308.47457 eV
Virial Ratio       :            2.00860997


DFT components:
N(Alpha)           :       25.000002281360 electrons
N(Beta)            :       25.000002281360 electrons
N(Total)           :       50.000004562720 electrons
E(X)               :      -21.784931213976 Eh       
E(C)               :       -2.156428755706 Eh       
E(XC)              :      -23.941359969682 Eh       
DFET-embed. en.    :        0.000000000000 Eh       

---------------
SCF CONVERGENCE
---------------

  Last Energy change         ...    6.1439e-09  Tolerance :   1.0000e-08
  Last MAX-Density change    ...    1.3323e-15  Tolerance :   1.0000e-07
  Last RMS-Density change    ...    4.9513e-17  Tolerance :   5.0000e-09
  Last Orbital Gradient      ...    5.3817e-07  Tolerance :   1.0000e-05
  Last Orbital Rotation      ...    6.7419e-07  Tolerance :   1.0000e-05

             **** THE GBW FILE WAS UPDATED (pbeh-3c.gbw) ****
             **** DENSITY pbeh-3c.scfp WAS UPDATED ****
             **** ENERGY FILE WAS UPDATED (pbeh-3c.en.tmp) ****
             **** THE GBW FILE WAS UPDATED (pbeh-3c.gbw) ****
             **** DENSITY pbeh-3c.scfp WAS UPDATED ****
----------------
ORBITAL ENERGIES
----------------

  NO   OCC          E(Eh)            E(eV) 
   0   2.0000     -10.452579      -284.4291 
   1   2.0000     -10.452530      -284.4278 
   2   2.0000     -10.439498      -284.0732 
   3   2.0000     -10.436519      -283.9921 
   4   2.0000     -10.436382      -283.9884 
   5   2.0000     -10.435487      -283.9640 
   6   2.0000     -10.435409      -283.9619 
   7   2.0000      -0.984895       -26.8004 
   8   2.0000      -0.834536       -22.7089 
   9   2.0000      -0.788343       -21.4519 
  10   2.0000      -0.774248       -21.0683 
  11   2.0000      -0.633775       -17.2459 
  12   2.0000      -0.625239       -17.0136 
  13   2.0000      -0.585674       -15.9370 
  14   2.0000      -0.564188       -15.3523 
  15   2.0000      -0.539489       -14.6802 
  16   2.0000      -0.472199       -12.8492 
  17   2.0000      -0.438068       -11.9204 
  18   2.0000      -0.421560       -11.4712 
  19   2.0000      -0.418137       -11.3781 
  20   2.0000      -0.398093       -10.8327 
  21   2.0000      -0.379892       -10.3374 
  22   2.0000      -0.375810       -10.2263 
  23   2.0000      -0.297016        -8.0822 
  24   2.0000      -0.264422        -7.1953 
  25   0.0000       0.019412         0.5282 
  26   0.0000       0.079318         2.1584 
  27   0.0000       0.160079         4.3560 
  28   0.0000       0.185252         5.0409 
  29   0.0000       0.196399         5.3443 
  30   0.0000       0.202516         5.5107 
  31   0.0000       0.213982         5.8228 
  32   0.0000       0.222455         6.0533 
  33   0.0000       0.226932         6.1751 
  34   0.0000       0.228180         6.2091 
  35   0.0000       0.231956         6.3118 
  36   0.0000       0.250434         6.8147 
  37   0.0000       0.259072         7.0497 
  38   0.0000       0.275310         7.4916 
  39   0.0000       0.346741         9.4353 
  40   0.0000       0.355043         9.6612 
  41   0.0000       0.361504         9.8370 
  42   0.0000       0.417482        11.3603 
  43   0.0000       0.485383        13.2079 
  44   0.0000       0.495322        13.4784 
  45   0.0000       0.549069        14.9409 
  46   0.0000       0.554614        15.0918 
  47   0.0000       0.611548        16.6411 
  48   0.0000       0.626232        17.0406 
  49   0.0000       0.633981        17.2515 
  50   0.0000       0.638942        17.3865 
  51   0.0000       0.640167        17.4198 
  52   0.0000       0.645601        17.5677 
  53   0.0000       0.655511        17.8373 
  54   0.0000       0.677358        18.4318 
  55   0.0000       0.727287        19.7905 
  56   0.0000       0.735177        20.0052 
  57   0.0000       0.742836        20.2136 
  58   0.0000       0.791341        21.5335 
  59   0.0000       0.825942        22.4750 
  60   0.0000       0.873691        23.7743 
  61   0.0000       0.898370        24.4459 
  62   0.0000       0.928522        25.2664 
  63   0.0000       0.944807        25.7095 
  64   0.0000       0.958515        26.0825 
  65   0.0000       0.969534        26.3824 
  66   0.0000       1.034186        28.1416 
  67   0.0000       1.051211        28.6049 
  68   0.0000       1.056935        28.7607 
  69   0.0000       1.067098        29.0372 
  70   0.0000       1.107008        30.1232 
  71   0.0000       1.113127        30.2897 
  72   0.0000       1.181658        32.1546 
  73   0.0000       1.204188        32.7676 
  74   0.0000       1.287731        35.0409 
  75   0.0000       1.290963        35.1289 
  76   0.0000       1.373398        37.3721 
  77   0.0000       1.388899        37.7939 
  78   0.0000       1.405535        38.2466 
  79   0.0000       1.535475        41.7824 
  80   0.0000       1.554219        42.2925 
  81   0.0000       1.633693        44.4550 
  82   0.0000       1.664506        45.2935 
  83   0.0000       1.731558        47.1181 
  84   0.0000       1.773007        48.2460 
  85   0.0000       1.797951        48.9247 
  86   0.0000       1.834828        49.9282 
  87   0.0000       1.844642        50.1953 
  88   0.0000       1.867794        50.8253 
  89   0.0000       1.935171        52.6587 
  90   0.0000       2.040843        55.5342 
  91   0.0000       2.057463        55.9864 
  92   0.0000       2.149969        58.5036 
  93   0.0000       2.174105        59.1604 
  94   0.0000       2.202636        59.9368 
  95   0.0000       2.204849        59.9970 
  96   0.0000       2.254647        61.3521 
  97   0.0000       2.257687        61.4348 
  98   0.0000       2.269882        61.7666 
  99   0.0000       2.328263        63.3553 
 100   0.0000       2.385618        64.9160 
 101   0.0000       2.471860        67.2627 
 102   0.0000       2.483892        67.5901 
 103   0.0000       2.541684        69.1627 
 104   0.0000       2.554661        69.5159 
 105   0.0000       2.569052        69.9075 
 106   0.0000       2.631755        71.6137 
 107   0.0000       2.662487        72.4500 
 108   0.0000       2.664960        72.5172 
 109   0.0000       2.759863        75.0997 
 110   0.0000       2.914449        79.3062 
 111   0.0000       2.928979        79.7016 
 112   0.0000       2.975508        80.9677 
 113   0.0000       3.058766        83.2332 
 114   0.0000      13.407863       364.8465 
 115   0.0000      13.737603       373.8192 
 116   0.0000      13.853139       376.9631 
 117   0.0000      13.972109       380.2004 
 118   0.0000      14.039645       382.0382 
 119   0.0000      14.275851       388.4657 
 120   0.0000      14.313143       389.4804 

                    ********************************
                    * MULLIKEN POPULATION ANALYSIS *
                    ********************************

-----------------------
MULLIKEN ATOMIC CHARGES
-----------------------
   0 C :   -0.164800
   1 C :   -0.164800
   2 C :   -0.364345
   3 C :   -0.164800
   4 C :   -0.164800
   5 C :   -0.364345
   6 C :   -0.365506
   7 H :    0.217748
   8 H :    0.217748
   9 H :    0.213276
  10 H :    0.217748
  11 H :    0.217748
  12 H :    0.213276
  13 H :    0.227925
  14 H :    0.227925
Sum of atomic charges:   -0.0000000

--------------------------------
MULLIKEN REDUCED ORBITAL CHARGES
--------------------------------
  0 C s       :     3.238642  s :     3.238642
      pz      :     0.986085  p :     2.887426
      px      :     0.948903
      py      :     0.952438
      dz2     :     0.003391  d :     0.038732
      dxz     :     0.005589
      dyz     :     0.009168
      dx2y2   :     0.008621
      dxy     :     0.011963
  1 C s       :     3.238641  s :     3.238641
      pz      :     0.986086  p :     2.887427
      px      :     0.948903
      py      :     0.952438
      dz2     :     0.003391  d :     0.038732
      dxz     :     0.005589
      dyz     :     0.009168
      dx2y2   :     0.008621
      dxy     :     0.011963
  2 C s       :     3.355185  s :     3.355185
      pz      :     0.932562  p :     2.960433
      px      :     0.905407
      py      :     1.122464
      dz2     :     0.006132  d :     0.048726
      dxz     :     0.010804
      dyz     :     0.010173
      dx2y2   :     0.015985
      dxy     :     0.005631
  3 C s       :     3.238641  s :     3.238641
      pz      :     0.986085  p :     2.887426
      px      :     0.948903
      py      :     0.952438
      dz2     :     0.003391  d :     0.038732
      dxz     :     0.005589
      dyz     :     0.009168
      dx2y2   :     0.008621
      dxy     :     0.011963
  4 C s       :     3.238641  s :     3.238641
      pz      :     0.986085  p :     2.887427
      px      :     0.948903
      py      :     0.952438
      dz2     :     0.003391  d :     0.038732
      dxz     :     0.005589
      dyz     :     0.009168
      dx2y2   :     0.008621
      dxy     :     0.011963
  5 C s       :     3.355185  s :     3.355185
      pz      :     0.932562  p :     2.960433
      px      :     0.905408
      py      :     1.122464
      dz2     :     0.006132  d :     0.048726
      dxz     :     0.010804
      dyz     :     0.010173
      dx2y2   :     0.015985
      dxy     :     0.005631
  6 C s       :     3.340873  s :     3.340873
      pz      :     0.950074  p :     2.979579
      px      :     1.169325
      py      :     0.860180
      dz2     :     0.002903  d :     0.045054
      dxz     :     0.016956
      dyz     :     0.010917
      dx2y2   :     0.011145
      dxy     :     0.003133
  7 H s       :     0.782252  s :     0.782252
  8 H s       :     0.782252  s :     0.782252
  9 H s       :     0.786724  s :     0.786724
 10 H s       :     0.782252  s :     0.782252
 11 H s       :     0.782252  s :     0.782252
 12 H s       :     0.786724  s :     0.786724
 13 H s       :     0.772075  s :     0.772075
 14 H s       :     0.772075  s :     0.772075


                     *******************************
                     * LOEWDIN POPULATION ANALYSIS *
                     *******************************

----------------------
LOEWDIN ATOMIC CHARGES
----------------------
   0 C :   -0.138264
   1 C :   -0.138264
   2 C :   -0.144692
   3 C :   -0.138264
   4 C :   -0.138264
   5 C :   -0.144692
   6 C :   -0.187697
   7 H :    0.133154
   8 H :    0.133154
   9 H :    0.124395
  10 H :    0.133154
  11 H :    0.133154
  12 H :    0.124395
  13 H :    0.124366
  14 H :    0.124366

-------------------------------
LOEWDIN REDUCED ORBITAL CHARGES
-------------------------------
  0 C s       :     2.919345  s :     2.919345
      pz      :     1.004510  p :     3.132889
      px      :     1.020944
      py      :     1.107435
      dz2     :     0.007529  d :     0.086030
      dxz     :     0.010542
      dyz     :     0.018374
      dx2y2   :     0.023498
      dxy     :     0.026086
  1 C s       :     2.919345  s :     2.919345
      pz      :     1.004510  p :     3.132889
      px      :     1.020944
      py      :     1.107435
      dz2     :     0.007529  d :     0.086030
      dxz     :     0.010542
      dyz     :     0.018374
      dx2y2   :     0.023498
      dxy     :     0.026086
  2 C s       :     2.890532  s :     2.890532
      pz      :     1.038937  p :     3.150960
      px      :     1.036892
      py      :     1.075132
      dz2     :     0.011694  d :     0.103200
      dxz     :     0.024849
      dyz     :     0.022055
      dx2y2   :     0.033575
      dxy     :     0.011027
  3 C s       :     2.919345  s :     2.919345
      pz      :     1.004510  p :     3.132889
      px      :     1.020944
      py      :     1.107435
      dz2     :     0.007529  d :     0.086030
      dxz     :     0.010542
      dyz     :     0.018374
      dx2y2   :     0.023498
      dxy     :     0.026086
  4 C s       :     2.919345  s :     2.919345
      pz      :     1.004510  p :     3.132889
      px      :     1.020944
      py      :     1.107435
      dz2     :     0.007529  d :     0.086030
      dxz     :     0.010542
      dyz     :     0.018374
      dx2y2   :     0.023498
      dxy     :     0.026086
  5 C s       :     2.890532  s :     2.890532
      pz      :     1.038937  p :     3.150960
      px      :     1.036892
      py      :     1.075132
      dz2     :     0.011694  d :     0.103200
      dxz     :     0.024849
      dyz     :     0.022055
      dx2y2   :     0.033575
      dxy     :     0.011027
  6 C s       :     2.944115  s :     2.944115
      pz      :     1.051223  p :     3.153779
      px      :     1.113900
      py      :     0.988657
      dz2     :     0.006195  d :     0.089802
      dxz     :     0.029124
      dyz     :     0.027014
      dx2y2   :     0.021054
      dxy     :     0.006415
  7 H s       :     0.866846  s :     0.866846
  8 H s       :     0.866846  s :     0.866846
  9 H s       :     0.875605  s :     0.875605
 10 H s       :     0.866846  s :     0.866846
 11 H s       :     0.866846  s :     0.866846
 12 H s       :     0.875605  s :     0.875605
 13 H s       :     0.875634  s :     0.875634
 14 H s       :     0.875634  s :     0.875634


                      *****************************
                      * MAYER POPULATION ANALYSIS *
                      *****************************

  NA   - Mulliken gross atomic population
  ZA   - Total nuclear charge
  QA   - Mulliken gross atomic charge
  VA   - Mayer's total valence
  BVA  - Mayer's bonded valence
  FA   - Mayer's free valence

  ATOM       NA         ZA         QA         VA         BVA        FA
  0 C      6.1648     6.0000    -0.1648     3.7333     3.7333    -0.0000
  1 C      6.1648     6.0000    -0.1648     3.7333     3.7333    -0.0000
  2 C      6.3643     6.0000    -0.3643     3.7724     3.7724    -0.0000
  3 C      6.1648     6.0000    -0.1648     3.7333     3.7333    -0.0000
  4 C      6.1648     6.0000    -0.1648     3.7333     3.7333    -0.0000
  5 C      6.3643     6.0000    -0.3643     3.7724     3.7724     0.0000
  6 C      6.3655     6.0000    -0.3655     3.6669     3.6669     0.0000
  7 H      0.7823     1.0000     0.2177     0.9253     0.9253    -0.0000
  8 H      0.7823     1.0000     0.2177     0.9253     0.9253    -0.0000
  9 H      0.7867     1.0000     0.2133     0.9301     0.9301     0.0000
 10 H      0.7823     1.0000     0.2177     0.9253     0.9253    -0.0000
 11 H      0.7823     1.0000     0.2177     0.9253     0.9253     0.0000
 12 H      0.7867     1.0000     0.2133     0.9301     0.9301     0.0000
 13 H      0.7721     1.0000     0.2279     0.9114     0.9114     0.0000
 14 H      0.7721     1.0000     0.2279     0.9114     0.9114     0.0000

  Mayer bond orders larger than 0.100000
B(  0-C ,  1-C ) :   1.8956 B(  0-C ,  5-C ) :   0.9634 B(  0-C ,  7-H ) :   0.9259 
B(  1-C ,  2-C ) :   0.9634 B(  1-C ,  8-H ) :   0.9259 B(  2-C ,  3-C ) :   0.9634 
B(  2-C ,  6-C ) :   0.9444 B(  2-C ,  9-H ) :   0.9337 B(  3-C ,  4-C ) :   1.8956 
B(  3-C , 10-H ) :   0.9259 B(  4-C ,  5-C ) :   0.9634 B(  4-C , 11-H ) :   0.9259 
B(  5-C ,  6-C ) :   0.9444 B(  5-C , 12-H ) :   0.9337 B(  6-C , 13-H ) :   0.9189 
B(  6-C , 14-H ) :   0.9189 

-------
TIMINGS
-------

Total SCF time: 0 days 0 hours 1 min 12 sec 

Total time                  ....      72.969 sec
Sum of individual times     ....      66.626 sec  ( 91.3%)

Fock matrix formation       ....      54.552 sec  ( 74.8%)
  Split-RI-J                ....       6.011 sec  ( 11.0% of F)
  Chain of spheres X        ....      24.467 sec  ( 44.8% of F)
  XC integration            ....      13.466 sec  ( 24.7% of F)
    Basis function eval.    ....       2.520 sec  ( 18.7% of XC)
    Density eval.           ....       1.748 sec  ( 13.0% of XC)
    XC-Functional eval.     ....       1.175 sec  (  8.7% of XC)
    XC-Potential eval.      ....       1.259 sec  (  9.3% of XC)
Diagonalization             ....       0.686 sec  (  0.9%)
Density matrix formation    ....       0.031 sec  (  0.0%)
Population analysis         ....       0.126 sec  (  0.2%)
Initial guess               ....       0.100 sec  (  0.1%)
Orbital Transformation      ....       0.000 sec  (  0.0%)
Orbital Orthonormalization  ....       0.000 sec  (  0.0%)
DIIS solution               ....       1.584 sec  (  2.2%)
SOSCF solution              ....       0.792 sec  (  1.1%)
Grid generation             ....       8.755 sec  ( 12.0%)

Maximum memory used throughout the entire SCF-calculation: 53.6 MB


-------------------------------------------------------------------------------
                          DFT DISPERSION CORRECTION                            
                                                                               
                              DFTD3 V3.1  Rev 1                                
                          USING Becke-Johnson damping                          
-------------------------------------------------------------------------------
The PBEh-3c composite method is recognized
Using three-body term ABC
Active option DFTDOPT                   ...         4   

molecular C6(AA) [au] = 2183.935863 


            DFT-D V3
 parameters
 s6 scaling factor         :     1.0000 
 a1 scaling factor         :     0.4860 
 s8 scaling factor         :     0.0000 
 a2 scaling factor         :     4.5000 
 Damping factor alpha9(ATM):    16.0000 
 ad hoc parameters k1-k3   :    16.0000     1.3333    -4.0000 

 Edisp/kcal,au: -5.143992368765  -0.008197472760 
 E6   /kcal   :  -5.165903869 
 E8   /kcal   :  -0.000000000 
 E6(ABC)      :   0.021911500 
 % E8         :   0.000000000 
 % E6(ABC)    :  -0.425962925 

-------------------------   ----------------
Dispersion correction           -0.008197473
-------------------------   ----------------

------------------   -----------------
gCP correction             0.021934036
------------------   -----------------

-------------------------   --------------------
FINAL SINGLE POINT ENERGY      -270.880258228295
-------------------------   --------------------


                            ***************************************
                            *     ORCA property calculations      *
                            ***************************************

                                    ---------------------
                                    Active property flags
                                    ---------------------
   (+) Dipole Moment


------------------------------------------------------------------------------
                       ORCA ELECTRIC PROPERTIES CALCULATION
------------------------------------------------------------------------------

Dipole Moment Calculation                       ... on
Quadrupole Moment Calculation                   ... off
Polarizability Calculation                      ... off
GBWName                                         ... pbeh-3c.gbw
Electron density                                ... pbeh-3c.scfp
The origin for moment calculation is the CENTER OF MASS  = ( 0.000000, -0.000000 -0.136790)

-------------
DIPOLE MOMENT
-------------
                                X             Y             Z
Electronic contribution:      0.00000       0.00000      -1.10390
Nuclear contribution   :      0.00000       0.00000       1.11199
                        -----------------------------------------
Total Dipole Moment    :      0.00000       0.00000       0.00809
                        -----------------------------------------
Magnitude (a.u.)       :      0.00809
Magnitude (Debye)      :      0.02057



--------------------
Rotational spectrum 
--------------------
 
Rotational constants in cm-1:     0.143186     0.120028     0.106154 
Rotational constants in MHz :  4292.596815  3598.342039  3182.429711 

 Dipole components along the rotational axes: 
x,y,z [a.u.] :     0.000000     0.000000     0.008092 
x,y,z [Debye]:     0.000000     0.000000     0.020568 

 

Timings for individual modules:

Sum of individual times         ...       77.953 sec (=   1.299 min)
GTO integral calculation        ...        4.135 sec (=   0.069 min)   5.3 %
SCF iterations                  ...       73.819 sec (=   1.230 min)  94.7 %
                             ****ORCA TERMINATED NORMALLY****
TOTAL RUN TIME: 0 days 0 hours 1 minutes 20 seconds 334 msec
