
                                 *****************
                                 * O   R   C   A *
                                 *****************

                                            #,                                       
                                            ###                                      
                                            ####                                     
                                            #####                                    
                                            ######                                   
                                           ########,                                 
                                     ,,################,,,,,                         
                               ,,#################################,,                 
                          ,,##########################################,,             
                       ,#########################################, ''#####,          
                    ,#############################################,,   '####,        
                  ,##################################################,,,,####,       
                ,###########''''           ''''###############################       
              ,#####''   ,,,,##########,,,,          '''####'''          '####       
            ,##' ,,,,###########################,,,                        '##       
           ' ,,###''''                  '''############,,,                           
         ,,##''                                '''############,,,,        ,,,,,,###''
      ,#''                                            '''#######################'''  
     '                                                          ''''####''''         
             ,#######,   #######,   ,#######,      ##                                
            ,#'     '#,  ##    ##  ,#'     '#,    #''#        ######   ,####,        
            ##       ##  ##   ,#'  ##            #'  '#       #        #'  '#        
            ##       ##  #######   ##           ,######,      #####,   #    #        
            '#,     ,#'  ##    ##  '#,     ,#' ,#      #,         ##   #,  ,#        
             '#######'   ##     ##  '#######'  #'      '#     #####' # '####'        



                  #######################################################
                  #                        -***-                        #
                  #          Department of theory and spectroscopy      #
                  #    Directorship and core code : Frank Neese         #
                  #        Max Planck Institute fuer Kohlenforschung    #
                  #                Kaiser Wilhelm Platz 1               #
                  #                 D-45470 Muelheim/Ruhr               #
                  #                      Germany                        #
                  #                                                     #
                  #                  All rights reserved                #
                  #                        -***-                        #
                  #######################################################


                         Program Version 5.0.3 -  RELEASE  -


 With contributions from (in alphabetic order):
   Daniel Aravena         : Magnetic Suceptibility
   Michael Atanasov       : Ab Initio Ligand Field Theory (pilot matlab implementation)
   Alexander A. Auer      : GIAO ZORA, VPT2 properties, NMR spectrum
   Ute Becker             : Parallelization
   Giovanni Bistoni       : ED, misc. LED, open-shell LED, HFLD
   Martin Brehm           : Molecular dynamics
   Dmytro Bykov           : SCF Hessian
   Vijay G. Chilkuri      : MRCI spin determinant printing, contributions to CSF-ICE
   Dipayan Datta          : RHF DLPNO-CCSD density
   Achintya Kumar Dutta   : EOM-CC, STEOM-CC
   Dmitry Ganyushin       : Spin-Orbit,Spin-Spin,Magnetic field MRCI
   Miquel Garcia          : C-PCM and meta-GGA Hessian, CC/C-PCM, Gaussian charge scheme
   Yang Guo               : DLPNO-NEVPT2, F12-NEVPT2, CIM, IAO-localization
   Andreas Hansen         : Spin unrestricted coupled pair/coupled cluster methods
   Benjamin Helmich-Paris : MC-RPA, TRAH-SCF, COSX integrals
   Lee Huntington         : MR-EOM, pCC
   Robert Izsak           : Overlap fitted RIJCOSX, COSX-SCS-MP3, EOM
   Marcus Kettner         : VPT2
   Christian Kollmar      : KDIIS, OOCD, Brueckner-CCSD(T), CCSD density, CASPT2, CASPT2-K
   Simone Kossmann        : Meta GGA functionals, TD-DFT gradient, OOMP2, MP2 Hessian
   Martin Krupicka        : Initial AUTO-CI
   Lucas Lang             : DCDCAS
   Marvin Lechner         : AUTO-CI (C++ implementation), FIC-MRCC
   Dagmar Lenk            : GEPOL surface, SMD
   Dimitrios Liakos       : Extrapolation schemes; Compound Job, initial MDCI parallelization
   Dimitrios Manganas     : Further ROCIS development; embedding schemes
   Dimitrios Pantazis     : SARC Basis sets
   Anastasios Papadopoulos: AUTO-CI, single reference methods and gradients
   Taras Petrenko         : DFT Hessian,TD-DFT gradient, ASA, ECA, R-Raman, ABS, FL, XAS/XES, NRVS
   Peter Pinski           : DLPNO-MP2, DLPNO-MP2 Gradient
   Christoph Reimann      : Effective Core Potentials
   Marius Retegan         : Local ZFS, SOC
   Christoph Riplinger    : Optimizer, TS searches, QM/MM, DLPNO-CCSD(T), (RO)-DLPNO pert. Triples
   Tobias Risthaus        : Range-separated hybrids, TD-DFT gradient, RPA, STAB
   Michael Roemelt        : Original ROCIS implementation
   Masaaki Saitow         : Open-shell DLPNO-CCSD energy and density
   Barbara Sandhoefer     : DKH picture change effects
   Avijit Sen             : IP-ROCIS
   Kantharuban Sivalingam : CASSCF convergence, NEVPT2, FIC-MRCI
   Bernardo de Souza      : ESD, SOC TD-DFT
   Georgi Stoychev        : AutoAux, RI-MP2 NMR, DLPNO-MP2 response
   Willem Van den Heuvel  : Paramagnetic NMR
   Boris Wezisla          : Elementary symmetry handling
   Frank Wennmohs         : Technical directorship


 We gratefully acknowledge several colleagues who have allowed us to
 interface, adapt or use parts of their codes:
   Stefan Grimme, W. Hujo, H. Kruse, P. Pracht,  : VdW corrections, initial TS optimization,
                  C. Bannwarth, S. Ehlert          DFT functionals, gCP, sTDA/sTD-DF
   Ed Valeev, F. Pavosevic, A. Kumar             : LibInt (2-el integral package), F12 methods
   Garnet Chan, S. Sharma, J. Yang, R. Olivares  : DMRG
   Ulf Ekstrom                                   : XCFun DFT Library
   Mihaly Kallay                                 : mrcc  (arbitrary order and MRCC methods)
   Jiri Pittner, Ondrej Demel                    : Mk-CCSD
   Frank Weinhold                                : gennbo (NPA and NBO analysis)
   Christopher J. Cramer and Donald G. Truhlar   : smd solvation model
   Lars Goerigk                                  : TD-DFT with DH, B97 family of functionals
   V. Asgeirsson, H. Jonsson                     : NEB implementation
   FAccTs GmbH                                   : IRC, NEB, NEB-TS, DLPNO-Multilevel, CI-OPT
                                                   MM, QMMM, 2- and 3-layer-ONIOM, Crystal-QMMM,
                                                   LR-CPCM, SF, NACMEs, symmetry and pop. for TD-DFT,
                                                   nearIR, NL-DFT gradient (VV10), updates on ESD,
                                                   ML-optimized integration grids
   S Lehtola, MJT Oliveira, MAL Marques          : LibXC Library
   Liviu Ungur et al                             : ANISO software


 Your calculation uses the libint2 library for the computation of 2-el integrals
 For citations please refer to: http://libint.valeyev.net

 Your ORCA version has been built with support for libXC version: 5.1.0
 For citations please refer to: https://tddft.org/programs/libxc/

 This ORCA versions uses:
   CBLAS   interface :  Fast vector & matrix operations
   LAPACKE interface :  Fast linear algebra routines
   SCALAPACK package :  Parallel linear algebra routines
   Shared memory     :  Shared parallel matrices
   BLAS/LAPACK       :  OpenBLAS 0.3.15  USE64BITINT DYNAMIC_ARCH NO_AFFINITY Haswell SINGLE_THREADED
        Core in use  :  Haswell
   Copyright (c) 2011-2014, The OpenBLAS Project




***************************************
The coordinates will be read from file: PPh3.xyz
***************************************


Your calculation utilizes the geometrical counterpoise correction gCP
Please cite in your paper:
H.Kruse, S. Grimme J.Chem.Phys., 136, (2012), 154101 
   

Your calculation utilizes the atom-pairwise dispersion correction
with the Becke-Johnson damping scheme (D3BJ)
Cite in your paper:
S.Grimme, S.Ehrlich, L.Goerigk, J Comput Chem, (2011), 32, 1456–1465 
S.Grimme, J.Antony, S.Ehrlich and H.Krieg, J.Chem.Phys., 132, (2010), 154104 
   

Your calculation employs the composite approach PBEh-3c.
Please cite in your paper:
S. Grimme, J. G. Brandenburg, C. Bannwarth, A. Hansen J.Chem.Phys., 143, (2015), 054107 
   

================================================================================

----- Orbital basis set information -----
Your calculation utilizes the basis: def2-mSVP

----- AuxJ basis set information -----
Your calculation utilizes the auxiliary basis: def2/J
   F. Weigend, Phys. Chem. Chem. Phys. 8, 1057 (2006).

================================================================================
                                        WARNINGS
                       Please study these warnings very carefully!
================================================================================


INFO   : the flag for use of the SHARK integral package has been found!

================================================================================
                                       INPUT FILE
================================================================================
NAME = pbeh-3c.inp
|  1> ! PBEh-3c def2/J TightSCF DefGrid3
|  2> 
|  3> %maxcore 60000
|  4> 
|  5> %pal
|  6> nprocs 4
|  7> end
|  8> 
|  9> *xyzfile 0 1 PPh3.xyz
| 10> 
| 11>                          ****END OF INPUT****
================================================================================

                       ****************************
                       * Single Point Calculation *
                       ****************************

---------------------------------
CARTESIAN COORDINATES (ANGSTROEM)
---------------------------------
  C     -1.865411    2.453055   -2.041136
  C     -1.123675    1.622111   -1.200824
  C     -0.817191    0.329043   -1.636536
  C     -1.271423   -0.137361   -2.862160
  C     -2.025588    0.693542   -3.684628
  C     -2.310966    1.989907   -3.274078
  P     -0.554234    2.075337    0.485737
  C     -0.903167    3.877405    0.577027
  C     -2.177430    4.411327    0.787359
  C     -2.362155    5.785940    0.862580
  C     -1.275310    6.646083    0.739466
  C     -0.002420    6.126136    0.536853
  C      0.180420    4.750573    0.457972
  C     -1.934662    1.403511    1.505779
  C     -3.060912    0.759241    0.990244
  C     -4.043576    0.263455    1.842289
  C     -3.918721    0.405898    3.218046
  C     -2.799940    1.047376    3.743063
  C     -1.815163    1.531461    2.894294
  H     -3.178669    0.642765   -0.077649
  H     -4.909683   -0.234258    1.425706
  H     -4.683025    0.017298    3.877635
  H     -2.689679    1.163362    4.813419
  H     -0.943333    2.020494    3.311600
  H     -3.023530    3.747879    0.901501
  H     -3.353821    6.187598    1.025368
  H     -1.419204    7.716036    0.811567
  H      0.848285    6.788872    0.450890
  H      1.174280    4.346138    0.313896
  H     -0.230781   -0.320959   -0.998921
  H     -1.031682   -1.143874   -3.179446
  H     -2.384108    0.333862   -4.640095
  H     -2.887861    2.644557   -3.913740
  H     -2.108039    3.458902   -1.729289

----------------------------
CARTESIAN COORDINATES (A.U.)
----------------------------
  NO LB      ZA    FRAG     MASS         X           Y           Z
   0 C     6.0000    0    12.011   -3.525116    4.635602   -3.857189
   1 C     6.0000    0    12.011   -2.123437    3.065346   -2.269228
   2 C     6.0000    0    12.011   -1.544268    0.621800   -3.092605
   3 C     6.0000    0    12.011   -2.402641   -0.259574   -5.408698
   4 C     6.0000    0    12.011   -3.827807    1.310604   -6.962937
   5 C     6.0000    0    12.011   -4.367093    3.760379   -6.187110
   6 P    15.0000    0    30.974   -1.047350    3.921818    0.917910
   7 C     6.0000    0    12.011   -1.706739    7.327234    1.090423
   8 C     6.0000    0    12.011   -4.114745    8.336199    1.487894
   9 C     6.0000    0    12.011   -4.463827   10.933842    1.630041
  10 C     6.0000    0    12.011   -2.409987   12.559277    1.397388
  11 C     6.0000    0    12.011   -0.004572   11.576720    1.014506
  12 C     6.0000    0    12.011    0.340943    8.977281    0.865442
  13 C     6.0000    0    12.011   -3.655982    2.652252    2.845510
  14 C     6.0000    0    12.011   -5.784286    1.434757    1.871289
  15 C     6.0000    0    12.011   -7.641251    0.497858    3.481422
  16 C     6.0000    0    12.011   -7.405309    0.767035    6.081226
  17 C     6.0000    0    12.011   -5.291120    1.979254    7.073363
  18 C     6.0000    0    12.011   -3.430162    2.894042    5.469423
  19 H     1.0000    0     1.008   -6.006813    1.214649   -0.146736
  20 H     1.0000    0     1.008   -9.277956   -0.442683    2.694195
  21 H     1.0000    0     1.008   -8.849635    0.032689    7.327668
  22 H     1.0000    0     1.008   -5.082756    2.198435    9.096043
  23 H     1.0000    0     1.008   -1.782641    3.818181    6.258017
  24 H     1.0000    0     1.008   -5.713644    7.082465    1.703590
  25 H     1.0000    0     1.008   -6.337804   11.692865    1.937664
  26 H     1.0000    0     1.008   -2.681907   14.581196    1.533639
  27 H     1.0000    0     1.008    1.603027   12.829108    0.852059
  28 H     1.0000    0     1.008    2.219068    8.213011    0.593177
  29 H     1.0000    0     1.008   -0.436113   -0.606525   -1.887688
  30 H     1.0000    0     1.008   -1.949596   -2.161609   -6.008283
  31 H     1.0000    0     1.008   -4.505310    0.630908   -8.768509
  32 H     1.0000    0     1.008   -5.457267    4.997488   -7.395898
  33 H     1.0000    0     1.008   -3.983616    6.536378   -3.267882

--------------------------------
INTERNAL COORDINATES (ANGSTROEM)
--------------------------------
 C      0   0   0     0.000000000000     0.00000000     0.00000000
 C      1   0   0     1.395265431667     0.00000000     0.00000000
 C      2   1   0     1.398500422364   118.65354019     0.00000000
 C      3   2   1     1.387808198564   120.94094998   358.15888905
 C      4   3   2     1.391264788762   119.91990129     1.00636473
 C      5   4   3     1.389443702444   119.59590104     0.41083023
 P      2   1   3     1.836889930721   124.80814426   182.21865156
 C      7   2   1     1.837808234319   103.21975483   349.34263022
 C      8   7   2     1.397517905658   123.72553124    77.35966373
 C      9   8   7     1.389008227633   120.49765154   179.13301438
 C     10   9   8     1.391486559728   120.20358635   359.48577329
 C     11  10   9     1.389837193791   119.80114064     0.18309594
 C     12  11  10     1.389901911192   119.93383816     0.00000000
 C      7   2   1     1.843208722075   100.72026092    93.27184104
 C     14   7   2     1.396173327337   124.60991427   359.28183436
 C     15  14   7     1.391909863732   120.51924379   178.88646897
 C     16  15  14     1.388735301700   120.42527250     0.16005803
 C     17  16  15     1.392410947226   119.53949761   359.87482759
 C     18  17  16     1.387274634653   120.02855656   359.58038754
 H     15  14   7     1.080661018452   120.16704961   358.74886565
 H     16  15  14     1.082312113728   119.54705081   180.06560306
 H     17  16  15     1.081770450141   120.24283175   180.15103500
 H     18  17  16     1.082253585180   120.27453316   180.10896777
 H     19  18  17     1.083229492905   119.54876604   180.60535202
 H      9   8   7     1.081238917022   119.66811938   359.71062948
 H     10   9   8     1.082233780510   119.82145240   179.97457362
 H     11  10   9     1.081990955989   120.09927536   180.81983828
 H     12  11  10     1.081807037753   120.17248226   180.65475839
 H     13  12  11     1.082628397441   119.86964950   180.84896762
 H      3   2   1     1.083019814595   119.35139651   179.18980621
 H      4   3   2     1.082227005733   119.93198091   180.52642432
 H      5   4   3     1.082046124052   120.20496435   180.14744671
 H      6   5   4     1.081916436901   119.95836453   179.33950404
 H      1   2   3     1.080669352779   119.99159212   180.46341147

---------------------------
INTERNAL COORDINATES (A.U.)
---------------------------
 C      0   0   0     0.000000000000     0.00000000     0.00000000
 C      1   0   0     2.636669549977     0.00000000     0.00000000
 C      2   1   0     2.642782796442   118.65354019     0.00000000
 C      3   2   1     2.622577421696   120.94094998   358.15888905
 C      4   3   2     2.629109430527   119.91990129     1.00636473
 C      5   4   3     2.625668076120   119.59590104     0.41083023
 P      2   1   3     3.471218907221   124.80814426   182.21865156
 C      7   2   1     3.472954249527   103.21975483   349.34263022
 C      8   7   2     2.640926108946   123.72553124    77.35966373
 C      9   8   7     2.624845147989   120.49765154   179.13301438
 C     10   9   8     2.629528516919   120.20358635   359.48577329
 C     11  10   9     2.626411667002   119.80114064     0.18309594
 C     12  11  10     2.626533965166   119.93383816     0.00000000
 C      7   2   1     3.483159692378   100.72026092    93.27184104
 C     14   7   2     2.638385224152   124.60991427   359.28183436
 C     15  14   7     2.630328445557   120.51924379   178.88646897
 C     16  15  14     2.624329392722   120.42527250     0.16005803
 C     17  16  15     2.631275356131   119.53949761   359.87482759
 C     18  17  16     2.621569132030   120.02855656   359.58038754
 H     15  14   7     2.042153368479   120.16704961   358.74886565
 H     16  15  14     2.045273486371   119.54705081   180.06560306
 H     17  16  15     2.044249890536   120.24283175   180.15103500
 H     18  17  16     2.045162883444   120.27453316   180.10896777
 H     19  18  17     2.047007081776   119.54876604   180.60535202
 H      9   8   7     2.043245438509   119.66811938   359.71062948
 H     10   9   8     2.045125458043   119.82145240   179.97457362
 H     11  10   9     2.044666586200   120.09927536   180.81983828
 H     12  11  10     2.044319031101   120.17248226   180.65475839
 H     13  12  11     2.045871175970   119.86964950   180.84896762
 H      3   2   1     2.046610847195   119.35139651   179.18980621
 H      4   3   2     2.045112655569   119.93198091   180.52642432
 H      5   4   3     2.044770838728   120.20496435   180.14744671
 H      6   5   4     2.044525765530   119.95836453   179.33950404
 H      1   2   3     2.042169118074   119.99159212   180.46341147

---------------------
BASIS SET INFORMATION
---------------------
There are 3 groups of distinct atoms

 Group   1 Type C   : 8s4p1d contracted to 4s2p1d pattern {5111/31/1}
 Group   2 Type P   : 10s7p1d contracted to 4s3p1d pattern {5311/511/1}
 Group   3 Type H   : 4s contracted to 2s pattern {31}

Atom   0C    basis set group =>   1
Atom   1C    basis set group =>   1
Atom   2C    basis set group =>   1
Atom   3C    basis set group =>   1
Atom   4C    basis set group =>   1
Atom   5C    basis set group =>   1
Atom   6P    basis set group =>   2
Atom   7C    basis set group =>   1
Atom   8C    basis set group =>   1
Atom   9C    basis set group =>   1
Atom  10C    basis set group =>   1
Atom  11C    basis set group =>   1
Atom  12C    basis set group =>   1
Atom  13C    basis set group =>   1
Atom  14C    basis set group =>   1
Atom  15C    basis set group =>   1
Atom  16C    basis set group =>   1
Atom  17C    basis set group =>   1
Atom  18C    basis set group =>   1
Atom  19H    basis set group =>   3
Atom  20H    basis set group =>   3
Atom  21H    basis set group =>   3
Atom  22H    basis set group =>   3
Atom  23H    basis set group =>   3
Atom  24H    basis set group =>   3
Atom  25H    basis set group =>   3
Atom  26H    basis set group =>   3
Atom  27H    basis set group =>   3
Atom  28H    basis set group =>   3
Atom  29H    basis set group =>   3
Atom  30H    basis set group =>   3
Atom  31H    basis set group =>   3
Atom  32H    basis set group =>   3
Atom  33H    basis set group =>   3
---------------------------------
AUXILIARY/J BASIS SET INFORMATION
---------------------------------
There are 3 groups of distinct atoms

 Group   1 Type C   : 12s5p4d2f1g contracted to 6s4p3d1f1g pattern {711111/2111/211/2/1}
 Group   2 Type P   : 14s5p5d2f1g contracted to 8s4p3d1f1g pattern {71111111/2111/311/2/1}
 Group   3 Type H   : 5s2p1d contracted to 3s1p1d pattern {311/2/1}

Atom   0C    basis set group =>   1
Atom   1C    basis set group =>   1
Atom   2C    basis set group =>   1
Atom   3C    basis set group =>   1
Atom   4C    basis set group =>   1
Atom   5C    basis set group =>   1
Atom   6P    basis set group =>   2
Atom   7C    basis set group =>   1
Atom   8C    basis set group =>   1
Atom   9C    basis set group =>   1
Atom  10C    basis set group =>   1
Atom  11C    basis set group =>   1
Atom  12C    basis set group =>   1
Atom  13C    basis set group =>   1
Atom  14C    basis set group =>   1
Atom  15C    basis set group =>   1
Atom  16C    basis set group =>   1
Atom  17C    basis set group =>   1
Atom  18C    basis set group =>   1
Atom  19H    basis set group =>   3
Atom  20H    basis set group =>   3
Atom  21H    basis set group =>   3
Atom  22H    basis set group =>   3
Atom  23H    basis set group =>   3
Atom  24H    basis set group =>   3
Atom  25H    basis set group =>   3
Atom  26H    basis set group =>   3
Atom  27H    basis set group =>   3
Atom  28H    basis set group =>   3
Atom  29H    basis set group =>   3
Atom  30H    basis set group =>   3
Atom  31H    basis set group =>   3
Atom  32H    basis set group =>   3
Atom  33H    basis set group =>   3


           ************************************************************
           *        Program running with 4 parallel MPI-processes     *
           *              working on a common directory               *
           ************************************************************
------------------------------------------------------------------------------
                           ORCA GTO INTEGRAL CALCULATION
                           -- RI-GTO INTEGRALS CHOSEN --
------------------------------------------------------------------------------
------------------------------------------------------------------------------
                   ___                                                        
                  /   \      - P O W E R E D   B Y -                         
                 /     \                                                     
                 |  |  |   _    _      __       _____    __    __             
                 |  |  |  | |  | |    /  \     |  _  \  |  |  /  |          
                  \  \/   | |  | |   /    \    | | | |  |  | /  /          
                 / \  \   | |__| |  /  /\  \   | |_| |  |  |/  /          
                |  |  |   |  __  | /  /__\  \  |    /   |      \           
                |  |  |   | |  | | |   __   |  |    \   |  |\   \          
                \     /   | |  | | |  |  |  |  | |\  \  |  | \   \       
                 \___/    |_|  |_| |__|  |__|  |_| \__\ |__|  \__/        
                                                                              
                      - O R C A' S   B I G   F R I E N D -                    
                                      &                                       
                       - I N T E G R A L  F E E D E R -                       
                                                                              
 v1 FN, 2020, v2 2021                                                         
------------------------------------------------------------------------------


Reading SHARK input file pbeh-3c.SHARKINP.tmp ... ok
----------------------
SHARK INTEGRAL PACKAGE
----------------------

Number of atoms                             ...     34
Number of basis functions                   ...    318
Number of shells                            ...    164
Maximum angular momentum                    ...      2
Integral batch strategy                     ... SHARK/LIBINT Hybrid
RI-J (if used) integral strategy            ... SPLIT-RIJ (Revised 2003 algorithm where possible)
Printlevel                                  ...      1
Contraction scheme used                     ... SEGMENTED contraction
Coulomb Range Separation                    ... NOT USED
Exchange Range Separation                   ... NOT USED
Finite Nucleus Model                        ... NOT USED
Auxiliary Coulomb fitting basis             ... AVAILABLE
   # of basis functions in Aux-J            ...   1098
   # of shells in Aux-J                     ...    362
   Maximum angular momentum in Aux-J        ...      4
Auxiliary J/K fitting basis                 ... NOT available
Auxiliary Correlation fitting basis         ... NOT available
Auxiliary 'external' fitting basis          ... NOT available
Integral threshold                          ...     2.500000e-11
Primitive cut-off                           ...     2.500000e-12
Primitive pair pre-selection threshold      ...     2.500000e-12

Calculating pre-screening integrals         ... done (  0.1 sec) Dimension = 164
Organizing shell pair data                  ... done (  0.5 sec)
Shell pair information
Total number of shell pairs                 ...     13530
Shell pairs after pre-screening             ...      9804
Total number of primitive shell pairs       ...     49130
Primitive shell pairs kept                  ...     22645
          la=0 lb=0:   3655 shell pairs
          la=1 lb=0:   3392 shell pairs
          la=1 lb=1:    731 shell pairs
          la=2 lb=0:   1286 shell pairs
          la=2 lb=1:    620 shell pairs
          la=2 lb=2:    120 shell pairs

Calculating one electron integrals          ... done (  0.1 sec)
Calculating RI/J V-Matrix + Cholesky decomp.... done (  1.1 sec)
Calculating Nuclear repulsion               ... done (  0.0 sec) ENN=   1414.429198285921 Eh

SHARK setup successfully completed in   3.1 seconds

Maximum memory used throughout the entire GTOINT-calculation: 20.8 MB


           ************************************************************
           *        Program running with 4 parallel MPI-processes     *
           *              working on a common directory               *
           ************************************************************
-------------------------------------------------------------------------------
                                 ORCA SCF
-------------------------------------------------------------------------------

------------
SCF SETTINGS
------------
Hamiltonian:
 Density Functional     Method          .... DFT(GTOs)
 Exchange Functional    Exchange        .... PBE
   PBE kappa parameter   XKappa         ....  1.024500
   PBE mue parameter    XMuePBE         ....  0.123457
 Correlation Functional Correlation     .... PBE
   PBE beta parameter  CBetaPBE         ....  0.030000
 LDA part of GGA corr.  LDAOpt          .... PW91-LDA
 Gradients option       PostSCFGGA      .... off
 Hybrid DFT is turned on
   Fraction HF Exchange ScalHFX         ....  0.420000
   Scaling of DF-GGA-X  ScalDFX         ....  0.580000
   Scaling of DF-GGA-C  ScalDFC         ....  1.000000
   Scaling of DF-LDA-C  ScalLDAC        ....  1.000000
   Perturbative correction              ....  0.000000
   Density functional embedding theory  .... OFF
 RI-approximation to the Coulomb term is turned on
   Number of AuxJ basis functions       .... 1098
   RIJ-ON(X) (HFX calculated with O(N)) .... on
   Number of AuxJ basis functions       .... 1098
   RIJ-COSX (HFX calculated with COS-X)).... on


General Settings:
 Integral files         IntName         .... pbeh-3c
 Hartree-Fock type      HFTyp           .... RHF
 Total Charge           Charge          ....    0
 Multiplicity           Mult            ....    1
 Number of Electrons    NEL             ....  138
 Basis Dimension        Dim             ....  318
 Nuclear Repulsion      ENuc            ....   1414.4291982859 Eh

Convergence Acceleration:
 DIIS                   CNVDIIS         .... on
   Start iteration      DIISMaxIt       ....    12
   Startup error        DIISStart       ....  0.200000
   # of expansion vecs  DIISMaxEq       ....     5
   Bias factor          DIISBfac        ....   1.050
   Max. coefficient     DIISMaxC        ....  10.000
 Trust-Rad. Augm. Hess. CNVTRAH         .... auto
   Auto Start mean grad. ratio tolernc. ....  1.125000
   Auto Start start iteration           ....    20
   Auto Start num. interpolation iter.  ....    10
   Max. Number of Micro iterations      ....    16
   Max. Number of Macro iterations      .... Maxiter - #DIIS iter
   Number of Davidson start vectors     ....     2
   Converg. threshold I  (grad. norm)   ....   1.000e-05
   Converg. threshold II (energy diff.) ....   1.000e-08
   Grad. Scal. Fac. for Micro threshold ....   0.100
   Minimum threshold for Micro iter.    ....   0.010
   NR start threshold (gradient norm)   ....   0.001
   Initial trust radius                 ....   0.400
   Minimum AH scaling param. (alpha)    ....   1.000
   Maximum AH scaling param. (alpha)    .... 1000.000
   Orbital update algorithm             .... Taylor
   White noise on init. David. guess    .... on
   Maximum white noise                  ....   0.010
   Quad. conv. algorithm                .... NR
   COSX micro iterations for RIJONX calc.... off
 SOSCF                  CNVSOSCF        .... on
   Start iteration      SOSCFMaxIt      ....   150
   Startup grad/error   SOSCFStart      ....  0.003300
 Level Shifting         CNVShift        .... on
   Level shift para.    LevelShift      ....    0.2500
   Turn off err/grad.   ShiftErr        ....    0.0010
 Zerner damping         CNVZerner       .... off
 Static damping         CNVDamp         .... on
   Fraction old density DampFac         ....    0.7000
   Max. Damping (<1)    DampMax         ....    0.9800
   Min. Damping (>=0)   DampMin         ....    0.0000
   Turn off err/grad.   DampErr         ....    0.1000
 Fernandez-Rico         CNVRico         .... off

SCF Procedure:
 Maximum # iterations   MaxIter         ....   125
 SCF integral mode      SCFMode         .... Direct
   Integral package                     .... SHARK and LIBINT hybrid scheme
 Reset frequency        DirectResetFreq ....    20
 Integral Threshold     Thresh          ....  2.500e-11 Eh
 Primitive CutOff       TCut            ....  2.500e-12 Eh

Convergence Tolerance:
 Convergence Check Mode ConvCheckMode   .... Total+1el-Energy
 Convergence forced     ConvForced      .... 0
 Energy Change          TolE            ....  1.000e-08 Eh
 1-El. energy change                    ....  1.000e-05 Eh
 Orbital Gradient       TolG            ....  1.000e-05
 Orbital Rotation angle TolX            ....  1.000e-05
 DIIS Error             TolErr          ....  5.000e-07


Diagonalization of the overlap matrix:
Smallest eigenvalue                        ... 4.398e-04
Time for diagonalization                   ...    0.035 sec
Threshold for overlap eigenvalues          ... 1.000e-08
Number of eigenvalues below threshold      ... 0
Time for construction of square roots      ...    0.054 sec
Total time needed                          ...    0.090 sec

--------------------------------
INITIAL GUESS: MINIMAL BASIS EHT
--------------------------------
The minimal basis has 114 functions
EHT matrix was diagonalized
Basis set overlap was calculated now projecting the orbitals
Using GuessMode=FMatrix for the initial guess
C*T matrix was formed
Effective Fockian was calculated
Effective Fockian was diagonalized
Initial density was built
                      ------------------
                      INITIAL GUESS DONE
                      ------------------
-------------------
DFT GRID GENERATION
-------------------

General Integration Accuracy     IntAcc      ... 4.959
Radial Grid Type                 RadialGrid  ... OptM3 with GC (2021)
Angular Grid (max. ang.)         AngularGrid ... 6 (Lebedev-590)
Angular grid pruning method      GridPruning ... 4 (adaptive)
Weight generation scheme         WeightScheme... Becke
Basis function cutoff            BFCut       ... 1.0000e-11
Integration weight cutoff        WCut        ... 1.0000e-14
Angular grids for H and He will be reduced by one unit
Partially contracted basis set               ... off
Rotationally invariant grid construction     ... off

Total number of grid points                  ...   399274
Total number of batches                      ...     6255
Average number of points per batch           ...       63
Average number of grid points per atom       ...    11743
Time for grid setup =   10.236 sec

--------------------
COSX GRID GENERATION
--------------------

GRIDX 1
-------
General Integration Accuracy     IntAcc      ... 4.020
Radial Grid Type                 RadialGrid  ... OptM3 with GC (2021)
Angular Grid (max. ang.)         AngularGrid ... 2 (Lebedev-110)
Angular grid pruning method      GridPruning ... 4 (adaptive)
Weight generation scheme         WeightScheme... Becke
Basis function cutoff            BFCut       ... 1.0000e-11
Integration weight cutoff        WCut        ... 1.0000e-14
Angular grids for H and He will be reduced by one unit
Partially contracted basis set               ... on
Rotationally invariant grid construction     ... off

Total number of grid points                  ...    44652
Total number of batches                      ...      714
Average number of points per batch           ...       62
Average number of grid points per atom       ...     1313
UseSFitting                                  ... on

GRIDX 2
-------
General Integration Accuracy     IntAcc      ... 4.338
Radial Grid Type                 RadialGrid  ... OptM3 with GC (2021)
Angular Grid (max. ang.)         AngularGrid ... 3 (Lebedev-194)
Angular grid pruning method      GridPruning ... 4 (adaptive)
Weight generation scheme         WeightScheme... Becke
Basis function cutoff            BFCut       ... 1.0000e-11
Integration weight cutoff        WCut        ... 1.0000e-14
Angular grids for H and He will be reduced by one unit
Partially contracted basis set               ... on
Rotationally invariant grid construction     ... off

Total number of grid points                  ...    98123
Total number of batches                      ...     1549
Average number of points per batch           ...       63
Average number of grid points per atom       ...     2886
UseSFitting                                  ... on

GRIDX 3
-------
General Integration Accuracy     IntAcc      ... 4.871
Radial Grid Type                 RadialGrid  ... OptM3 with GC (2021)
Angular Grid (max. ang.)         AngularGrid ... 4 (Lebedev-302)
Angular grid pruning method      GridPruning ... 4 (adaptive)
Weight generation scheme         WeightScheme... Becke
Basis function cutoff            BFCut       ... 1.0000e-11
Integration weight cutoff        WCut        ... 1.0000e-14
Angular grids for H and He will be reduced by one unit
Partially contracted basis set               ... on
Rotationally invariant grid construction     ... off

Total number of grid points                  ...   183656
Total number of batches                      ...     2888
Average number of points per batch           ...       63
Average number of grid points per atom       ...     5402
UseSFitting                                  ... on

Time for X-Grid setup             =    9.255 sec

--------------
SCF ITERATIONS
--------------
ITER       Energy         Delta-E        Max-DP      RMS-DP      [F,P]     Damp
               ***  Starting incremental Fock matrix formation  ***
  0  -1032.3927011982   0.000000000000 0.12149273  0.00298964  0.4128486 0.7000
  1  -1032.9607965438  -0.568095345550 0.09638300  0.00220313  0.2906174 0.7000
  2  -1033.3702450562  -0.409448512374 0.07468365  0.00163190  0.2039525 0.7000
                               ***Turning on DIIS***
  3  -1033.6629571173  -0.292712061163 0.05687987  0.00121153  0.1431790 0.7000
  4  -1033.8715088780  -0.208551760709 0.04480595  0.00095748  0.1005665 0.7000
  5  -1034.0197532880  -0.148244409948 0.11413569  0.00241567  0.0705267 0.0000
  6  -1034.3748427091  -0.355089421118 0.01972241  0.00016043  0.0027172 0.0000
                      *** Initiating the SOSCF procedure ***
                           *** Shutting down DIIS ***
                      *** Re-Reading the Fockian *** 
                      *** Removing any level shift *** 
ITER      Energy       Delta-E        Grad      Rot      Max-DP    RMS-DP
  7  -1034.37520862  -0.0003659107  0.002304  0.002304  0.012024  0.000095
               *** Restarting incremental Fock matrix formation ***
  8  -1034.37530109  -0.0000924680  0.001332  0.004929  0.007981  0.000066
  9  -1034.37532760  -0.0000265142  0.000405  0.001991  0.005916  0.000048
 10  -1034.37532913  -0.0000015252  0.000405  0.000935  0.002527  0.000022
 11  -1034.37533388  -0.0000047528  0.000049  0.000119  0.000260  0.000004
 12  -1034.37533390  -0.0000000204  0.000028  0.000078  0.000174  0.000002
 13  -1034.37533403  -0.0000001256  0.000004  0.000012  0.000034  0.000001
 14  -1034.37533402   0.0000000023  0.000007  0.000009  0.000015  0.000000
                  ***Gradient check signals convergence***
              ***Rediagonalizing the Fockian in SOSCF/NRSCF***

               *****************************************************
               *                     SUCCESS                       *
               *           SCF CONVERGED AFTER  15 CYCLES          *
               *****************************************************

Old exchange energy                            =    -50.935041385 Eh
New exchange energy                            =    -50.935040855 Eh
Exchange energy change after final integration =      0.000000531 Eh
Total energy after final integration           =  -1034.375333503 Eh
Final COS-X integration done in                =    29.686 sec

----------------
TOTAL SCF ENERGY
----------------

Total Energy       :        -1034.37533350 Eh          -28146.78378 eV

Components:
Nuclear Repulsion  :         1414.42919829 Eh           38488.57521 eV
Electronic Energy  :        -2448.80453179 Eh          -66635.35899 eV
One Electron Energy:        -4219.46797100 Eh         -114817.56070 eV
Two Electron Energy:         1770.66343921 Eh           48182.20172 eV
Max COSX asymmetry :            0.00000245 Eh               0.00007 eV

Virial components:
Potential Energy   :        -2062.50010996 Eh          -56123.48125 eV
Kinetic Energy     :         1028.12477646 Eh           27976.69748 eV
Virial Ratio       :            2.00607957


DFT components:
N(Alpha)           :       69.000020732585 electrons
N(Beta)            :       69.000020732585 electrons
N(Total)           :      138.000041465169 electrons
E(X)               :      -67.684736073721 Eh       
E(C)               :       -6.100901348278 Eh       
E(XC)              :      -73.785637421999 Eh       
DFET-embed. en.    :        0.000000000000 Eh       

---------------
SCF CONVERGENCE
---------------

  Last Energy change         ...   -9.5706e-09  Tolerance :   1.0000e-08
  Last MAX-Density change    ...    2.2204e-15  Tolerance :   1.0000e-07
  Last RMS-Density change    ...    3.2828e-17  Tolerance :   5.0000e-09
  Last Orbital Gradient      ...    4.4845e-07  Tolerance :   1.0000e-05
  Last Orbital Rotation      ...    9.2172e-07  Tolerance :   1.0000e-05

             **** THE GBW FILE WAS UPDATED (pbeh-3c.gbw) ****
             **** DENSITY pbeh-3c.scfp WAS UPDATED ****
             **** ENERGY FILE WAS UPDATED (pbeh-3c.en.tmp) ****
             **** THE GBW FILE WAS UPDATED (pbeh-3c.gbw) ****
             **** DENSITY pbeh-3c.scfp WAS UPDATED ****
----------------
ORBITAL ENERGIES
----------------

  NO   OCC          E(Eh)            E(eV) 
   0   2.0000     -77.743684     -2115.5132 
   1   2.0000     -10.459276      -284.6114 
   2   2.0000     -10.459140      -284.6077 
   3   2.0000     -10.458022      -284.5772 
   4   2.0000     -10.453938      -284.4661 
   5   2.0000     -10.453744      -284.4608 
   6   2.0000     -10.452639      -284.4308 
   7   2.0000     -10.452614      -284.4301 
   8   2.0000     -10.452261      -284.4205 
   9   2.0000     -10.451571      -284.4017 
  10   2.0000     -10.451506      -284.3999 
  11   2.0000     -10.451119      -284.3894 
  12   2.0000     -10.450952      -284.3849 
  13   2.0000     -10.450374      -284.3691 
  14   2.0000     -10.449977      -284.3583 
  15   2.0000     -10.449355      -284.3414 
  16   2.0000     -10.448612      -284.3212 
  17   2.0000     -10.448432      -284.3163 
  18   2.0000     -10.447945      -284.3030 
  19   2.0000      -6.813740      -185.4113 
  20   2.0000      -4.904832      -133.4673 
  21   2.0000      -4.904657      -133.4625 
  22   2.0000      -4.902612      -133.4069 
  23   2.0000      -0.964524       -26.2460 
  24   2.0000      -0.957170       -26.0459 
  25   2.0000      -0.954363       -25.9695 
  26   2.0000      -0.866542       -23.5798 
  27   2.0000      -0.841507       -22.8986 
  28   2.0000      -0.841320       -22.8935 
  29   2.0000      -0.838744       -22.8234 
  30   2.0000      -0.834626       -22.7113 
  31   2.0000      -0.833171       -22.6717 
  32   2.0000      -0.730462       -19.8769 
  33   2.0000      -0.688087       -18.7238 
  34   2.0000      -0.686029       -18.6678 
  35   2.0000      -0.683487       -18.5986 
  36   2.0000      -0.673635       -18.3305 
  37   2.0000      -0.672723       -18.3057 
  38   2.0000      -0.631606       -17.1869 
  39   2.0000      -0.589029       -16.0283 
  40   2.0000      -0.587545       -15.9879 
  41   2.0000      -0.563243       -15.3266 
  42   2.0000      -0.523099       -14.2342 
  43   2.0000      -0.521795       -14.1988 
  44   2.0000      -0.519250       -14.1295 
  45   2.0000      -0.513491       -13.9728 
  46   2.0000      -0.512373       -13.9424 
  47   2.0000      -0.506007       -13.7692 
  48   2.0000      -0.485529       -13.2119 
  49   2.0000      -0.484118       -13.1735 
  50   2.0000      -0.481963       -13.1149 
  51   2.0000      -0.468997       -12.7621 
  52   2.0000      -0.466450       -12.6928 
  53   2.0000      -0.430287       -11.7087 
  54   2.0000      -0.427051       -11.6206 
  55   2.0000      -0.423322       -11.5192 
  56   2.0000      -0.419999       -11.4288 
  57   2.0000      -0.401645       -10.9293 
  58   2.0000      -0.400791       -10.9061 
  59   2.0000      -0.398352       -10.8397 
  60   2.0000      -0.375012       -10.2046 
  61   2.0000      -0.374002       -10.1771 
  62   2.0000      -0.321415        -8.7462 
  63   2.0000      -0.303367        -8.2550 
  64   2.0000      -0.300779        -8.1846 
  65   2.0000      -0.299166        -8.1407 
  66   2.0000      -0.292519        -7.9599 
  67   2.0000      -0.291325        -7.9273 
  68   2.0000      -0.253994        -6.9115 
  69   0.0000      -0.005582        -0.1519 
  70   0.0000      -0.000845        -0.0230 
  71   0.0000       0.004430         0.1206 
  72   0.0000       0.016295         0.4434 
  73   0.0000       0.021053         0.5729 
  74   0.0000       0.025582         0.6961 
  75   0.0000       0.096723         2.6320 
  76   0.0000       0.104663         2.8480 
  77   0.0000       0.139838         3.8052 
  78   0.0000       0.158823         4.3218 
  79   0.0000       0.160342         4.3631 
  80   0.0000       0.180817         4.9203 
  81   0.0000       0.185907         5.0588 
  82   0.0000       0.188989         5.1426 
  83   0.0000       0.200369         5.4523 
  84   0.0000       0.201478         5.4825 
  85   0.0000       0.203532         5.5384 
  86   0.0000       0.207204         5.6383 
  87   0.0000       0.214312         5.8317 
  88   0.0000       0.215482         5.8636 
  89   0.0000       0.228075         6.2062 
  90   0.0000       0.230455         6.2710 
  91   0.0000       0.242307         6.5935 
  92   0.0000       0.244472         6.6524 
  93   0.0000       0.247702         6.7403 
  94   0.0000       0.253262         6.8916 
  95   0.0000       0.255542         6.9536 
  96   0.0000       0.276919         7.5353 
  97   0.0000       0.308771         8.4021 
  98   0.0000       0.312237         8.4964 
  99   0.0000       0.316775         8.6199 
 100   0.0000       0.323460         8.8018 
 101   0.0000       0.324718         8.8360 
 102   0.0000       0.326378         8.8812 
 103   0.0000       0.327337         8.9073 
 104   0.0000       0.333676         9.0798 
 105   0.0000       0.351411         9.5624 
 106   0.0000       0.359274         9.7763 
 107   0.0000       0.363827         9.9002 
 108   0.0000       0.414230        11.2718 
 109   0.0000       0.438015        11.9190 
 110   0.0000       0.452128        12.3030 
 111   0.0000       0.464665        12.6442 
 112   0.0000       0.492573        13.4036 
 113   0.0000       0.495703        13.4888 
 114   0.0000       0.500130        13.6092 
 115   0.0000       0.532139        14.4802 
 116   0.0000       0.535256        14.5651 
 117   0.0000       0.537149        14.6166 
 118   0.0000       0.548668        14.9300 
 119   0.0000       0.552593        15.0368 
 120   0.0000       0.560932        15.2637 
 121   0.0000       0.572660        15.5829 
 122   0.0000       0.575316        15.6551 
 123   0.0000       0.585733        15.9386 
 124   0.0000       0.601182        16.3590 
 125   0.0000       0.602545        16.3961 
 126   0.0000       0.608371        16.5546 
 127   0.0000       0.609849        16.5948 
 128   0.0000       0.616189        16.7674 
 129   0.0000       0.617398        16.8002 
 130   0.0000       0.619389        16.8544 
 131   0.0000       0.620615        16.8878 
 132   0.0000       0.622560        16.9407 
 133   0.0000       0.624148        16.9839 
 134   0.0000       0.628178        17.0936 
 135   0.0000       0.631547        17.1853 
 136   0.0000       0.632912        17.2224 
 137   0.0000       0.635174        17.2840 
 138   0.0000       0.645030        17.5522 
 139   0.0000       0.649515        17.6742 
 140   0.0000       0.657559        17.8931 
 141   0.0000       0.659973        17.9588 
 142   0.0000       0.676385        18.4054 
 143   0.0000       0.684416        18.6239 
 144   0.0000       0.688653        18.7392 
 145   0.0000       0.698360        19.0033 
 146   0.0000       0.703474        19.1425 
 147   0.0000       0.724817        19.7233 
 148   0.0000       0.728743        19.8301 
 149   0.0000       0.756541        20.5865 
 150   0.0000       0.774281        21.0693 
 151   0.0000       0.776478        21.1290 
 152   0.0000       0.783596        21.3227 
 153   0.0000       0.790053        21.4984 
 154   0.0000       0.795151        21.6372 
 155   0.0000       0.820253        22.3202 
 156   0.0000       0.831436        22.6245 
 157   0.0000       0.851534        23.1714 
 158   0.0000       0.874720        23.8023 
 159   0.0000       0.888956        24.1897 
 160   0.0000       0.913469        24.8567 
 161   0.0000       0.925240        25.1771 
 162   0.0000       0.942790        25.6546 
 163   0.0000       0.950641        25.8683 
 164   0.0000       0.954463        25.9723 
 165   0.0000       0.958202        26.0740 
 166   0.0000       0.961468        26.1629 
 167   0.0000       0.963385        26.2151 
 168   0.0000       0.970372        26.4052 
 169   0.0000       0.975627        26.5482 
 170   0.0000       0.977790        26.6070 
 171   0.0000       0.987089        26.8600 
 172   0.0000       0.990280        26.9469 
 173   0.0000       0.992562        27.0090 
 174   0.0000       1.009604        27.4727 
 175   0.0000       1.011388        27.5213 
 176   0.0000       1.015925        27.6447 
 177   0.0000       1.042345        28.3636 
 178   0.0000       1.046899        28.4876 
 179   0.0000       1.053119        28.6568 
 180   0.0000       1.056446        28.7474 
 181   0.0000       1.060573        28.8596 
 182   0.0000       1.062886        28.9226 
 183   0.0000       1.080126        29.3917 
 184   0.0000       1.083782        29.4912 
 185   0.0000       1.088410        29.6171 
 186   0.0000       1.100459        29.9450 
 187   0.0000       1.109647        30.1950 
 188   0.0000       1.119041        30.4507 
 189   0.0000       1.126758        30.6606 
 190   0.0000       1.136743        30.9323 
 191   0.0000       1.150242        31.2997 
 192   0.0000       1.169352        31.8197 
 193   0.0000       1.182756        32.1844 
 194   0.0000       1.194170        32.4950 
 195   0.0000       1.217688        33.1350 
 196   0.0000       1.261823        34.3360 
 197   0.0000       1.279335        34.8125 
 198   0.0000       1.282903        34.9096 
 199   0.0000       1.284937        34.9649 
 200   0.0000       1.286821        35.0162 
 201   0.0000       1.306446        35.5502 
 202   0.0000       1.313619        35.7454 
 203   0.0000       1.318746        35.8849 
 204   0.0000       1.336112        36.3575 
 205   0.0000       1.341659        36.5084 
 206   0.0000       1.354856        36.8675 
 207   0.0000       1.372774        37.3551 
 208   0.0000       1.423874        38.7456 
 209   0.0000       1.441541        39.2263 
 210   0.0000       1.479028        40.2464 
 211   0.0000       1.484381        40.3921 
 212   0.0000       1.497761        40.7562 
 213   0.0000       1.536204        41.8022 
 214   0.0000       1.538215        41.8570 
 215   0.0000       1.540802        41.9274 
 216   0.0000       1.544214        42.0202 
 217   0.0000       1.546902        42.0933 
 218   0.0000       1.550547        42.1925 
 219   0.0000       1.563150        42.5355 
 220   0.0000       1.565836        42.6086 
 221   0.0000       1.567355        42.6499 
 222   0.0000       1.579988        42.9937 
 223   0.0000       1.590266        43.2733 
 224   0.0000       1.599085        43.5133 
 225   0.0000       1.635045        44.4918 
 226   0.0000       1.654950        45.0335 
 227   0.0000       1.670980        45.4697 
 228   0.0000       1.839773        50.0628 
 229   0.0000       1.843143        50.1545 
 230   0.0000       1.854842        50.4728 
 231   0.0000       1.860803        50.6350 
 232   0.0000       1.868159        50.8352 
 233   0.0000       1.879012        51.1305 
 234   0.0000       1.930163        52.5224 
 235   0.0000       1.933558        52.6148 
 236   0.0000       1.937964        52.7347 
 237   0.0000       1.996805        54.3358 
 238   0.0000       2.054598        55.9084 
 239   0.0000       2.056548        55.9615 
 240   0.0000       2.065791        56.2130 
 241   0.0000       2.075861        56.4871 
 242   0.0000       2.078947        56.5710 
 243   0.0000       2.126090        57.8539 
 244   0.0000       2.134446        58.0812 
 245   0.0000       2.137178        58.1556 
 246   0.0000       2.154274        58.6208 
 247   0.0000       2.169202        59.0270 
 248   0.0000       2.172972        59.1296 
 249   0.0000       2.194327        59.7107 
 250   0.0000       2.199058        59.8394 
 251   0.0000       2.200187        59.8701 
 252   0.0000       2.203126        59.9501 
 253   0.0000       2.204719        59.9935 
 254   0.0000       2.209649        60.1276 
 255   0.0000       2.214965        60.2723 
 256   0.0000       2.217109        60.3306 
 257   0.0000       2.222377        60.4740 
 258   0.0000       2.227652        60.6175 
 259   0.0000       2.229099        60.6569 
 260   0.0000       2.243394        61.0459 
 261   0.0000       2.361234        64.2525 
 262   0.0000       2.363110        64.3035 
 263   0.0000       2.364585        64.3436 
 264   0.0000       2.375269        64.6344 
 265   0.0000       2.377326        64.6903 
 266   0.0000       2.379979        64.7625 
 267   0.0000       2.388225        64.9869 
 268   0.0000       2.396953        65.2244 
 269   0.0000       2.403230        65.3952 
 270   0.0000       2.574875        70.0659 
 271   0.0000       2.578480        70.1640 
 272   0.0000       2.588246        70.4298 
 273   0.0000       2.632346        71.6298 
 274   0.0000       2.635790        71.7235 
 275   0.0000       2.643897        71.9441 
 276   0.0000       2.726774        74.1993 
 277   0.0000       2.727500        74.2190 
 278   0.0000       2.729581        74.2757 
 279   0.0000       2.740312        74.5677 
 280   0.0000       2.746726        74.7422 
 281   0.0000       2.752379        74.8961 
 282   0.0000       2.757276        75.0293 
 283   0.0000       2.767401        75.3048 
 284   0.0000       2.772741        75.4501 
 285   0.0000       2.779376        75.6307 
 286   0.0000       2.787111        75.8411 
 287   0.0000       2.793867        76.0250 
 288   0.0000       2.801507        76.2329 
 289   0.0000       2.804558        76.3159 
 290   0.0000       2.807796        76.4040 
 291   0.0000       2.839104        77.2559 
 292   0.0000       2.851473        77.5925 
 293   0.0000       2.857620        77.7598 
 294   0.0000       3.070541        83.5537 
 295   0.0000       3.078355        83.7663 
 296   0.0000       3.087287        84.0094 
 297   0.0000       3.440601        93.6235 
 298   0.0000       3.444075        93.7180 
 299   0.0000       3.444945        93.7417 
 300   0.0000      13.254387       360.6702 
 301   0.0000      13.259356       360.8054 
 302   0.0000      13.329880       362.7245 
 303   0.0000      13.648866       371.4045 
 304   0.0000      13.650060       371.4370 
 305   0.0000      13.661004       371.7348 
 306   0.0000      13.688806       372.4914 
 307   0.0000      13.691067       372.5529 
 308   0.0000      13.782017       375.0278 
 309   0.0000      14.112703       384.0262 
 310   0.0000      14.122988       384.3061 
 311   0.0000      14.125651       384.3785 
 312   0.0000      14.133060       384.5801 
 313   0.0000      14.137890       384.7115 
 314   0.0000      14.143164       384.8551 
 315   0.0000      14.536688       395.5634 
 316   0.0000      14.540814       395.6757 
 317   0.0000      14.550204       395.9312 

                    ********************************
                    * MULLIKEN POPULATION ANALYSIS *
                    ********************************

-----------------------
MULLIKEN ATOMIC CHARGES
-----------------------
   0 C :   -0.229007
   1 C :   -0.213558
   2 C :   -0.258877
   3 C :   -0.207139
   4 C :   -0.233670
   5 C :   -0.203809
   6 P :    0.573420
   7 C :   -0.205798
   8 C :   -0.227027
   9 C :   -0.207611
  10 C :   -0.230076
  11 C :   -0.205884
  12 C :   -0.266181
  13 C :   -0.187078
  14 C :   -0.244928
  15 C :   -0.201433
  16 C :   -0.236447
  17 C :   -0.202709
  18 C :   -0.259038
  19 H :    0.249184
  20 H :    0.220269
  21 H :    0.220995
  22 H :    0.220977
  23 H :    0.229873
  24 H :    0.254179
  25 H :    0.222291
  26 H :    0.223533
  27 H :    0.222500
  28 H :    0.233134
  29 H :    0.234619
  30 H :    0.222569
  31 H :    0.222791
  32 H :    0.221442
  33 H :    0.248494
Sum of atomic charges:   -0.0000000

--------------------------------
MULLIKEN REDUCED ORBITAL CHARGES
--------------------------------
  0 C s       :     3.263492  s :     3.263492
      pz      :     0.905679  p :     2.925297
      px      :     0.954086
      py      :     1.065532
      dz2     :     0.010150  d :     0.040219
      dxz     :     0.006854
      dyz     :     0.010278
      dx2y2   :     0.007626
      dxy     :     0.005311
  1 C s       :     3.244888  s :     3.244888
      pz      :     1.000706  p :     2.929437
      px      :     0.986253
      py      :     0.942478
      dz2     :     0.008093  d :     0.039234
      dxz     :     0.006310
      dyz     :     0.009962
      dx2y2   :     0.007930
      dxy     :     0.006938
  2 C s       :     3.272160  s :     3.272160
      pz      :     0.960280  p :     2.946357
      px      :     1.006392
      py      :     0.979685
      dz2     :     0.008018  d :     0.040360
      dxz     :     0.007127
      dyz     :     0.012113
      dx2y2   :     0.005378
      dxy     :     0.007724
  3 C s       :     3.243883  s :     3.243883
      pz      :     0.930025  p :     2.923382
      px      :     0.968702
      py      :     1.024654
      dz2     :     0.009776  d :     0.039875
      dxz     :     0.006842
      dyz     :     0.010244
      dx2y2   :     0.007779
      dxy     :     0.005235
  4 C s       :     3.254749  s :     3.254749
      pz      :     1.033274  p :     2.938977
      px      :     0.976623
      py      :     0.929081
      dz2     :     0.008886  d :     0.039944
      dxz     :     0.005521
      dyz     :     0.010809
      dx2y2   :     0.007320
      dxy     :     0.007408
  5 C s       :     3.242452  s :     3.242452
      pz      :     0.964756  p :     2.921473
      px      :     1.001301
      py      :     0.955416
      dz2     :     0.008004  d :     0.039885
      dxz     :     0.006817
      dyz     :     0.011963
      dx2y2   :     0.005407
      dxy     :     0.007693
  6 P s       :     5.522319  s :     5.522319
      pz      :     2.749825  p :     8.723382
      px      :     3.218540
      py      :     2.755016
      dz2     :     0.043444  d :     0.180879
      dxz     :     0.041202
      dyz     :     0.030900
      dx2y2   :     0.040584
      dxy     :     0.024748
  7 C s       :     3.232348  s :     3.232348
      pz      :     1.020772  p :     2.934332
      px      :     0.921250
      py      :     0.992310
      dz2     :     0.003387  d :     0.039118
      dxz     :     0.006730
      dyz     :     0.003425
      dx2y2   :     0.011865
      dxy     :     0.013711
  8 C s       :     3.259126  s :     3.259126
      pz      :     0.966367  p :     2.927521
      px      :     1.012372
      py      :     0.948783
      dz2     :     0.003944  d :     0.040380
      dxz     :     0.004063
      dyz     :     0.005530
      dx2y2   :     0.011588
      dxy     :     0.015254
  9 C s       :     3.243404  s :     3.243404
      pz      :     0.993536  p :     2.924455
      px      :     1.013089
      py      :     0.917829
      dz2     :     0.003719  d :     0.039752
      dxz     :     0.003300
      dyz     :     0.006267
      dx2y2   :     0.013192
      dxy     :     0.013274
 10 C s       :     3.255031  s :     3.255031
      pz      :     0.977300  p :     2.935056
      px      :     0.908071
      py      :     1.049685
      dz2     :     0.004007  d :     0.039989
      dxz     :     0.006793
      dyz     :     0.002679
      dx2y2   :     0.015183
      dxy     :     0.011326
 11 C s       :     3.242984  s :     3.242984
      pz      :     0.991523  p :     2.923205
      px      :     0.980704
      py      :     0.950978
      dz2     :     0.003947  d :     0.039695
      dxz     :     0.004079
      dyz     :     0.005169
      dx2y2   :     0.011314
      dxy     :     0.015186
 12 C s       :     3.283505  s :     3.283505
      pz      :     0.970078  p :     2.942256
      px      :     1.063689
      py      :     0.908490
      dz2     :     0.003800  d :     0.040419
      dxz     :     0.003174
      dyz     :     0.006560
      dx2y2   :     0.013612
      dxy     :     0.013273
 13 C s       :     3.232036  s :     3.232036
      pz      :     0.938463  p :     2.915918
      px      :     0.965257
      py      :     1.012199
      dz2     :     0.010805  d :     0.039124
      dxz     :     0.010330
      dyz     :     0.007131
      dx2y2   :     0.005846
      dxy     :     0.005012
 14 C s       :     3.266468  s :     3.266468
      pz      :     1.084579  p :     2.938343
      px      :     0.895407
      py      :     0.958357
      dz2     :     0.012951  d :     0.040117
      dxz     :     0.009574
      dyz     :     0.004684
      dx2y2   :     0.006559
      dxy     :     0.006350
 15 C s       :     3.240610  s :     3.240610
      pz      :     0.915282  p :     2.920928
      px      :     1.007279
      py      :     0.998367
      dz2     :     0.010637  d :     0.039895
      dxz     :     0.011745
      dyz     :     0.007894
      dx2y2   :     0.003873
      dxy     :     0.005746
 16 C s       :     3.254757  s :     3.254757
      pz      :     0.958632  p :     2.941796
      px      :     0.996995
      py      :     0.986169
      dz2     :     0.009374  d :     0.039893
      dxz     :     0.013062
      dyz     :     0.007483
      dx2y2   :     0.004712
      dxy     :     0.005263
 17 C s       :     3.241807  s :     3.241807
      pz      :     1.029446  p :     2.920986
      px      :     0.920168
      py      :     0.971372
      dz2     :     0.013001  d :     0.039917
      dxz     :     0.009349
      dyz     :     0.004599
      dx2y2   :     0.006623
      dxy     :     0.006345
 18 C s       :     3.274116  s :     3.274116
      pz      :     0.923661  p :     2.944659
      px      :     1.027181
      py      :     0.993817
      dz2     :     0.010746  d :     0.040263
      dxz     :     0.011882
      dyz     :     0.007877
      dx2y2   :     0.004009
      dxy     :     0.005751
 19 H s       :     0.750816  s :     0.750816
 20 H s       :     0.779731  s :     0.779731
 21 H s       :     0.779005  s :     0.779005
 22 H s       :     0.779023  s :     0.779023
 23 H s       :     0.770127  s :     0.770127
 24 H s       :     0.745821  s :     0.745821
 25 H s       :     0.777709  s :     0.777709
 26 H s       :     0.776467  s :     0.776467
 27 H s       :     0.777500  s :     0.777500
 28 H s       :     0.766866  s :     0.766866
 29 H s       :     0.765381  s :     0.765381
 30 H s       :     0.777431  s :     0.777431
 31 H s       :     0.777209  s :     0.777209
 32 H s       :     0.778558  s :     0.778558
 33 H s       :     0.751506  s :     0.751506


                     *******************************
                     * LOEWDIN POPULATION ANALYSIS *
                     *******************************

----------------------
LOEWDIN ATOMIC CHARGES
----------------------
   0 C :   -0.132523
   1 C :   -0.186907
   2 C :   -0.133118
   3 C :   -0.135278
   4 C :   -0.131454
   5 C :   -0.134300
   6 P :    0.458578
   7 C :   -0.191006
   8 C :   -0.129330
   9 C :   -0.136175
  10 C :   -0.127084
  11 C :   -0.135921
  12 C :   -0.129031
  13 C :   -0.183538
  14 C :   -0.138953
  15 C :   -0.134774
  16 C :   -0.133457
  17 C :   -0.133967
  18 C :   -0.130036
  19 H :    0.147432
  20 H :    0.136510
  21 H :    0.136223
  22 H :    0.137075
  23 H :    0.139846
  24 H :    0.147464
  25 H :    0.137511
  26 H :    0.137230
  27 H :    0.137805
  28 H :    0.141325
  29 H :    0.141223
  30 H :    0.137788
  31 H :    0.136950
  32 H :    0.137077
  33 H :    0.146816

-------------------------------
LOEWDIN REDUCED ORBITAL CHARGES
-------------------------------
  0 C s       :     2.892826  s :     2.892826
      pz      :     1.067548  p :     3.148156
      px      :     1.000416
      py      :     1.080192
      dz2     :     0.024586  d :     0.091541
      dxz     :     0.017054
      dyz     :     0.024601
      dx2y2   :     0.014495
      dxy     :     0.010805
  1 C s       :     2.899353  s :     2.899353
      pz      :     1.082524  p :     3.194385
      px      :     1.023904
      py      :     1.087958
      dz2     :     0.019488  d :     0.093169
      dxz     :     0.014064
      dyz     :     0.024630
      dx2y2   :     0.018331
      dxy     :     0.016656
  2 C s       :     2.892730  s :     2.892730
      pz      :     1.066616  p :     3.148608
      px      :     1.010320
      py      :     1.071672
      dz2     :     0.019235  d :     0.091780
      dxz     :     0.014188
      dyz     :     0.030281
      dx2y2   :     0.012403
      dxy     :     0.015674
  3 C s       :     2.892245  s :     2.892245
      pz      :     1.069451  p :     3.152428
      px      :     1.014033
      py      :     1.068944
      dz2     :     0.023561  d :     0.090604
      dxz     :     0.016821
      dyz     :     0.024539
      dx2y2   :     0.014774
      dxy     :     0.010909
  4 C s       :     2.893783  s :     2.893783
      pz      :     1.060110  p :     3.147375
      px      :     1.008374
      py      :     1.078892
      dz2     :     0.019078  d :     0.090295
      dxz     :     0.010642
      dyz     :     0.025556
      dx2y2   :     0.017340
      dxy     :     0.017678
  5 C s       :     2.892085  s :     2.892085
      pz      :     1.066463  p :     3.151479
      px      :     1.009841
      py      :     1.075175
      dz2     :     0.019587  d :     0.090735
      dxz     :     0.013483
      dyz     :     0.029400
      dx2y2   :     0.012701
      dxy     :     0.015565
  6 P s       :     5.279649  s :     5.279649
      pz      :     2.837322  p :     9.010165
      px      :     3.327163
      py      :     2.845680
      dz2     :     0.060626  d :     0.251608
      dxz     :     0.057569
      dyz     :     0.042697
      dx2y2   :     0.058100
      dxy     :     0.032615
  7 C s       :     2.899251  s :     2.899251
      pz      :     0.999682  p :     3.198594
      px      :     1.108394
      py      :     1.090519
      dz2     :     0.006648  d :     0.093161
      dxz     :     0.014001
      dyz     :     0.005854
      dx2y2   :     0.031713
      dxy     :     0.034945
  8 C s       :     2.894141  s :     2.894141
      pz      :     0.969484  p :     3.143487
      px      :     1.084432
      py      :     1.089571
      dz2     :     0.006681  d :     0.091702
      dxz     :     0.007868
      dyz     :     0.011044
      dx2y2   :     0.029319
      dxy     :     0.036790
  9 C s       :     2.892355  s :     2.892355
      pz      :     0.985166  p :     3.153344
      px      :     1.078836
      py      :     1.089343
      dz2     :     0.006261  d :     0.090476
      dxz     :     0.005525
      dyz     :     0.012977
      dx2y2   :     0.032679
      dxy     :     0.033034
 10 C s       :     2.894222  s :     2.894222
      pz      :     0.972302  p :     3.142549
      px      :     1.090038
      py      :     1.080209
      dz2     :     0.006658  d :     0.090313
      dxz     :     0.014275
      dyz     :     0.004300
      dx2y2   :     0.035877
      dxy     :     0.029204
 11 C s       :     2.892343  s :     2.892343
      pz      :     0.985624  p :     3.153406
      px      :     1.081775
      py      :     1.086007
      dz2     :     0.006609  d :     0.090172
      dxz     :     0.007684
      dyz     :     0.010364
      dx2y2   :     0.029376
      dxy     :     0.036139
 12 C s       :     2.894989  s :     2.894989
      pz      :     0.969173  p :     3.142280
      px      :     1.083352
      py      :     1.089755
      dz2     :     0.006317  d :     0.091762
      dxz     :     0.005527
      dyz     :     0.013547
      dx2y2   :     0.033364
      dxy     :     0.033007
 13 C s       :     2.900727  s :     2.900727
      pz      :     1.094708  p :     3.190116
      px      :     1.075842
      py      :     1.019566
      dz2     :     0.027170  d :     0.092695
      dxz     :     0.026974
      dyz     :     0.015898
      dx2y2   :     0.012005
      dxy     :     0.010648
 14 C s       :     2.892956  s :     2.892956
      pz      :     1.091359  p :     3.154882
      px      :     1.056789
      py      :     1.006735
      dz2     :     0.027199  d :     0.091114
      dxz     :     0.023754
      dyz     :     0.009836
      dx2y2   :     0.014677
      dxy     :     0.015649
 15 C s       :     2.892127  s :     2.892127
      pz      :     1.089358  p :     3.151897
      px      :     1.058106
      py      :     1.004432
      dz2     :     0.027966  d :     0.090751
      dxz     :     0.028554
      dyz     :     0.017418
      dx2y2   :     0.006678
      dxy     :     0.010135
 16 C s       :     2.893531  s :     2.893531
      pz      :     1.087889  p :     3.149713
      px      :     1.058565
      py      :     1.003259
      dz2     :     0.024224  d :     0.090213
      dxz     :     0.030338
      dyz     :     0.016380
      dx2y2   :     0.008913
      dxy     :     0.010359
 17 C s       :     2.892118  s :     2.892118
      pz      :     1.078920  p :     3.151247
      px      :     1.065727
      py      :     1.006600
      dz2     :     0.027188  d :     0.090602
      dxz     :     0.023788
      dyz     :     0.009731
      dx2y2   :     0.014688
      dxy     :     0.015206
 18 C s       :     2.891853  s :     2.891853
      pz      :     1.083567  p :     3.146697
      px      :     1.063732
      py      :     0.999399
      dz2     :     0.028277  d :     0.091487
      dxz     :     0.028786
      dyz     :     0.017456
      dx2y2   :     0.006977
      dxy     :     0.009991
 19 H s       :     0.852568  s :     0.852568
 20 H s       :     0.863490  s :     0.863490
 21 H s       :     0.863777  s :     0.863777
 22 H s       :     0.862925  s :     0.862925
 23 H s       :     0.860154  s :     0.860154
 24 H s       :     0.852536  s :     0.852536
 25 H s       :     0.862489  s :     0.862489
 26 H s       :     0.862770  s :     0.862770
 27 H s       :     0.862195  s :     0.862195
 28 H s       :     0.858675  s :     0.858675
 29 H s       :     0.858777  s :     0.858777
 30 H s       :     0.862212  s :     0.862212
 31 H s       :     0.863050  s :     0.863050
 32 H s       :     0.862923  s :     0.862923
 33 H s       :     0.853184  s :     0.853184


                      *****************************
                      * MAYER POPULATION ANALYSIS *
                      *****************************

  NA   - Mulliken gross atomic population
  ZA   - Total nuclear charge
  QA   - Mulliken gross atomic charge
  VA   - Mayer's total valence
  BVA  - Mayer's bonded valence
  FA   - Mayer's free valence

  ATOM       NA         ZA         QA         VA         BVA        FA
  0 C      6.2290     6.0000    -0.2290     3.7963     3.7963    -0.0000
  1 C      6.2136     6.0000    -0.2136     3.7532     3.7532    -0.0000
  2 C      6.2589     6.0000    -0.2589     3.8102     3.8102    -0.0000
  3 C      6.2071     6.0000    -0.2071     3.8161     3.8161    -0.0000
  4 C      6.2337     6.0000    -0.2337     3.8171     3.8171     0.0000
  5 C      6.2038     6.0000    -0.2038     3.8144     3.8144    -0.0000
  6 P     14.4266    15.0000     0.5734     2.9009     2.9009    -0.0000
  7 C      6.2058     6.0000    -0.2058     3.7609     3.7609     0.0000
  8 C      6.2270     6.0000    -0.2270     3.7850     3.7850    -0.0000
  9 C      6.2076     6.0000    -0.2076     3.8171     3.8171     0.0000
 10 C      6.2301     6.0000    -0.2301     3.8185     3.8185     0.0000
 11 C      6.2059     6.0000    -0.2059     3.8119     3.8119     0.0000
 12 C      6.2662     6.0000    -0.2662     3.8176     3.8176     0.0000
 13 C      6.1871     6.0000    -0.1871     3.7514     3.7514     0.0000
 14 C      6.2449     6.0000    -0.2449     3.8045     3.8045     0.0000
 15 C      6.2014     6.0000    -0.2014     3.8171     3.8171     0.0000
 16 C      6.2364     6.0000    -0.2364     3.8208     3.8208     0.0000
 17 C      6.2027     6.0000    -0.2027     3.8178     3.8178    -0.0000
 18 C      6.2590     6.0000    -0.2590     3.8123     3.8123     0.0000
 19 H      0.7508     1.0000     0.2492     0.8986     0.8986    -0.0000
 20 H      0.7797     1.0000     0.2203     0.9110     0.9110    -0.0000
 21 H      0.7790     1.0000     0.2210     0.9113     0.9113    -0.0000
 22 H      0.7790     1.0000     0.2210     0.9108     0.9108    -0.0000
 23 H      0.7701     1.0000     0.2299     0.9150     0.9150     0.0000
 24 H      0.7458     1.0000     0.2542     0.8995     0.8995    -0.0000
 25 H      0.7777     1.0000     0.2223     0.9107     0.9107     0.0000
 26 H      0.7765     1.0000     0.2235     0.9103     0.9103     0.0000
 27 H      0.7775     1.0000     0.2225     0.9104     0.9104     0.0000
 28 H      0.7669     1.0000     0.2331     0.9142     0.9142    -0.0000
 29 H      0.7654     1.0000     0.2346     0.9122     0.9122    -0.0000
 30 H      0.7774     1.0000     0.2226     0.9105     0.9105    -0.0000
 31 H      0.7772     1.0000     0.2228     0.9107     0.9107    -0.0000
 32 H      0.7786     1.0000     0.2214     0.9108     0.9108     0.0000
 33 H      0.7515     1.0000     0.2485     0.9004     0.9004    -0.0000

  Mayer bond orders larger than 0.100000
B(  0-C ,  1-C ) :   1.3841 B(  0-C ,  5-C ) :   1.4297 B(  0-C , 33-H ) :   0.9026 
B(  1-C ,  2-C ) :   1.3753 B(  1-C ,  6-P ) :   0.9333 B(  2-C ,  3-C ) :   1.4424 
B(  2-C , 29-H ) :   0.9130 B(  3-C ,  4-C ) :   1.4145 B(  3-C , 30-H ) :   0.9188 
B(  4-C ,  5-C ) :   1.4242 B(  4-C , 31-H ) :   0.9185 B(  5-C , 32-H ) :   0.9192 
B(  6-P ,  7-C ) :   0.9458 B(  6-P , 13-C ) :   0.9380 B(  7-C ,  8-C ) :   1.3653 
B(  7-C , 12-C ) :   1.3931 B(  8-C ,  9-C ) :   1.4416 B(  8-C , 24-H ) :   0.9000 
B(  9-C , 10-C ) :   1.4158 B(  9-C , 25-H ) :   0.9190 B( 10-C , 11-C ) :   1.4243 
B( 10-C , 26-H ) :   0.9183 B( 11-C , 12-C ) :   1.4300 B( 11-C , 27-H ) :   0.9188 
B( 12-C , 28-H ) :   0.9155 B( 13-C , 14-C ) :   1.3896 B( 13-C , 18-C ) :   1.3665 
B( 14-C , 15-C ) :   1.4262 B( 14-C , 19-H ) :   0.9040 B( 15-C , 16-C ) :   1.4309 
B( 15-C , 20-H ) :   0.9194 B( 16-C , 17-C ) :   1.4091 B( 16-C , 21-H ) :   0.9188 
B( 17-C , 18-C ) :   1.4516 B( 17-C , 22-H ) :   0.9191 B( 18-C , 23-H ) :   0.9146 


-------
TIMINGS
-------

Total SCF time: 0 days 0 hours 5 min 3 sec 

Total time                  ....     303.509 sec
Sum of individual times     ....     297.018 sec  ( 97.9%)

Fock matrix formation       ....     271.646 sec  ( 89.5%)
  Split-RI-J                ....      18.303 sec  (  6.7% of F)
  Chain of spheres X        ....     198.345 sec  ( 73.0% of F)
  XC integration            ....      42.170 sec  ( 15.5% of F)
    Basis function eval.    ....      12.936 sec  ( 30.7% of XC)
    Density eval.           ....       8.210 sec  ( 19.5% of XC)
    XC-Functional eval.     ....       3.104 sec  (  7.4% of XC)
    XC-Potential eval.      ....       4.695 sec  ( 11.1% of XC)
Diagonalization             ....       0.951 sec  (  0.3%)
Density matrix formation    ....       0.494 sec  (  0.2%)
Population analysis         ....       0.351 sec  (  0.1%)
Initial guess               ....       0.201 sec  (  0.1%)
Orbital Transformation      ....       0.000 sec  (  0.0%)
Orbital Orthonormalization  ....       0.000 sec  (  0.0%)
DIIS solution               ....       1.751 sec  (  0.6%)
SOSCF solution              ....       2.131 sec  (  0.7%)
Grid generation             ....      19.491 sec  (  6.4%)

Maximum memory used throughout the entire SCF-calculation: 102.9 MB


-------------------------------------------------------------------------------
                          DFT DISPERSION CORRECTION                            
                                                                               
                              DFTD3 V3.1  Rev 1                                
                          USING Becke-Johnson damping                          
-------------------------------------------------------------------------------
The PBEh-3c composite method is recognized
Using three-body term ABC
Active option DFTDOPT                   ...         4   

molecular C6(AA) [au] = 16553.943193 


            DFT-D V3
 parameters
 s6 scaling factor         :     1.0000 
 a1 scaling factor         :     0.4860 
 s8 scaling factor         :     0.0000 
 a2 scaling factor         :     4.5000 
 Damping factor alpha9(ATM):    16.0000 
 ad hoc parameters k1-k3   :    16.0000     1.3333    -4.0000 

 Edisp/kcal,au: -17.139070087482  -0.027312843818 
 E6   /kcal   : -17.259557872 
 E8   /kcal   :  -0.000000000 
 E6(ABC)      :   0.120487785 
 % E8         :   0.000000000 
 % E6(ABC)    :  -0.703000712 

-------------------------   ----------------
Dispersion correction           -0.027312844
-------------------------   ----------------

------------------   -----------------
gCP correction             0.044432034
------------------   -----------------

-------------------------   --------------------
FINAL SINGLE POINT ENERGY     -1034.358214312783
-------------------------   --------------------


                            ***************************************
                            *     ORCA property calculations      *
                            ***************************************

                                    ---------------------
                                    Active property flags
                                    ---------------------
   (+) Dipole Moment


------------------------------------------------------------------------------
                       ORCA ELECTRIC PROPERTIES CALCULATION
------------------------------------------------------------------------------

Dipole Moment Calculation                       ... on
Quadrupole Moment Calculation                   ... off
Polarizability Calculation                      ... off
GBWName                                         ... pbeh-3c.gbw
Electron density                                ... pbeh-3c.scfp
The origin for moment calculation is the CENTER OF MASS  = (-3.248804,  4.538486  0.424803)

-------------
DIPOLE MOMENT
-------------
                                X             Y             Z
Electronic contribution:      5.18719      -1.30178       1.00995
Nuclear contribution   :     -5.76268       1.55222      -1.15209
                        -----------------------------------------
Total Dipole Moment    :     -0.57549       0.25044      -0.14214
                        -----------------------------------------
Magnitude (a.u.)       :      0.64352
Magnitude (Debye)      :      1.63569



--------------------
Rotational spectrum 
--------------------
 
Rotational constants in cm-1:     0.012568     0.011416     0.007135 
Rotational constants in MHz :   376.787126   342.228479   213.912104 

 Dipole components along the rotational axes: 
x,y,z [a.u.] :     0.053078    -0.016819    -0.641105 
x,y,z [Debye]:     0.134915    -0.042750    -1.629560 

 

Timings for individual modules:

Sum of individual times         ...      308.597 sec (=   5.143 min)
GTO integral calculation        ...        4.027 sec (=   0.067 min)   1.3 %
SCF iterations                  ...      304.570 sec (=   5.076 min)  98.7 %
                             ****ORCA TERMINATED NORMALLY****
TOTAL RUN TIME: 0 days 0 hours 5 minutes 10 seconds 321 msec
