
                                 *****************
                                 * O   R   C   A *
                                 *****************

                                            #,                                       
                                            ###                                      
                                            ####                                     
                                            #####                                    
                                            ######                                   
                                           ########,                                 
                                     ,,################,,,,,                         
                               ,,#################################,,                 
                          ,,##########################################,,             
                       ,#########################################, ''#####,          
                    ,#############################################,,   '####,        
                  ,##################################################,,,,####,       
                ,###########''''           ''''###############################       
              ,#####''   ,,,,##########,,,,          '''####'''          '####       
            ,##' ,,,,###########################,,,                        '##       
           ' ,,###''''                  '''############,,,                           
         ,,##''                                '''############,,,,        ,,,,,,###''
      ,#''                                            '''#######################'''  
     '                                                          ''''####''''         
             ,#######,   #######,   ,#######,      ##                                
            ,#'     '#,  ##    ##  ,#'     '#,    #''#        ######   ,####,        
            ##       ##  ##   ,#'  ##            #'  '#       #        #'  '#        
            ##       ##  #######   ##           ,######,      #####,   #    #        
            '#,     ,#'  ##    ##  '#,     ,#' ,#      #,         ##   #,  ,#        
             '#######'   ##     ##  '#######'  #'      '#     #####' # '####'        



                  #######################################################
                  #                        -***-                        #
                  #          Department of theory and spectroscopy      #
                  #    Directorship and core code : Frank Neese         #
                  #        Max Planck Institute fuer Kohlenforschung    #
                  #                Kaiser Wilhelm Platz 1               #
                  #                 D-45470 Muelheim/Ruhr               #
                  #                      Germany                        #
                  #                                                     #
                  #                  All rights reserved                #
                  #                        -***-                        #
                  #######################################################


                         Program Version 5.0.3 -  RELEASE  -


 With contributions from (in alphabetic order):
   Daniel Aravena         : Magnetic Suceptibility
   Michael Atanasov       : Ab Initio Ligand Field Theory (pilot matlab implementation)
   Alexander A. Auer      : GIAO ZORA, VPT2 properties, NMR spectrum
   Ute Becker             : Parallelization
   Giovanni Bistoni       : ED, misc. LED, open-shell LED, HFLD
   Martin Brehm           : Molecular dynamics
   Dmytro Bykov           : SCF Hessian
   Vijay G. Chilkuri      : MRCI spin determinant printing, contributions to CSF-ICE
   Dipayan Datta          : RHF DLPNO-CCSD density
   Achintya Kumar Dutta   : EOM-CC, STEOM-CC
   Dmitry Ganyushin       : Spin-Orbit,Spin-Spin,Magnetic field MRCI
   Miquel Garcia          : C-PCM and meta-GGA Hessian, CC/C-PCM, Gaussian charge scheme
   Yang Guo               : DLPNO-NEVPT2, F12-NEVPT2, CIM, IAO-localization
   Andreas Hansen         : Spin unrestricted coupled pair/coupled cluster methods
   Benjamin Helmich-Paris : MC-RPA, TRAH-SCF, COSX integrals
   Lee Huntington         : MR-EOM, pCC
   Robert Izsak           : Overlap fitted RIJCOSX, COSX-SCS-MP3, EOM
   Marcus Kettner         : VPT2
   Christian Kollmar      : KDIIS, OOCD, Brueckner-CCSD(T), CCSD density, CASPT2, CASPT2-K
   Simone Kossmann        : Meta GGA functionals, TD-DFT gradient, OOMP2, MP2 Hessian
   Martin Krupicka        : Initial AUTO-CI
   Lucas Lang             : DCDCAS
   Marvin Lechner         : AUTO-CI (C++ implementation), FIC-MRCC
   Dagmar Lenk            : GEPOL surface, SMD
   Dimitrios Liakos       : Extrapolation schemes; Compound Job, initial MDCI parallelization
   Dimitrios Manganas     : Further ROCIS development; embedding schemes
   Dimitrios Pantazis     : SARC Basis sets
   Anastasios Papadopoulos: AUTO-CI, single reference methods and gradients
   Taras Petrenko         : DFT Hessian,TD-DFT gradient, ASA, ECA, R-Raman, ABS, FL, XAS/XES, NRVS
   Peter Pinski           : DLPNO-MP2, DLPNO-MP2 Gradient
   Christoph Reimann      : Effective Core Potentials
   Marius Retegan         : Local ZFS, SOC
   Christoph Riplinger    : Optimizer, TS searches, QM/MM, DLPNO-CCSD(T), (RO)-DLPNO pert. Triples
   Tobias Risthaus        : Range-separated hybrids, TD-DFT gradient, RPA, STAB
   Michael Roemelt        : Original ROCIS implementation
   Masaaki Saitow         : Open-shell DLPNO-CCSD energy and density
   Barbara Sandhoefer     : DKH picture change effects
   Avijit Sen             : IP-ROCIS
   Kantharuban Sivalingam : CASSCF convergence, NEVPT2, FIC-MRCI
   Bernardo de Souza      : ESD, SOC TD-DFT
   Georgi Stoychev        : AutoAux, RI-MP2 NMR, DLPNO-MP2 response
   Willem Van den Heuvel  : Paramagnetic NMR
   Boris Wezisla          : Elementary symmetry handling
   Frank Wennmohs         : Technical directorship


 We gratefully acknowledge several colleagues who have allowed us to
 interface, adapt or use parts of their codes:
   Stefan Grimme, W. Hujo, H. Kruse, P. Pracht,  : VdW corrections, initial TS optimization,
                  C. Bannwarth, S. Ehlert          DFT functionals, gCP, sTDA/sTD-DF
   Ed Valeev, F. Pavosevic, A. Kumar             : LibInt (2-el integral package), F12 methods
   Garnet Chan, S. Sharma, J. Yang, R. Olivares  : DMRG
   Ulf Ekstrom                                   : XCFun DFT Library
   Mihaly Kallay                                 : mrcc  (arbitrary order and MRCC methods)
   Jiri Pittner, Ondrej Demel                    : Mk-CCSD
   Frank Weinhold                                : gennbo (NPA and NBO analysis)
   Christopher J. Cramer and Donald G. Truhlar   : smd solvation model
   Lars Goerigk                                  : TD-DFT with DH, B97 family of functionals
   V. Asgeirsson, H. Jonsson                     : NEB implementation
   FAccTs GmbH                                   : IRC, NEB, NEB-TS, DLPNO-Multilevel, CI-OPT
                                                   MM, QMMM, 2- and 3-layer-ONIOM, Crystal-QMMM,
                                                   LR-CPCM, SF, NACMEs, symmetry and pop. for TD-DFT,
                                                   nearIR, NL-DFT gradient (VV10), updates on ESD,
                                                   ML-optimized integration grids
   S Lehtola, MJT Oliveira, MAL Marques          : LibXC Library
   Liviu Ungur et al                             : ANISO software


 Your calculation uses the libint2 library for the computation of 2-el integrals
 For citations please refer to: http://libint.valeyev.net

 Your ORCA version has been built with support for libXC version: 5.1.0
 For citations please refer to: https://tddft.org/programs/libxc/

 This ORCA versions uses:
   CBLAS   interface :  Fast vector & matrix operations
   LAPACKE interface :  Fast linear algebra routines
   SCALAPACK package :  Parallel linear algebra routines
   Shared memory     :  Shared parallel matrices
   BLAS/LAPACK       :  OpenBLAS 0.3.15  USE64BITINT DYNAMIC_ARCH NO_AFFINITY Haswell SINGLE_THREADED
        Core in use  :  Haswell
   Copyright (c) 2011-2014, The OpenBLAS Project




***************************************
The coordinates will be read from file: 7b.xyz
***************************************


Your calculation utilizes the geometrical counterpoise correction gCP
Please cite in your paper:
H.Kruse, S. Grimme J.Chem.Phys., 136, (2012), 154101 
   

Your calculation utilizes the atom-pairwise dispersion correction
with the Becke-Johnson damping scheme (D3BJ)
Cite in your paper:
S.Grimme, S.Ehrlich, L.Goerigk, J Comput Chem, (2011), 32, 1456–1465 
S.Grimme, J.Antony, S.Ehrlich and H.Krieg, J.Chem.Phys., 132, (2010), 154104 
   

Your calculation employs the composite approach PBEh-3c.
Please cite in your paper:
S. Grimme, J. G. Brandenburg, C. Bannwarth, A. Hansen J.Chem.Phys., 143, (2015), 054107 
   

================================================================================

----- Orbital basis set information -----
Your calculation utilizes the basis: def2-mSVP

----- AuxJ basis set information -----
Your calculation utilizes the auxiliary basis: def2/J
   F. Weigend, Phys. Chem. Chem. Phys. 8, 1057 (2006).

================================================================================
                                        WARNINGS
                       Please study these warnings very carefully!
================================================================================


INFO   : the flag for use of the SHARK integral package has been found!

================================================================================
                                       INPUT FILE
================================================================================
NAME = pbeh-3c.inp
|  1> ! PBEh-3c def2/J TightSCF DefGrid3
|  2> 
|  3> %maxcore 60000
|  4> 
|  5> %pal
|  6> nprocs 4
|  7> end
|  8> 
|  9> *xyzfile 0 1 7b.xyz
| 10> 
| 11>                          ****END OF INPUT****
================================================================================

                       ****************************
                       * Single Point Calculation *
                       ****************************

---------------------------------
CARTESIAN COORDINATES (ANGSTROEM)
---------------------------------
  N     -0.722195    0.277844    0.000000
  N      0.025649    1.387254    0.000000
  N      1.266402    0.977392    0.000000
  N      1.330044   -0.376570    0.000000
  C      0.081369   -0.795856    0.000000
  H     -1.725822    0.345080    0.000000
  H     -0.255446   -1.815143    0.000000

----------------------------
CARTESIAN COORDINATES (A.U.)
----------------------------
  NO LB      ZA    FRAG     MASS         X           Y           Z
   0 N     7.0000    0    14.007   -1.364752    0.525049    0.000000
   1 N     7.0000    0    14.007    0.048469    2.621530    0.000000
   2 N     7.0000    0    14.007    2.393152    1.847002    0.000000
   3 N     7.0000    0    14.007    2.513419   -0.711615    0.000000
   4 C     6.0000    0    12.011    0.153766   -1.503951    0.000000
   5 H     1.0000    0     1.008   -3.261332    0.652107    0.000000
   6 H     1.0000    0     1.008   -0.482723   -3.430122    0.000000

--------------------------------
INTERNAL COORDINATES (ANGSTROEM)
--------------------------------
 N      0   0   0     0.000000000000     0.00000000     0.00000000
 N      1   0   0     1.337931770779     0.00000000     0.00000000
 N      2   1   0     1.306696100811   105.70347953     0.00000000
 N      3   2   1     1.355456726124   110.97130511     0.00000000
 C      4   3   2     1.317190099235   105.87008874     0.00000000
 H      1   2   3     1.005876663274   120.15089170   180.00000000
 H      5   4   3     1.073493719387   126.84704514   180.00000000

---------------------------
INTERNAL COORDINATES (A.U.)
---------------------------
 N      0   0   0     0.000000000000     0.00000000     0.00000000
 N      1   0   0     2.528324632645     0.00000000     0.00000000
 N      2   1   0     2.469297770796   105.70347953     0.00000000
 N      3   2   1     2.561441998755   110.97130511     0.00000000
 C      4   3   2     2.489128553867   105.87008874     0.00000000
 H      1   2   3     1.900831418091   120.15089170   180.00000000
 H      5   4   3     2.028609136125   126.84704514   180.00000000

---------------------
BASIS SET INFORMATION
---------------------
There are 3 groups of distinct atoms

 Group   1 Type N   : 8s4p1d contracted to 4s2p1d pattern {5111/31/1}
 Group   2 Type C   : 8s4p1d contracted to 4s2p1d pattern {5111/31/1}
 Group   3 Type H   : 4s contracted to 2s pattern {31}

Atom   0N    basis set group =>   1
Atom   1N    basis set group =>   1
Atom   2N    basis set group =>   1
Atom   3N    basis set group =>   1
Atom   4C    basis set group =>   2
Atom   5H    basis set group =>   3
Atom   6H    basis set group =>   3
---------------------------------
AUXILIARY/J BASIS SET INFORMATION
---------------------------------
There are 3 groups of distinct atoms

 Group   1 Type N   : 12s5p4d2f1g contracted to 6s4p3d1f1g pattern {711111/2111/211/2/1}
 Group   2 Type C   : 12s5p4d2f1g contracted to 6s4p3d1f1g pattern {711111/2111/211/2/1}
 Group   3 Type H   : 5s2p1d contracted to 3s1p1d pattern {311/2/1}

Atom   0N    basis set group =>   1
Atom   1N    basis set group =>   1
Atom   2N    basis set group =>   1
Atom   3N    basis set group =>   1
Atom   4C    basis set group =>   2
Atom   5H    basis set group =>   3
Atom   6H    basis set group =>   3


           ************************************************************
           *        Program running with 4 parallel MPI-processes     *
           *              working on a common directory               *
           ************************************************************
------------------------------------------------------------------------------
                           ORCA GTO INTEGRAL CALCULATION
                           -- RI-GTO INTEGRALS CHOSEN --
------------------------------------------------------------------------------
------------------------------------------------------------------------------
                   ___                                                        
                  /   \      - P O W E R E D   B Y -                         
                 /     \                                                     
                 |  |  |   _    _      __       _____    __    __             
                 |  |  |  | |  | |    /  \     |  _  \  |  |  /  |          
                  \  \/   | |  | |   /    \    | | | |  |  | /  /          
                 / \  \   | |__| |  /  /\  \   | |_| |  |  |/  /          
                |  |  |   |  __  | /  /__\  \  |    /   |      \           
                |  |  |   | |  | | |   __   |  |    \   |  |\   \          
                \     /   | |  | | |  |  |  |  | |\  \  |  | \   \       
                 \___/    |_|  |_| |__|  |__|  |_| \__\ |__|  \__/        
                                                                              
                      - O R C A' S   B I G   F R I E N D -                    
                                      &                                       
                       - I N T E G R A L  F E E D E R -                       
                                                                              
 v1 FN, 2020, v2 2021                                                         
------------------------------------------------------------------------------


Reading SHARK input file pbeh-3c.SHARKINP.tmp ... ok
----------------------
SHARK INTEGRAL PACKAGE
----------------------

Number of atoms                             ...      7
Number of basis functions                   ...     79
Number of shells                            ...     39
Maximum angular momentum                    ...      2
Integral batch strategy                     ... SHARK/LIBINT Hybrid
RI-J (if used) integral strategy            ... SPLIT-RIJ (Revised 2003 algorithm where possible)
Printlevel                                  ...      1
Contraction scheme used                     ... SEGMENTED contraction
Coulomb Range Separation                    ... NOT USED
Exchange Range Separation                   ... NOT USED
Finite Nucleus Model                        ... NOT USED
Auxiliary Coulomb fitting basis             ... AVAILABLE
   # of basis functions in Aux-J            ...    267
   # of shells in Aux-J                     ...     85
   Maximum angular momentum in Aux-J        ...      4
Auxiliary J/K fitting basis                 ... NOT available
Auxiliary Correlation fitting basis         ... NOT available
Auxiliary 'external' fitting basis          ... NOT available
Integral threshold                          ...     2.500000e-11
Primitive cut-off                           ...     2.500000e-12
Primitive pair pre-selection threshold      ...     2.500000e-12

Calculating pre-screening integrals         ... done (  0.0 sec) Dimension = 39
Organizing shell pair data                  ... done (  0.1 sec)
Shell pair information
Total number of shell pairs                 ...       780
Shell pairs after pre-screening             ...       755
Total number of primitive shell pairs       ...      2772
Primitive shell pairs kept                  ...      2129
          la=0 lb=0:    275 shell pairs
          la=1 lb=0:    240 shell pairs
          la=1 lb=1:     55 shell pairs
          la=2 lb=0:    120 shell pairs
          la=2 lb=1:     50 shell pairs
          la=2 lb=2:     15 shell pairs

Calculating one electron integrals          ... done (  0.0 sec)
Calculating RI/J V-Matrix + Cholesky decomp.... done (  0.1 sec)
Calculating Nuclear repulsion               ... done (  0.0 sec) ENN=    166.867420297206 Eh

SHARK setup successfully completed in   0.7 seconds

Maximum memory used throughout the entire GTOINT-calculation: 9.5 MB


           ************************************************************
           *        Program running with 4 parallel MPI-processes     *
           *              working on a common directory               *
           ************************************************************
-------------------------------------------------------------------------------
                                 ORCA SCF
-------------------------------------------------------------------------------

------------
SCF SETTINGS
------------
Hamiltonian:
 Density Functional     Method          .... DFT(GTOs)
 Exchange Functional    Exchange        .... PBE
   PBE kappa parameter   XKappa         ....  1.024500
   PBE mue parameter    XMuePBE         ....  0.123457
 Correlation Functional Correlation     .... PBE
   PBE beta parameter  CBetaPBE         ....  0.030000
 LDA part of GGA corr.  LDAOpt          .... PW91-LDA
 Gradients option       PostSCFGGA      .... off
 Hybrid DFT is turned on
   Fraction HF Exchange ScalHFX         ....  0.420000
   Scaling of DF-GGA-X  ScalDFX         ....  0.580000
   Scaling of DF-GGA-C  ScalDFC         ....  1.000000
   Scaling of DF-LDA-C  ScalLDAC        ....  1.000000
   Perturbative correction              ....  0.000000
   Density functional embedding theory  .... OFF
 RI-approximation to the Coulomb term is turned on
   Number of AuxJ basis functions       .... 267
   RIJ-ON(X) (HFX calculated with O(N)) .... on
   Number of AuxJ basis functions       .... 267
   RIJ-COSX (HFX calculated with COS-X)).... on


General Settings:
 Integral files         IntName         .... pbeh-3c
 Hartree-Fock type      HFTyp           .... RHF
 Total Charge           Charge          ....    0
 Multiplicity           Mult            ....    1
 Number of Electrons    NEL             ....   36
 Basis Dimension        Dim             ....   79
 Nuclear Repulsion      ENuc            ....    166.8674202972 Eh

Convergence Acceleration:
 DIIS                   CNVDIIS         .... on
   Start iteration      DIISMaxIt       ....    12
   Startup error        DIISStart       ....  0.200000
   # of expansion vecs  DIISMaxEq       ....     5
   Bias factor          DIISBfac        ....   1.050
   Max. coefficient     DIISMaxC        ....  10.000
 Trust-Rad. Augm. Hess. CNVTRAH         .... auto
   Auto Start mean grad. ratio tolernc. ....  1.125000
   Auto Start start iteration           ....    20
   Auto Start num. interpolation iter.  ....    10
   Max. Number of Micro iterations      ....    16
   Max. Number of Macro iterations      .... Maxiter - #DIIS iter
   Number of Davidson start vectors     ....     2
   Converg. threshold I  (grad. norm)   ....   1.000e-05
   Converg. threshold II (energy diff.) ....   1.000e-08
   Grad. Scal. Fac. for Micro threshold ....   0.100
   Minimum threshold for Micro iter.    ....   0.010
   NR start threshold (gradient norm)   ....   0.001
   Initial trust radius                 ....   0.400
   Minimum AH scaling param. (alpha)    ....   1.000
   Maximum AH scaling param. (alpha)    .... 1000.000
   Orbital update algorithm             .... Taylor
   White noise on init. David. guess    .... on
   Maximum white noise                  ....   0.010
   Quad. conv. algorithm                .... NR
   COSX micro iterations for RIJONX calc.... off
 SOSCF                  CNVSOSCF        .... on
   Start iteration      SOSCFMaxIt      ....   150
   Startup grad/error   SOSCFStart      ....  0.003300
 Level Shifting         CNVShift        .... on
   Level shift para.    LevelShift      ....    0.2500
   Turn off err/grad.   ShiftErr        ....    0.0010
 Zerner damping         CNVZerner       .... off
 Static damping         CNVDamp         .... on
   Fraction old density DampFac         ....    0.7000
   Max. Damping (<1)    DampMax         ....    0.9800
   Min. Damping (>=0)   DampMin         ....    0.0000
   Turn off err/grad.   DampErr         ....    0.1000
 Fernandez-Rico         CNVRico         .... off

SCF Procedure:
 Maximum # iterations   MaxIter         ....   125
 SCF integral mode      SCFMode         .... Direct
   Integral package                     .... SHARK and LIBINT hybrid scheme
 Reset frequency        DirectResetFreq ....    20
 Integral Threshold     Thresh          ....  2.500e-11 Eh
 Primitive CutOff       TCut            ....  2.500e-12 Eh

Convergence Tolerance:
 Convergence Check Mode ConvCheckMode   .... Total+1el-Energy
 Convergence forced     ConvForced      .... 0
 Energy Change          TolE            ....  1.000e-08 Eh
 1-El. energy change                    ....  1.000e-05 Eh
 Orbital Gradient       TolG            ....  1.000e-05
 Orbital Rotation angle TolX            ....  1.000e-05
 DIIS Error             TolErr          ....  5.000e-07


Diagonalization of the overlap matrix:
Smallest eigenvalue                        ... 6.008e-03
Time for diagonalization                   ...    0.004 sec
Threshold for overlap eigenvalues          ... 1.000e-08
Number of eigenvalues below threshold      ... 0
Time for construction of square roots      ...    0.070 sec
Total time needed                          ...    0.175 sec

--------------------------------
INITIAL GUESS: MINIMAL BASIS EHT
--------------------------------
The minimal basis has 27 functions
EHT matrix was diagonalized
Basis set overlap was calculated now projecting the orbitals
Using GuessMode=FMatrix for the initial guess
C*T matrix was formed
Effective Fockian was calculated
Effective Fockian was diagonalized
Initial density was built
                      ------------------
                      INITIAL GUESS DONE
                      ------------------
-------------------
DFT GRID GENERATION
-------------------

General Integration Accuracy     IntAcc      ... 4.959
Radial Grid Type                 RadialGrid  ... OptM3 with GC (2021)
Angular Grid (max. ang.)         AngularGrid ... 6 (Lebedev-590)
Angular grid pruning method      GridPruning ... 4 (adaptive)
Weight generation scheme         WeightScheme... Becke
Basis function cutoff            BFCut       ... 1.0000e-11
Integration weight cutoff        WCut        ... 1.0000e-14
Angular grids for H and He will be reduced by one unit
Partially contracted basis set               ... off
Rotationally invariant grid construction     ... off

Total number of grid points                  ...    89937
Total number of batches                      ...     1409
Average number of points per batch           ...       63
Average number of grid points per atom       ...    12848
Time for grid setup =    1.737 sec

--------------------
COSX GRID GENERATION
--------------------

GRIDX 1
-------
General Integration Accuracy     IntAcc      ... 4.020
Radial Grid Type                 RadialGrid  ... OptM3 with GC (2021)
Angular Grid (max. ang.)         AngularGrid ... 2 (Lebedev-110)
Angular grid pruning method      GridPruning ... 4 (adaptive)
Weight generation scheme         WeightScheme... Becke
Basis function cutoff            BFCut       ... 1.0000e-11
Integration weight cutoff        WCut        ... 1.0000e-14
Angular grids for H and He will be reduced by one unit
Partially contracted basis set               ... on
Rotationally invariant grid construction     ... off

Total number of grid points                  ...    10797
Total number of batches                      ...      172
Average number of points per batch           ...       62
Average number of grid points per atom       ...     1542
UseSFitting                                  ... on

GRIDX 2
-------
General Integration Accuracy     IntAcc      ... 4.338
Radial Grid Type                 RadialGrid  ... OptM3 with GC (2021)
Angular Grid (max. ang.)         AngularGrid ... 3 (Lebedev-194)
Angular grid pruning method      GridPruning ... 4 (adaptive)
Weight generation scheme         WeightScheme... Becke
Basis function cutoff            BFCut       ... 1.0000e-11
Integration weight cutoff        WCut        ... 1.0000e-14
Angular grids for H and He will be reduced by one unit
Partially contracted basis set               ... on
Rotationally invariant grid construction     ... off

Total number of grid points                  ...    23930
Total number of batches                      ...      378
Average number of points per batch           ...       63
Average number of grid points per atom       ...     3419
UseSFitting                                  ... on

GRIDX 3
-------
General Integration Accuracy     IntAcc      ... 4.871
Radial Grid Type                 RadialGrid  ... OptM3 with GC (2021)
Angular Grid (max. ang.)         AngularGrid ... 4 (Lebedev-302)
Angular grid pruning method      GridPruning ... 4 (adaptive)
Weight generation scheme         WeightScheme... Becke
Basis function cutoff            BFCut       ... 1.0000e-11
Integration weight cutoff        WCut        ... 1.0000e-14
Angular grids for H and He will be reduced by one unit
Partially contracted basis set               ... on
Rotationally invariant grid construction     ... off

Total number of grid points                  ...    44067
Total number of batches                      ...      692
Average number of points per batch           ...       63
Average number of grid points per atom       ...     6295
UseSFitting                                  ... on

Time for X-Grid setup             =    1.746 sec

--------------
SCF ITERATIONS
--------------
ITER       Energy         Delta-E        Max-DP      RMS-DP      [F,P]     Damp
               ***  Starting incremental Fock matrix formation  ***
  0   -256.8977683546   0.000000000000 0.13802374  0.00710081  0.3884400 0.7000
  1   -257.1789135151  -0.281145160493 0.08957605  0.00454637  0.2760199 0.7000
                               ***Turning on DIIS***
  2   -257.3326849509  -0.153771435896 0.04549731  0.00274942  0.1956197 0.7000
  3   -257.4381307517  -0.105445800755 0.03538780  0.00197540  0.1407534 0.7000
  4   -257.5143126108  -0.076181859112 0.07617070  0.00486789  0.0968462 0.0000
  5   -257.6987985806  -0.184485969833 0.00982580  0.00053830  0.0097962 0.0000
  6   -257.6991853790  -0.000386798377 0.00473580  0.00021303  0.0050816 0.0000
                      *** Initiating the SOSCF procedure ***
                           *** Shutting down DIIS ***
                      *** Re-Reading the Fockian *** 
                      *** Removing any level shift *** 
ITER      Energy       Delta-E        Grad      Rot      Max-DP    RMS-DP
  7   -257.69930341  -0.0001180353  0.000817  0.000817  0.004581  0.000167
               *** Restarting incremental Fock matrix formation ***
  8   -257.69932358  -0.0000201660  0.000407  0.001009  0.001076  0.000046
  9   -257.69932280   0.0000007848  0.000480  0.000454  0.000542  0.000024
 10   -257.69932515  -0.0000023523  0.000066  0.000168  0.000202  0.000008
 11   -257.69932512   0.0000000277  0.000073  0.000079  0.000155  0.000005
 12   -257.69932521  -0.0000000875  0.000004  0.000011  0.000010  0.000001
 13   -257.69932521  -0.0000000023  0.000004  0.000007  0.000007  0.000000
                  ***Gradient check signals convergence***
              ***Rediagonalizing the Fockian in SOSCF/NRSCF***

               *****************************************************
               *                     SUCCESS                       *
               *           SCF CONVERGED AFTER  14 CYCLES          *
               *****************************************************

Old exchange energy                            =    -13.525329598 Eh
New exchange energy                            =    -13.525328545 Eh
Exchange energy change after final integration =      0.000001053 Eh
Total energy after final integration           =   -257.699324156 Eh
Final COS-X integration done in                =     1.569 sec

----------------
TOTAL SCF ENERGY
----------------

Total Energy       :         -257.69932416 Eh           -7012.35511 eV

Components:
Nuclear Repulsion  :          166.86742030 Eh            4540.69335 eV
Electronic Energy  :         -424.56674445 Eh          -11553.04846 eV
One Electron Energy:         -679.39582811 Eh          -18487.30036 eV
Two Electron Energy:          254.82908366 Eh            6934.25190 eV
Max COSX asymmetry :            0.00000143 Eh               0.00004 eV

Virial components:
Potential Energy   :         -513.59773073 Eh          -13975.70476 eV
Kinetic Energy     :          255.89840657 Eh            6963.34965 eV
Virial Ratio       :            2.00703763


DFT components:
N(Alpha)           :       18.000000389856 electrons
N(Beta)            :       18.000000389856 electrons
N(Total)           :       36.000000779712 electrons
E(X)               :      -18.044029914532 Eh       
E(C)               :       -1.611005251829 Eh       
E(XC)              :      -19.655035166361 Eh       
DFET-embed. en.    :        0.000000000000 Eh       

---------------
SCF CONVERGENCE
---------------

  Last Energy change         ...    3.9876e-10  Tolerance :   1.0000e-08
  Last MAX-Density change    ...    2.1094e-15  Tolerance :   1.0000e-07
  Last RMS-Density change    ...    6.9597e-17  Tolerance :   5.0000e-09
  Last Orbital Gradient      ...    1.0699e-06  Tolerance :   1.0000e-05
  Last Orbital Rotation      ...    1.5345e-06  Tolerance :   1.0000e-05

             **** THE GBW FILE WAS UPDATED (pbeh-3c.gbw) ****
             **** DENSITY pbeh-3c.scfp WAS UPDATED ****
             **** ENERGY FILE WAS UPDATED (pbeh-3c.en.tmp) ****
             **** THE GBW FILE WAS UPDATED (pbeh-3c.gbw) ****
             **** DENSITY pbeh-3c.scfp WAS UPDATED ****
----------------
ORBITAL ENERGIES
----------------

  NO   OCC          E(Eh)            E(eV) 
   0   2.0000     -14.757484      -401.5716 
   1   2.0000     -14.721611      -400.5954 
   2   2.0000     -14.704352      -400.1258 
   3   2.0000     -14.674589      -399.3159 
   4   2.0000     -10.539147      -286.7848 
   5   2.0000      -1.262305       -34.3491 
   6   2.0000      -1.055339       -28.7172 
   7   2.0000      -0.991655       -26.9843 
   8   2.0000      -0.764078       -20.7916 
   9   2.0000      -0.748114       -20.3572 
  10   2.0000      -0.672346       -18.2955 
  11   2.0000      -0.567375       -15.4391 
  12   2.0000      -0.566338       -15.4108 
  13   2.0000      -0.445022       -12.1097 
  14   2.0000      -0.385520       -10.4905 
  15   2.0000      -0.368270       -10.0211 
  16   2.0000      -0.355077        -9.6621 
  17   2.0000      -0.351691        -9.5700 
  18   0.0000       0.007069         0.1924 
  19   0.0000       0.047742         1.2991 
  20   0.0000       0.104501         2.8436 
  21   0.0000       0.163105         4.4383 
  22   0.0000       0.223167         6.0727 
  23   0.0000       0.232339         6.3223 
  24   0.0000       0.318929         8.6785 
  25   0.0000       0.362040         9.8516 
  26   0.0000       0.445809        12.1311 
  27   0.0000       0.504379        13.7249 
  28   0.0000       0.560933        15.2638 
  29   0.0000       0.611718        16.6457 
  30   0.0000       0.637509        17.3475 
  31   0.0000       0.707345        19.2478 
  32   0.0000       0.731031        19.8924 
  33   0.0000       0.758101        20.6290 
  34   0.0000       0.769592        20.9417 
  35   0.0000       0.799514        21.7559 
  36   0.0000       0.809822        22.0364 
  37   0.0000       0.886413        24.1205 
  38   0.0000       0.920655        25.0523 
  39   0.0000       0.927847        25.2480 
  40   0.0000       0.928283        25.2599 
  41   0.0000       0.974815        26.5261 
  42   0.0000       1.030271        28.0351 
  43   0.0000       1.100084        29.9348 
  44   0.0000       1.221343        33.2344 
  45   0.0000       1.253879        34.1198 
  46   0.0000       1.339310        36.4445 
  47   0.0000       1.354853        36.8674 
  48   0.0000       1.385589        37.7038 
  49   0.0000       1.418893        38.6100 
  50   0.0000       1.522018        41.4162 
  51   0.0000       1.600182        43.5432 
  52   0.0000       1.620540        44.0971 
  53   0.0000       1.649399        44.8824 
  54   0.0000       1.763723        47.9933 
  55   0.0000       1.935923        52.6791 
  56   0.0000       1.987822        54.0914 
  57   0.0000       2.095545        57.0227 
  58   0.0000       2.135457        58.1087 
  59   0.0000       2.234806        60.8122 
  60   0.0000       2.269901        61.7672 
  61   0.0000       2.303788        62.6893 
  62   0.0000       2.347018        63.8656 
  63   0.0000       2.409295        65.5603 
  64   0.0000       2.437931        66.3395 
  65   0.0000       2.507699        68.2380 
  66   0.0000       2.582910        70.2846 
  67   0.0000       2.598732        70.7151 
  68   0.0000       2.687370        73.1270 
  69   0.0000       2.713511        73.8384 
  70   0.0000       2.789314        75.9011 
  71   0.0000       3.013761        82.0086 
  72   0.0000       3.068836        83.5073 
  73   0.0000       3.110838        84.6502 
  74   0.0000      13.716888       373.2555 
  75   0.0000      18.799171       511.5514 
  76   0.0000      19.136183       520.7220 
  77   0.0000      19.302213       525.2399 
  78   0.0000      19.374737       527.2134 

                    ********************************
                    * MULLIKEN POPULATION ANALYSIS *
                    ********************************

-----------------------
MULLIKEN ATOMIC CHARGES
-----------------------
   0 N :   -0.437612
   1 N :   -0.045205
   2 N :   -0.083447
   3 N :   -0.267264
   4 C :    0.161983
   5 H :    0.397116
   6 H :    0.274429
Sum of atomic charges:   -0.0000000

--------------------------------
MULLIKEN REDUCED ORBITAL CHARGES
--------------------------------
  0 N s       :     3.526641  s :     3.526641
      pz      :     1.529923  p :     3.852776
      px      :     1.239883
      py      :     1.082970
      dz2     :     0.005313  d :     0.058196
      dxz     :     0.003454
      dyz     :     0.012427
      dx2y2   :     0.021919
      dxy     :     0.015082
  1 N s       :     3.624817  s :     3.624817
      pz      :     1.141535  p :     3.345494
      px      :     0.924468
      py      :     1.279492
      dz2     :     0.008736  d :     0.074893
      dxz     :     0.013096
      dyz     :     0.010139
      dx2y2   :     0.017033
      dxy     :     0.025889
  2 N s       :     3.647144  s :     3.647144
      pz      :     1.100608  p :     3.361986
      px      :     1.201357
      py      :     1.060020
      dz2     :     0.008724  d :     0.074318
      dxz     :     0.012064
      dyz     :     0.009975
      dx2y2   :     0.027199
      dxy     :     0.016356
  3 N s       :     3.643252  s :     3.643252
      pz      :     1.157798  p :     3.565977
      px      :     1.391103
      py      :     1.017076
      dz2     :     0.006713  d :     0.058034
      dxz     :     0.009939
      dyz     :     0.008040
      dx2y2   :     0.021280
      dxy     :     0.012062
  4 C s       :     3.099618  s :     3.099618
      pz      :     0.971106  p :     2.663199
      px      :     0.841265
      py      :     0.850828
      dz2     :     0.005633  d :     0.075200
      dxz     :     0.013540
      dyz     :     0.006356
      dx2y2   :     0.020268
      dxy     :     0.029402
  5 H s       :     0.602884  s :     0.602884
  6 H s       :     0.725571  s :     0.725571


                     *******************************
                     * LOEWDIN POPULATION ANALYSIS *
                     *******************************

----------------------
LOEWDIN ATOMIC CHARGES
----------------------
   0 N :   -0.081656
   1 N :   -0.078315
   2 N :   -0.063661
   3 N :   -0.137357
   4 C :   -0.065065
   5 H :    0.276087
   6 H :    0.149966

-------------------------------
LOEWDIN REDUCED ORBITAL CHARGES
-------------------------------
  0 N s       :     3.097123  s :     3.097123
      pz      :     1.475229  p :     3.852246
      px      :     1.198072
      py      :     1.178945
      dz2     :     0.008836  d :     0.132287
      dxz     :     0.005059
      dyz     :     0.026033
      dx2y2   :     0.049385
      dxy     :     0.042974
  1 N s       :     3.303785  s :     3.303785
      pz      :     1.138034  p :     3.617182
      px      :     1.085161
      py      :     1.393986
      dz2     :     0.016849  d :     0.157348
      dxz     :     0.026405
      dyz     :     0.014383
      dx2y2   :     0.039780
      dxy     :     0.059932
  2 N s       :     3.304105  s :     3.304105
      pz      :     1.093928  p :     3.605796
      px      :     1.323155
      py      :     1.188713
      dz2     :     0.016320  d :     0.153760
      dxz     :     0.017613
      dyz     :     0.018241
      dx2y2   :     0.060688
      dxy     :     0.040898
  3 N s       :     3.280315  s :     3.280315
      pz      :     1.147266  p :     3.737666
      px      :     1.434432
      py      :     1.155969
      dz2     :     0.012289  d :     0.119375
      dxz     :     0.013662
      dyz     :     0.015289
      dx2y2   :     0.048817
      dxy     :     0.029319
  4 C s       :     2.902209  s :     2.902209
      pz      :     0.970875  p :     2.998248
      px      :     1.003549
      py      :     1.023824
      dz2     :     0.011789  d :     0.164608
      dxz     :     0.027326
      dyz     :     0.010657
      dx2y2   :     0.046675
      dxy     :     0.068160
  5 H s       :     0.723913  s :     0.723913
  6 H s       :     0.850034  s :     0.850034


                      *****************************
                      * MAYER POPULATION ANALYSIS *
                      *****************************

  NA   - Mulliken gross atomic population
  ZA   - Total nuclear charge
  QA   - Mulliken gross atomic charge
  VA   - Mayer's total valence
  BVA  - Mayer's bonded valence
  FA   - Mayer's free valence

  ATOM       NA         ZA         QA         VA         BVA        FA
  0 N      7.4376     7.0000    -0.4376     3.3639     3.3639    -0.0000
  1 N      7.0452     7.0000    -0.0452     2.9404     2.9404    -0.0000
  2 N      7.0834     7.0000    -0.0834     3.0162     3.0162    -0.0000
  3 N      7.2673     7.0000    -0.2673     3.0360     3.0360     0.0000
  4 C      5.8380     6.0000     0.1620     3.6851     3.6851    -0.0000
  5 H      0.6029     1.0000     0.3971     0.8236     0.8236     0.0000
  6 H      0.7256     1.0000     0.2744     0.8929     0.8929     0.0000

  Mayer bond orders larger than 0.100000
B(  0-N ,  1-N ) :   1.2372 B(  0-N ,  4-C ) :   1.1691 B(  0-N ,  5-H ) :   0.7984 
B(  1-N ,  2-N ) :   1.5825 B(  2-N ,  3-N ) :   1.3420 B(  3-N ,  4-C ) :   1.5587 
B(  4-C ,  6-H ) :   0.9001 

-------
TIMINGS
-------

Total SCF time: 0 days 0 hours 1 min 5 sec 

Total time                  ....      65.653 sec
Sum of individual times     ....      58.955 sec  ( 89.8%)

Fock matrix formation       ....      49.496 sec  ( 75.4%)
  Split-RI-J                ....       7.940 sec  ( 16.0% of F)
  Chain of spheres X        ....      11.828 sec  ( 23.9% of F)
  XC integration            ....      14.059 sec  ( 28.4% of F)
    Basis function eval.    ....       1.815 sec  ( 12.9% of XC)
    Density eval.           ....       0.780 sec  (  5.5% of XC)
    XC-Functional eval.     ....       0.907 sec  (  6.5% of XC)
    XC-Potential eval.      ....       0.748 sec  (  5.3% of XC)
Diagonalization             ....       0.402 sec  (  0.6%)
Density matrix formation    ....       0.130 sec  (  0.2%)
Population analysis         ....       0.309 sec  (  0.5%)
Initial guess               ....       0.026 sec  (  0.0%)
Orbital Transformation      ....       0.000 sec  (  0.0%)
Orbital Orthonormalization  ....       0.000 sec  (  0.0%)
DIIS solution               ....       1.787 sec  (  2.7%)
SOSCF solution              ....       3.323 sec  (  5.1%)
Grid generation             ....       3.482 sec  (  5.3%)

Maximum memory used throughout the entire SCF-calculation: 47.3 MB


-------------------------------------------------------------------------------
                          DFT DISPERSION CORRECTION                            
                                                                               
                              DFTD3 V3.1  Rev 1                                
                          USING Becke-Johnson damping                          
-------------------------------------------------------------------------------
The PBEh-3c composite method is recognized
Using three-body term ABC
Active option DFTDOPT                   ...         4   

molecular C6(AA) [au] = 643.982661 


            DFT-D V3
 parameters
 s6 scaling factor         :     1.0000 
 a1 scaling factor         :     0.4860 
 s8 scaling factor         :     0.0000 
 a2 scaling factor         :     4.5000 
 Damping factor alpha9(ATM):    16.0000 
 ad hoc parameters k1-k3   :    16.0000     1.3333    -4.0000 

 Edisp/kcal,au: -1.691468618640  -0.002695526535 
 E6   /kcal   :  -1.691926554 
 E8   /kcal   :  -0.000000000 
 E6(ABC)      :   0.000457936 
 % E8         :   0.000000000 
 % E6(ABC)    :  -0.027073249 

-------------------------   ----------------
Dispersion correction           -0.002695527
-------------------------   ----------------

------------------   -----------------
gCP correction             0.013416885
------------------   -----------------

-------------------------   --------------------
FINAL SINGLE POINT ENERGY      -257.688602797657
-------------------------   --------------------


                            ***************************************
                            *     ORCA property calculations      *
                            ***************************************

                                    ---------------------
                                    Active property flags
                                    ---------------------
   (+) Dipole Moment


------------------------------------------------------------------------------
                       ORCA ELECTRIC PROPERTIES CALCULATION
------------------------------------------------------------------------------

Dipole Moment Calculation                       ... on
Quadrupole Moment Calculation                   ... off
Polarizability Calculation                      ... off
GBWName                                         ... pbeh-3c.gbw
Electron density                                ... pbeh-3c.scfp
The origin for moment calculation is the CENTER OF MASS  = ( 0.690344,  0.558323  0.000000)

-------------
DIPOLE MOMENT
-------------
                                X             Y             Z
Electronic contribution:      0.61256       0.94836       0.00000
Nuclear contribution   :     -2.54182      -1.92758       0.00000
                        -----------------------------------------
Total Dipole Moment    :     -1.92926      -0.97922       0.00000
                        -----------------------------------------
Magnitude (a.u.)       :      2.16354
Magnitude (Debye)      :      5.49929



--------------------
Rotational spectrum 
--------------------
 
Rotational constants in cm-1:     0.352047     0.345378     0.174340 
Rotational constants in MHz : 10554.103980 10354.172111  5226.591069 

 Dipole components along the rotational axes: 
x,y,z [a.u.] :     0.691672    -2.050000     0.000000 
x,y,z [Debye]:     1.758089    -5.210687     0.000000 

 

Timings for individual modules:

Sum of individual times         ...       67.433 sec (=   1.124 min)
GTO integral calculation        ...        1.301 sec (=   0.022 min)   1.9 %
SCF iterations                  ...       66.132 sec (=   1.102 min)  98.1 %
                             ****ORCA TERMINATED NORMALLY****
TOTAL RUN TIME: 0 days 0 hours 1 minutes 9 seconds 279 msec
