
                                 *****************
                                 * O   R   C   A *
                                 *****************

                                            #,                                       
                                            ###                                      
                                            ####                                     
                                            #####                                    
                                            ######                                   
                                           ########,                                 
                                     ,,################,,,,,                         
                               ,,#################################,,                 
                          ,,##########################################,,             
                       ,#########################################, ''#####,          
                    ,#############################################,,   '####,        
                  ,##################################################,,,,####,       
                ,###########''''           ''''###############################       
              ,#####''   ,,,,##########,,,,          '''####'''          '####       
            ,##' ,,,,###########################,,,                        '##       
           ' ,,###''''                  '''############,,,                           
         ,,##''                                '''############,,,,        ,,,,,,###''
      ,#''                                            '''#######################'''  
     '                                                          ''''####''''         
             ,#######,   #######,   ,#######,      ##                                
            ,#'     '#,  ##    ##  ,#'     '#,    #''#        ######   ,####,        
            ##       ##  ##   ,#'  ##            #'  '#       #        #'  '#        
            ##       ##  #######   ##           ,######,      #####,   #    #        
            '#,     ,#'  ##    ##  '#,     ,#' ,#      #,         ##   #,  ,#        
             '#######'   ##     ##  '#######'  #'      '#     #####' # '####'        



                  #######################################################
                  #                        -***-                        #
                  #          Department of theory and spectroscopy      #
                  #    Directorship and core code : Frank Neese         #
                  #        Max Planck Institute fuer Kohlenforschung    #
                  #                Kaiser Wilhelm Platz 1               #
                  #                 D-45470 Muelheim/Ruhr               #
                  #                      Germany                        #
                  #                                                     #
                  #                  All rights reserved                #
                  #                        -***-                        #
                  #######################################################


                         Program Version 5.0.3 -  RELEASE  -


 With contributions from (in alphabetic order):
   Daniel Aravena         : Magnetic Suceptibility
   Michael Atanasov       : Ab Initio Ligand Field Theory (pilot matlab implementation)
   Alexander A. Auer      : GIAO ZORA, VPT2 properties, NMR spectrum
   Ute Becker             : Parallelization
   Giovanni Bistoni       : ED, misc. LED, open-shell LED, HFLD
   Martin Brehm           : Molecular dynamics
   Dmytro Bykov           : SCF Hessian
   Vijay G. Chilkuri      : MRCI spin determinant printing, contributions to CSF-ICE
   Dipayan Datta          : RHF DLPNO-CCSD density
   Achintya Kumar Dutta   : EOM-CC, STEOM-CC
   Dmitry Ganyushin       : Spin-Orbit,Spin-Spin,Magnetic field MRCI
   Miquel Garcia          : C-PCM and meta-GGA Hessian, CC/C-PCM, Gaussian charge scheme
   Yang Guo               : DLPNO-NEVPT2, F12-NEVPT2, CIM, IAO-localization
   Andreas Hansen         : Spin unrestricted coupled pair/coupled cluster methods
   Benjamin Helmich-Paris : MC-RPA, TRAH-SCF, COSX integrals
   Lee Huntington         : MR-EOM, pCC
   Robert Izsak           : Overlap fitted RIJCOSX, COSX-SCS-MP3, EOM
   Marcus Kettner         : VPT2
   Christian Kollmar      : KDIIS, OOCD, Brueckner-CCSD(T), CCSD density, CASPT2, CASPT2-K
   Simone Kossmann        : Meta GGA functionals, TD-DFT gradient, OOMP2, MP2 Hessian
   Martin Krupicka        : Initial AUTO-CI
   Lucas Lang             : DCDCAS
   Marvin Lechner         : AUTO-CI (C++ implementation), FIC-MRCC
   Dagmar Lenk            : GEPOL surface, SMD
   Dimitrios Liakos       : Extrapolation schemes; Compound Job, initial MDCI parallelization
   Dimitrios Manganas     : Further ROCIS development; embedding schemes
   Dimitrios Pantazis     : SARC Basis sets
   Anastasios Papadopoulos: AUTO-CI, single reference methods and gradients
   Taras Petrenko         : DFT Hessian,TD-DFT gradient, ASA, ECA, R-Raman, ABS, FL, XAS/XES, NRVS
   Peter Pinski           : DLPNO-MP2, DLPNO-MP2 Gradient
   Christoph Reimann      : Effective Core Potentials
   Marius Retegan         : Local ZFS, SOC
   Christoph Riplinger    : Optimizer, TS searches, QM/MM, DLPNO-CCSD(T), (RO)-DLPNO pert. Triples
   Tobias Risthaus        : Range-separated hybrids, TD-DFT gradient, RPA, STAB
   Michael Roemelt        : Original ROCIS implementation
   Masaaki Saitow         : Open-shell DLPNO-CCSD energy and density
   Barbara Sandhoefer     : DKH picture change effects
   Avijit Sen             : IP-ROCIS
   Kantharuban Sivalingam : CASSCF convergence, NEVPT2, FIC-MRCI
   Bernardo de Souza      : ESD, SOC TD-DFT
   Georgi Stoychev        : AutoAux, RI-MP2 NMR, DLPNO-MP2 response
   Willem Van den Heuvel  : Paramagnetic NMR
   Boris Wezisla          : Elementary symmetry handling
   Frank Wennmohs         : Technical directorship


 We gratefully acknowledge several colleagues who have allowed us to
 interface, adapt or use parts of their codes:
   Stefan Grimme, W. Hujo, H. Kruse, P. Pracht,  : VdW corrections, initial TS optimization,
                  C. Bannwarth, S. Ehlert          DFT functionals, gCP, sTDA/sTD-DF
   Ed Valeev, F. Pavosevic, A. Kumar             : LibInt (2-el integral package), F12 methods
   Garnet Chan, S. Sharma, J. Yang, R. Olivares  : DMRG
   Ulf Ekstrom                                   : XCFun DFT Library
   Mihaly Kallay                                 : mrcc  (arbitrary order and MRCC methods)
   Jiri Pittner, Ondrej Demel                    : Mk-CCSD
   Frank Weinhold                                : gennbo (NPA and NBO analysis)
   Christopher J. Cramer and Donald G. Truhlar   : smd solvation model
   Lars Goerigk                                  : TD-DFT with DH, B97 family of functionals
   V. Asgeirsson, H. Jonsson                     : NEB implementation
   FAccTs GmbH                                   : IRC, NEB, NEB-TS, DLPNO-Multilevel, CI-OPT
                                                   MM, QMMM, 2- and 3-layer-ONIOM, Crystal-QMMM,
                                                   LR-CPCM, SF, NACMEs, symmetry and pop. for TD-DFT,
                                                   nearIR, NL-DFT gradient (VV10), updates on ESD,
                                                   ML-optimized integration grids
   S Lehtola, MJT Oliveira, MAL Marques          : LibXC Library
   Liviu Ungur et al                             : ANISO software


 Your calculation uses the libint2 library for the computation of 2-el integrals
 For citations please refer to: http://libint.valeyev.net

 Your ORCA version has been built with support for libXC version: 5.1.0
 For citations please refer to: https://tddft.org/programs/libxc/

 This ORCA versions uses:
   CBLAS   interface :  Fast vector & matrix operations
   LAPACKE interface :  Fast linear algebra routines
   SCALAPACK package :  Parallel linear algebra routines
   Shared memory     :  Shared parallel matrices
   BLAS/LAPACK       :  OpenBLAS 0.3.15  USE64BITINT DYNAMIC_ARCH NO_AFFINITY Haswell SINGLE_THREADED
        Core in use  :  Haswell
   Copyright (c) 2011-2014, The OpenBLAS Project




***************************************
The coordinates will be read from file: i11e.xyz
***************************************


Your calculation utilizes the geometrical counterpoise correction gCP
Please cite in your paper:
H.Kruse, S. Grimme J.Chem.Phys., 136, (2012), 154101 
   

Your calculation utilizes the atom-pairwise dispersion correction
with the Becke-Johnson damping scheme (D3BJ)
Cite in your paper:
S.Grimme, S.Ehrlich, L.Goerigk, J Comput Chem, (2011), 32, 1456–1465 
S.Grimme, J.Antony, S.Ehrlich and H.Krieg, J.Chem.Phys., 132, (2010), 154104 
   

Your calculation employs the composite approach PBEh-3c.
Please cite in your paper:
S. Grimme, J. G. Brandenburg, C. Bannwarth, A. Hansen J.Chem.Phys., 143, (2015), 054107 
   

================================================================================

----- Orbital basis set information -----
Your calculation utilizes the basis: def2-mSVP

----- AuxJ basis set information -----
Your calculation utilizes the auxiliary basis: def2/J
   F. Weigend, Phys. Chem. Chem. Phys. 8, 1057 (2006).

================================================================================
                                        WARNINGS
                       Please study these warnings very carefully!
================================================================================


INFO   : the flag for use of the SHARK integral package has been found!

================================================================================
                                       INPUT FILE
================================================================================
NAME = pbeh-3c.inp
|  1> ! PBEh-3c def2/J TightSCF DefGrid3
|  2> 
|  3> %maxcore 60000
|  4> 
|  5> %pal
|  6> nprocs 4
|  7> end
|  8> 
|  9> *xyzfile 0 1 i11e.xyz
| 10> 
| 11>                          ****END OF INPUT****
================================================================================

                       ****************************
                       * Single Point Calculation *
                       ****************************

---------------------------------
CARTESIAN COORDINATES (ANGSTROEM)
---------------------------------
  C     -4.182403    1.284678    0.000000
  C     -5.325771    0.483067    0.000000
  C     -5.207603   -0.920743    0.000000
  C     -3.962402   -1.559278    0.000000
  C     -2.824991   -0.748994    0.000000
  C     -2.929221    0.664959    0.000000
  C     -1.566303    1.213643    0.000000
  C     -0.683740    0.002884    0.000000
  N     -1.485175   -1.118798    0.000000
  O     -1.172422    2.385058    0.000000
  C      0.683740   -0.002884    0.000000
  N      1.485175    1.118798    0.000000
  C      2.824991    0.748994    0.000000
  C      2.929221   -0.664959    0.000000
  C      1.566303   -1.213643    0.000000
  C      3.962402    1.559278    0.000000
  C      5.207603    0.920743    0.000000
  C      5.325771   -0.483067    0.000000
  C      4.182403   -1.284678    0.000000
  O      1.172422   -2.385058    0.000000
  H     -4.248094    2.370662    0.000000
  H     -6.313076    0.938548    0.000000
  H     -6.109772   -1.529547    0.000000
  H     -3.886463   -2.644394    0.000000
  H     -1.102977   -2.056781    0.000000
  H      1.102977    2.056781    0.000000
  H      3.886463    2.644394    0.000000
  H      6.109772    1.529547    0.000000
  H      6.313076   -0.938548    0.000000
  H      4.248094   -2.370662    0.000000

----------------------------
CARTESIAN COORDINATES (A.U.)
----------------------------
  NO LB      ZA    FRAG     MASS         X           Y           Z
   0 C     6.0000    0    12.011   -7.903596    2.427689    0.000000
   1 C     6.0000    0    12.011  -10.064249    0.912865    0.000000
   2 C     6.0000    0    12.011   -9.840943   -1.739952    0.000000
   3 C     6.0000    0    12.011   -7.487854   -2.946608    0.000000
   4 C     6.0000    0    12.011   -5.338460   -1.415394    0.000000
   5 C     6.0000    0    12.011   -5.535426    1.256590    0.000000
   6 C     6.0000    0    12.011   -2.959883    2.293454    0.000000
   7 C     6.0000    0    12.011   -1.292081    0.005451    0.000000
   8 N     7.0000    0    14.007   -2.806574   -2.114221    0.000000
   9 O     8.0000    0    15.999   -2.215557    4.507107    0.000000
  10 C     6.0000    0    12.011    1.292081   -0.005451    0.000000
  11 N     7.0000    0    14.007    2.806574    2.114221    0.000000
  12 C     6.0000    0    12.011    5.338460    1.415394    0.000000
  13 C     6.0000    0    12.011    5.535426   -1.256590    0.000000
  14 C     6.0000    0    12.011    2.959883   -2.293454    0.000000
  15 C     6.0000    0    12.011    7.487854    2.946608    0.000000
  16 C     6.0000    0    12.011    9.840943    1.739952    0.000000
  17 C     6.0000    0    12.011   10.064249   -0.912865    0.000000
  18 C     6.0000    0    12.011    7.903596   -2.427689    0.000000
  19 O     8.0000    0    15.999    2.215557   -4.507107    0.000000
  20 H     1.0000    0     1.008   -8.027734    4.479902    0.000000
  21 H     1.0000    0     1.008  -11.929984    1.773598    0.000000
  22 H     1.0000    0     1.008  -11.545795   -2.890425    0.000000
  23 H     1.0000    0     1.008   -7.344351   -4.997181    0.000000
  24 H     1.0000    0     1.008   -2.084324   -3.886753    0.000000
  25 H     1.0000    0     1.008    2.084324    3.886753    0.000000
  26 H     1.0000    0     1.008    7.344351    4.997181    0.000000
  27 H     1.0000    0     1.008   11.545795    2.890425    0.000000
  28 H     1.0000    0     1.008   11.929984   -1.773598    0.000000
  29 H     1.0000    0     1.008    8.027734   -4.479902    0.000000

--------------------------------
INTERNAL COORDINATES (ANGSTROEM)
--------------------------------
 C      0   0   0     0.000000000000     0.00000000     0.00000000
 C      1   0   0     1.396377703857     0.00000000     0.00000000
 C      2   1   0     1.408775162038   120.22248079     0.00000000
 C      3   2   1     1.399375295865   121.96023937     0.00000000
 C      4   3   2     1.396517636735   117.38560323     0.00000000
 C      1   2   3     1.398039837401   118.65271952     0.00000000
 C      6   1   2     1.469217958114   131.75809194   180.00000000
 C      7   6   1     1.498283872602   104.16081552   180.00000000
 N      8   7   6     1.378575111336   108.36485138     0.00000000
 O      7   6   1     1.235862122078   130.51362842     0.00000000
 C      8   7   6     1.367491768815   126.33128234   180.00000000
 N     11   8   7     1.378575111336   125.30386627     0.00000000
 C     12  11   8     1.389914553633   110.11551881   180.00000000
 C     13  12  11     1.417789860814   109.64600652     0.00000000
 C     14  13  12     1.469217958114   107.71280777     0.00000000
 C     13  12  11     1.396517636735   129.10413668   180.00000000
 C     16  13  12     1.399375295865   117.38560323   180.00000000
 C     17  16  13     1.408775162038   121.96023937     0.00000000
 C     18  17  16     1.396377703857   120.22248079     0.00000000
 O     15  14  13     1.235862122078   130.51362842   180.00000085
 H      1   2   3     1.087969310443   121.57252737   180.00000000
 H      2   1   3     1.087305012796   120.20024244   180.00000000
 H      3   2   1     1.088371094311   119.20072552   180.00000000
 H      4   3   2     1.087770748533   121.15175912   180.00000000
 H      9   8   7     1.012861360287   122.28509654   180.00000000
 H     12  11   8     1.012861360287   122.28509654     0.00000000
 H     16  13  12     1.087770748533   121.46263765     0.00000000
 H     17  16  13     1.088371094311   118.83903511   180.00000000
 H     18  17  16     1.087305012796   119.57727677   180.00000085
 H     19  18  17     1.087969310443   121.57252737   180.00000000

---------------------------
INTERNAL COORDINATES (A.U.)
---------------------------
 C      0   0   0     0.000000000000     0.00000000     0.00000000
 C      1   0   0     2.638771439803     0.00000000     0.00000000
 C      2   1   0     2.662199240522   120.22248079     0.00000000
 C      3   2   1     2.644436067760   121.96023937     0.00000000
 C      4   3   2     2.639035874620   117.38560323     0.00000000
 C      1   2   3     2.641912416999   118.65271952     0.00000000
 C      6   1   2     2.776419571875   131.75809194   180.00000000
 C      7   6   1     2.831346190088   104.16081552   180.00000000
 N      8   7   6     2.605129415466   108.36485138     0.00000000
 O      7   6   1     2.335440950015   130.51362842     0.00000000
 C      8   7   6     2.584184933452   126.33128234   180.00000000
 N     11   8   7     2.605129415466   125.30386627     0.00000000
 C     12  11   8     2.626557855917   110.11551881   180.00000000
 C     13  12  11     2.679234552388   109.64600652     0.00000000
 C     14  13  12     2.776419571875   107.71280777     0.00000000
 C     13  12  11     2.639035874620   129.10413668   180.00000000
 C     16  13  12     2.644436067760   117.38560323   180.00000000
 C     17  16  13     2.662199240522   121.96023937     0.00000000
 C     18  17  16     2.638771439803   120.22248079     0.00000000
 O     15  14  13     2.335440950015   130.51362842   180.00000085
 H      1   2   3     2.055964038848   121.57252737   180.00000000
 H      2   1   3     2.054708698224   120.20024244   180.00000000
 H      3   2   1     2.056723300325   119.20072552   180.00000000
 H      4   3   2     2.055588811217   121.15175912   180.00000000
 H      9   8   7     1.914030582573   122.28509654   180.00000000
 H     12  11   8     1.914030582573   122.28509654     0.00000000
 H     16  13  12     2.055588811217   121.46263765     0.00000000
 H     17  16  13     2.056723300325   118.83903511   180.00000000
 H     18  17  16     2.054708698224   119.57727677   180.00000085
 H     19  18  17     2.055964038848   121.57252737   180.00000000

---------------------
BASIS SET INFORMATION
---------------------
There are 4 groups of distinct atoms

 Group   1 Type C   : 8s4p1d contracted to 4s2p1d pattern {5111/31/1}
 Group   2 Type N   : 8s4p1d contracted to 4s2p1d pattern {5111/31/1}
 Group   3 Type O   : 8s4p1d contracted to 4s2p1d pattern {5111/31/1}
 Group   4 Type H   : 4s contracted to 2s pattern {31}

Atom   0C    basis set group =>   1
Atom   1C    basis set group =>   1
Atom   2C    basis set group =>   1
Atom   3C    basis set group =>   1
Atom   4C    basis set group =>   1
Atom   5C    basis set group =>   1
Atom   6C    basis set group =>   1
Atom   7C    basis set group =>   1
Atom   8N    basis set group =>   2
Atom   9O    basis set group =>   3
Atom  10C    basis set group =>   1
Atom  11N    basis set group =>   2
Atom  12C    basis set group =>   1
Atom  13C    basis set group =>   1
Atom  14C    basis set group =>   1
Atom  15C    basis set group =>   1
Atom  16C    basis set group =>   1
Atom  17C    basis set group =>   1
Atom  18C    basis set group =>   1
Atom  19O    basis set group =>   3
Atom  20H    basis set group =>   4
Atom  21H    basis set group =>   4
Atom  22H    basis set group =>   4
Atom  23H    basis set group =>   4
Atom  24H    basis set group =>   4
Atom  25H    basis set group =>   4
Atom  26H    basis set group =>   4
Atom  27H    basis set group =>   4
Atom  28H    basis set group =>   4
Atom  29H    basis set group =>   4
---------------------------------
AUXILIARY/J BASIS SET INFORMATION
---------------------------------
There are 4 groups of distinct atoms

 Group   1 Type C   : 12s5p4d2f1g contracted to 6s4p3d1f1g pattern {711111/2111/211/2/1}
 Group   2 Type N   : 12s5p4d2f1g contracted to 6s4p3d1f1g pattern {711111/2111/211/2/1}
 Group   3 Type O   : 12s5p4d2f1g contracted to 6s4p3d1f1g pattern {711111/2111/211/2/1}
 Group   4 Type H   : 5s2p1d contracted to 3s1p1d pattern {311/2/1}

Atom   0C    basis set group =>   1
Atom   1C    basis set group =>   1
Atom   2C    basis set group =>   1
Atom   3C    basis set group =>   1
Atom   4C    basis set group =>   1
Atom   5C    basis set group =>   1
Atom   6C    basis set group =>   1
Atom   7C    basis set group =>   1
Atom   8N    basis set group =>   2
Atom   9O    basis set group =>   3
Atom  10C    basis set group =>   1
Atom  11N    basis set group =>   2
Atom  12C    basis set group =>   1
Atom  13C    basis set group =>   1
Atom  14C    basis set group =>   1
Atom  15C    basis set group =>   1
Atom  16C    basis set group =>   1
Atom  17C    basis set group =>   1
Atom  18C    basis set group =>   1
Atom  19O    basis set group =>   3
Atom  20H    basis set group =>   4
Atom  21H    basis set group =>   4
Atom  22H    basis set group =>   4
Atom  23H    basis set group =>   4
Atom  24H    basis set group =>   4
Atom  25H    basis set group =>   4
Atom  26H    basis set group =>   4
Atom  27H    basis set group =>   4
Atom  28H    basis set group =>   4
Atom  29H    basis set group =>   4


           ************************************************************
           *        Program running with 4 parallel MPI-processes     *
           *              working on a common directory               *
           ************************************************************
------------------------------------------------------------------------------
                           ORCA GTO INTEGRAL CALCULATION
                           -- RI-GTO INTEGRALS CHOSEN --
------------------------------------------------------------------------------
------------------------------------------------------------------------------
                   ___                                                        
                  /   \      - P O W E R E D   B Y -                         
                 /     \                                                     
                 |  |  |   _    _      __       _____    __    __             
                 |  |  |  | |  | |    /  \     |  _  \  |  |  /  |          
                  \  \/   | |  | |   /    \    | | | |  |  | /  /          
                 / \  \   | |__| |  /  /\  \   | |_| |  |  |/  /          
                |  |  |   |  __  | /  /__\  \  |    /   |      \           
                |  |  |   | |  | | |   __   |  |    \   |  |\   \          
                \     /   | |  | | |  |  |  |  | |\  \  |  | \   \       
                 \___/    |_|  |_| |__|  |__|  |_| \__\ |__|  \__/        
                                                                              
                      - O R C A' S   B I G   F R I E N D -                    
                                      &                                       
                       - I N T E G R A L  F E E D E R -                       
                                                                              
 v1 FN, 2020, v2 2021                                                         
------------------------------------------------------------------------------


Reading SHARK input file pbeh-3c.SHARKINP.tmp ... ok
----------------------
SHARK INTEGRAL PACKAGE
----------------------

Number of atoms                             ...     30
Number of basis functions                   ...    320
Number of shells                            ...    160
Maximum angular momentum                    ...      2
Integral batch strategy                     ... SHARK/LIBINT Hybrid
RI-J (if used) integral strategy            ... SPLIT-RIJ (Revised 2003 algorithm where possible)
Printlevel                                  ...      1
Contraction scheme used                     ... SEGMENTED contraction
Coulomb Range Separation                    ... NOT USED
Exchange Range Separation                   ... NOT USED
Finite Nucleus Model                        ... NOT USED
Auxiliary Coulomb fitting basis             ... AVAILABLE
   # of basis functions in Aux-J            ...   1090
   # of shells in Aux-J                     ...    350
   Maximum angular momentum in Aux-J        ...      4
Auxiliary J/K fitting basis                 ... NOT available
Auxiliary Correlation fitting basis         ... NOT available
Auxiliary 'external' fitting basis          ... NOT available
Integral threshold                          ...     2.500000e-11
Primitive cut-off                           ...     2.500000e-12
Primitive pair pre-selection threshold      ...     2.500000e-12

Calculating pre-screening integrals         ... done (  0.1 sec) Dimension = 160
Organizing shell pair data                  ... done (  0.4 sec)
Shell pair information
Total number of shell pairs                 ...     12880
Shell pairs after pre-screening             ...      8380
Total number of primitive shell pairs       ...     45440
Primitive shell pairs kept                  ...     19157
          la=0 lb=0:   2780 shell pairs
          la=1 lb=0:   2962 shell pairs
          la=1 lb=1:    719 shell pairs
          la=2 lb=0:   1164 shell pairs
          la=2 lb=1:    620 shell pairs
          la=2 lb=2:    135 shell pairs

Calculating one electron integrals          ... done (  0.0 sec)
Calculating RI/J V-Matrix + Cholesky decomp.... done (  1.0 sec)
Calculating Nuclear repulsion               ... done (  0.1 sec) ENN=   1374.738372213877 Eh

SHARK setup successfully completed in   3.0 seconds

Maximum memory used throughout the entire GTOINT-calculation: 19.5 MB


           ************************************************************
           *        Program running with 4 parallel MPI-processes     *
           *              working on a common directory               *
           ************************************************************
-------------------------------------------------------------------------------
                                 ORCA SCF
-------------------------------------------------------------------------------

------------
SCF SETTINGS
------------
Hamiltonian:
 Density Functional     Method          .... DFT(GTOs)
 Exchange Functional    Exchange        .... PBE
   PBE kappa parameter   XKappa         ....  1.024500
   PBE mue parameter    XMuePBE         ....  0.123457
 Correlation Functional Correlation     .... PBE
   PBE beta parameter  CBetaPBE         ....  0.030000
 LDA part of GGA corr.  LDAOpt          .... PW91-LDA
 Gradients option       PostSCFGGA      .... off
 Hybrid DFT is turned on
   Fraction HF Exchange ScalHFX         ....  0.420000
   Scaling of DF-GGA-X  ScalDFX         ....  0.580000
   Scaling of DF-GGA-C  ScalDFC         ....  1.000000
   Scaling of DF-LDA-C  ScalLDAC        ....  1.000000
   Perturbative correction              ....  0.000000
   Density functional embedding theory  .... OFF
 RI-approximation to the Coulomb term is turned on
   Number of AuxJ basis functions       .... 1090
   RIJ-ON(X) (HFX calculated with O(N)) .... on
   Number of AuxJ basis functions       .... 1090
   RIJ-COSX (HFX calculated with COS-X)).... on


General Settings:
 Integral files         IntName         .... pbeh-3c
 Hartree-Fock type      HFTyp           .... RHF
 Total Charge           Charge          ....    0
 Multiplicity           Mult            ....    1
 Number of Electrons    NEL             ....  136
 Basis Dimension        Dim             ....  320
 Nuclear Repulsion      ENuc            ....   1374.7383722139 Eh

Convergence Acceleration:
 DIIS                   CNVDIIS         .... on
   Start iteration      DIISMaxIt       ....    12
   Startup error        DIISStart       ....  0.200000
   # of expansion vecs  DIISMaxEq       ....     5
   Bias factor          DIISBfac        ....   1.050
   Max. coefficient     DIISMaxC        ....  10.000
 Trust-Rad. Augm. Hess. CNVTRAH         .... auto
   Auto Start mean grad. ratio tolernc. ....  1.125000
   Auto Start start iteration           ....    20
   Auto Start num. interpolation iter.  ....    10
   Max. Number of Micro iterations      ....    16
   Max. Number of Macro iterations      .... Maxiter - #DIIS iter
   Number of Davidson start vectors     ....     2
   Converg. threshold I  (grad. norm)   ....   1.000e-05
   Converg. threshold II (energy diff.) ....   1.000e-08
   Grad. Scal. Fac. for Micro threshold ....   0.100
   Minimum threshold for Micro iter.    ....   0.010
   NR start threshold (gradient norm)   ....   0.001
   Initial trust radius                 ....   0.400
   Minimum AH scaling param. (alpha)    ....   1.000
   Maximum AH scaling param. (alpha)    .... 1000.000
   Orbital update algorithm             .... Taylor
   White noise on init. David. guess    .... on
   Maximum white noise                  ....   0.010
   Quad. conv. algorithm                .... NR
   COSX micro iterations for RIJONX calc.... off
 SOSCF                  CNVSOSCF        .... on
   Start iteration      SOSCFMaxIt      ....   150
   Startup grad/error   SOSCFStart      ....  0.003300
 Level Shifting         CNVShift        .... on
   Level shift para.    LevelShift      ....    0.2500
   Turn off err/grad.   ShiftErr        ....    0.0010
 Zerner damping         CNVZerner       .... off
 Static damping         CNVDamp         .... on
   Fraction old density DampFac         ....    0.7000
   Max. Damping (<1)    DampMax         ....    0.9800
   Min. Damping (>=0)   DampMin         ....    0.0000
   Turn off err/grad.   DampErr         ....    0.1000
 Fernandez-Rico         CNVRico         .... off

SCF Procedure:
 Maximum # iterations   MaxIter         ....   125
 SCF integral mode      SCFMode         .... Direct
   Integral package                     .... SHARK and LIBINT hybrid scheme
 Reset frequency        DirectResetFreq ....    20
 Integral Threshold     Thresh          ....  2.500e-11 Eh
 Primitive CutOff       TCut            ....  2.500e-12 Eh

Convergence Tolerance:
 Convergence Check Mode ConvCheckMode   .... Total+1el-Energy
 Convergence forced     ConvForced      .... 0
 Energy Change          TolE            ....  1.000e-08 Eh
 1-El. energy change                    ....  1.000e-05 Eh
 Orbital Gradient       TolG            ....  1.000e-05
 Orbital Rotation angle TolX            ....  1.000e-05
 DIIS Error             TolErr          ....  5.000e-07


Diagonalization of the overlap matrix:
Smallest eigenvalue                        ... 4.285e-04
Time for diagonalization                   ...    0.031 sec
Threshold for overlap eigenvalues          ... 1.000e-08
Number of eigenvalues below threshold      ... 0
Time for construction of square roots      ...    0.101 sec
Total time needed                          ...    0.133 sec

--------------------------------
INITIAL GUESS: MINIMAL BASIS EHT
--------------------------------
The minimal basis has 110 functions
EHT matrix was diagonalized
Basis set overlap was calculated now projecting the orbitals
Using GuessMode=FMatrix for the initial guess
C*T matrix was formed
Effective Fockian was calculated
Effective Fockian was diagonalized
Initial density was built
                      ------------------
                      INITIAL GUESS DONE
                      ------------------
-------------------
DFT GRID GENERATION
-------------------

General Integration Accuracy     IntAcc      ... 4.959
Radial Grid Type                 RadialGrid  ... OptM3 with GC (2021)
Angular Grid (max. ang.)         AngularGrid ... 6 (Lebedev-590)
Angular grid pruning method      GridPruning ... 4 (adaptive)
Weight generation scheme         WeightScheme... Becke
Basis function cutoff            BFCut       ... 1.0000e-11
Integration weight cutoff        WCut        ... 1.0000e-14
Angular grids for H and He will be reduced by one unit
Partially contracted basis set               ... off
Rotationally invariant grid construction     ... off

Total number of grid points                  ...   369996
Total number of batches                      ...     5794
Average number of points per batch           ...       63
Average number of grid points per atom       ...    12333
Time for grid setup =    7.465 sec

--------------------
COSX GRID GENERATION
--------------------

GRIDX 1
-------
General Integration Accuracy     IntAcc      ... 4.020
Radial Grid Type                 RadialGrid  ... OptM3 with GC (2021)
Angular Grid (max. ang.)         AngularGrid ... 2 (Lebedev-110)
Angular grid pruning method      GridPruning ... 4 (adaptive)
Weight generation scheme         WeightScheme... Becke
Basis function cutoff            BFCut       ... 1.0000e-11
Integration weight cutoff        WCut        ... 1.0000e-14
Angular grids for H and He will be reduced by one unit
Partially contracted basis set               ... on
Rotationally invariant grid construction     ... off

Total number of grid points                  ...    42892
Total number of batches                      ...      684
Average number of points per batch           ...       62
Average number of grid points per atom       ...     1430
UseSFitting                                  ... on

GRIDX 2
-------
General Integration Accuracy     IntAcc      ... 4.338
Radial Grid Type                 RadialGrid  ... OptM3 with GC (2021)
Angular Grid (max. ang.)         AngularGrid ... 3 (Lebedev-194)
Angular grid pruning method      GridPruning ... 4 (adaptive)
Weight generation scheme         WeightScheme... Becke
Basis function cutoff            BFCut       ... 1.0000e-11
Integration weight cutoff        WCut        ... 1.0000e-14
Angular grids for H and He will be reduced by one unit
Partially contracted basis set               ... on
Rotationally invariant grid construction     ... off

Total number of grid points                  ...    94272
Total number of batches                      ...     1488
Average number of points per batch           ...       63
Average number of grid points per atom       ...     3142
UseSFitting                                  ... on

GRIDX 3
-------
General Integration Accuracy     IntAcc      ... 4.871
Radial Grid Type                 RadialGrid  ... OptM3 with GC (2021)
Angular Grid (max. ang.)         AngularGrid ... 4 (Lebedev-302)
Angular grid pruning method      GridPruning ... 4 (adaptive)
Weight generation scheme         WeightScheme... Becke
Basis function cutoff            BFCut       ... 1.0000e-11
Integration weight cutoff        WCut        ... 1.0000e-14
Angular grids for H and He will be reduced by one unit
Partially contracted basis set               ... on
Rotationally invariant grid construction     ... off

Total number of grid points                  ...   173452
Total number of batches                      ...     2724
Average number of points per batch           ...       63
Average number of grid points per atom       ...     5782
UseSFitting                                  ... on

Time for X-Grid setup             =    8.993 sec

--------------
SCF ITERATIONS
--------------
ITER       Energy         Delta-E        Max-DP      RMS-DP      [F,P]     Damp
               ***  Starting incremental Fock matrix formation  ***
  0   -871.2339472936   0.000000000000 0.24979109  0.00595194  0.5538887 0.7000
  1   -872.1328665285  -0.898919234903 0.14133754  0.00331918  0.2866453 0.7000
  2   -872.6127257123  -0.479859183779 0.07795560  0.00231291  0.2016839 0.7000
                               ***Turning on DIIS***
  3   -872.9610490345  -0.348323322187 0.07395597  0.00175780  0.1427764 0.7000
  4   -873.2136197278  -0.252570693292 0.05093914  0.00128940  0.1004291 0.7000
  5   -873.3920091215  -0.178389393763 0.11424166  0.00307160  0.0702190 0.0000
  6   -873.8160334934  -0.424024371864 0.00464968  0.00009571  0.0055378 0.0000
                      *** Initiating the SOSCF procedure ***
                           *** Shutting down DIIS ***
                      *** Re-Reading the Fockian *** 
                      *** Removing any level shift *** 
ITER      Energy       Delta-E        Grad      Rot      Max-DP    RMS-DP
  7   -873.81628978  -0.0002562868  0.000883  0.000883  0.002536  0.000060
               *** Restarting incremental Fock matrix formation ***
  8   -873.81634574  -0.0000559594  0.001128  0.003287  0.003311  0.000041
  9   -873.81636242  -0.0000166775  0.000641  0.001576  0.002688  0.000052
 10   -873.81637494  -0.0000125215  0.000163  0.000814  0.000716  0.000015
 11   -873.81637647  -0.0000015277  0.000058  0.000169  0.000098  0.000003
 12   -873.81637648  -0.0000000145  0.000039  0.000062  0.000069  0.000002
 13   -873.81637655  -0.0000000650  0.000004  0.000025  0.000015  0.000000
 14   -873.81637654   0.0000000059  0.000004  0.000006  0.000011  0.000000
                  ***Gradient check signals convergence***
              ***Rediagonalizing the Fockian in SOSCF/NRSCF***

               *****************************************************
               *                     SUCCESS                       *
               *           SCF CONVERGED AFTER  15 CYCLES          *
               *****************************************************

Old exchange energy                            =    -48.750860335 Eh
New exchange energy                            =    -48.750852561 Eh
Exchange energy change after final integration =      0.000007775 Eh
Total energy after final integration           =   -873.816368774 Eh
Final COS-X integration done in                =    22.937 sec

----------------
TOTAL SCF ENERGY
----------------

Total Energy       :         -873.81636877 Eh          -23777.75223 eV

Components:
Nuclear Repulsion  :         1374.73837221 Eh           37408.53292 eV
Electronic Energy  :        -2248.55474099 Eh          -61186.28515 eV
One Electron Energy:        -3916.29176771 Eh         -106567.71680 eV
Two Electron Energy:         1667.73702672 Eh           45381.43164 eV
Max COSX asymmetry :            0.00000161 Eh               0.00004 eV

Virial components:
Potential Energy   :        -1740.44267610 Eh          -47359.85295 eV
Kinetic Energy     :          866.62630733 Eh           23582.10071 eV
Virial Ratio       :            2.00829661


DFT components:
N(Alpha)           :       68.000001457766 electrons
N(Beta)            :       68.000001457766 electrons
N(Total)           :      136.000002915532 electrons
E(X)               :      -64.864061174039 Eh       
E(C)               :       -6.017384048178 Eh       
E(XC)              :      -70.881445222217 Eh       
DFET-embed. en.    :        0.000000000000 Eh       

---------------
SCF CONVERGENCE
---------------

  Last Energy change         ...   -8.2517e-09  Tolerance :   1.0000e-08
  Last MAX-Density change    ...    1.8874e-15  Tolerance :   1.0000e-07
  Last RMS-Density change    ...    3.0670e-17  Tolerance :   5.0000e-09
  Last Orbital Gradient      ...    6.5054e-07  Tolerance :   1.0000e-05
  Last Orbital Rotation      ...    4.0855e-06  Tolerance :   1.0000e-05

             **** THE GBW FILE WAS UPDATED (pbeh-3c.gbw) ****
             **** DENSITY pbeh-3c.scfp WAS UPDATED ****
             **** ENERGY FILE WAS UPDATED (pbeh-3c.en.tmp) ****
             **** THE GBW FILE WAS UPDATED (pbeh-3c.gbw) ****
             **** DENSITY pbeh-3c.scfp WAS UPDATED ****
----------------
ORBITAL ENERGIES
----------------

  NO   OCC          E(Eh)            E(eV) 
   0   2.0000     -19.495752      -530.5064 
   1   2.0000     -19.495750      -530.5063 
   2   2.0000     -14.690884      -399.7593 
   3   2.0000     -14.690858      -399.7586 
   4   2.0000     -10.549995      -287.0800 
   5   2.0000     -10.549979      -287.0795 
   6   2.0000     -10.515801      -286.1495 
   7   2.0000     -10.515793      -286.1493 
   8   2.0000     -10.513486      -286.0865 
   9   2.0000     -10.512764      -286.0669 
  10   2.0000     -10.474733      -285.0320 
  11   2.0000     -10.474731      -285.0319 
  12   2.0000     -10.473496      -284.9983 
  13   2.0000     -10.473495      -284.9983 
  14   2.0000     -10.467132      -284.8252 
  15   2.0000     -10.467127      -284.8250 
  16   2.0000     -10.462030      -284.6863 
  17   2.0000     -10.462029      -284.6863 
  18   2.0000     -10.458540      -284.5913 
  19   2.0000     -10.458539      -284.5913 
  20   2.0000      -1.153852       -31.3979 
  21   2.0000      -1.148377       -31.2489 
  22   2.0000      -1.098416       -29.8894 
  23   2.0000      -1.090908       -29.6851 
  24   2.0000      -0.963836       -26.2273 
  25   2.0000      -0.957697       -26.0603 
  26   2.0000      -0.884047       -24.0561 
  27   2.0000      -0.875595       -23.8262 
  28   2.0000      -0.868570       -23.6350 
  29   2.0000      -0.844727       -22.9862 
  30   2.0000      -0.829898       -22.5827 
  31   2.0000      -0.792712       -21.5708 
  32   2.0000      -0.745269       -20.2798 
  33   2.0000      -0.708849       -19.2888 
  34   2.0000      -0.690499       -18.7894 
  35   2.0000      -0.676605       -18.4114 
  36   2.0000      -0.648499       -17.6466 
  37   2.0000      -0.647611       -17.6224 
  38   2.0000      -0.616084       -16.7645 
  39   2.0000      -0.610574       -16.6146 
  40   2.0000      -0.582222       -15.8431 
  41   2.0000      -0.574804       -15.6412 
  42   2.0000      -0.550992       -14.9932 
  43   2.0000      -0.528040       -14.3687 
  44   2.0000      -0.524326       -14.2676 
  45   2.0000      -0.523616       -14.2483 
  46   2.0000      -0.518242       -14.1021 
  47   2.0000      -0.512013       -13.9326 
  48   2.0000      -0.511211       -13.9108 
  49   2.0000      -0.498445       -13.5634 
  50   2.0000      -0.497488       -13.5373 
  51   2.0000      -0.495178       -13.4745 
  52   2.0000      -0.493245       -13.4219 
  53   2.0000      -0.442318       -12.0361 
  54   2.0000      -0.438039       -11.9197 
  55   2.0000      -0.436286       -11.8720 
  56   2.0000      -0.431475       -11.7410 
  57   2.0000      -0.420265       -11.4360 
  58   2.0000      -0.420136       -11.4325 
  59   2.0000      -0.418682       -11.3929 
  60   2.0000      -0.399536       -10.8719 
  61   2.0000      -0.336258        -9.1500 
  62   2.0000      -0.319831        -8.7031 
  63   2.0000      -0.314887        -8.5685 
  64   2.0000      -0.312521        -8.5041 
  65   2.0000      -0.309029        -8.4091 
  66   2.0000      -0.274979        -7.4826 
  67   2.0000      -0.232945        -6.3388 
  68   0.0000      -0.093275        -2.5381 
  69   0.0000      -0.028260        -0.7690 
  70   0.0000       0.008959         0.2438 
  71   0.0000       0.025138         0.6840 
  72   0.0000       0.037752         1.0273 
  73   0.0000       0.085622         2.3299 
  74   0.0000       0.127168         3.4604 
  75   0.0000       0.138764         3.7760 
  76   0.0000       0.143304         3.8995 
  77   0.0000       0.158007         4.2996 
  78   0.0000       0.163739         4.4556 
  79   0.0000       0.169601         4.6151 
  80   0.0000       0.189017         5.1434 
  81   0.0000       0.203886         5.5480 
  82   0.0000       0.204234         5.5575 
  83   0.0000       0.205121         5.5816 
  84   0.0000       0.210149         5.7185 
  85   0.0000       0.211641         5.7591 
  86   0.0000       0.213246         5.8027 
  87   0.0000       0.225342         6.1319 
  88   0.0000       0.248527         6.7628 
  89   0.0000       0.259329         7.0567 
  90   0.0000       0.267944         7.2911 
  91   0.0000       0.279247         7.5987 
  92   0.0000       0.281021         7.6470 
  93   0.0000       0.314613         8.5610 
  94   0.0000       0.315892         8.5959 
  95   0.0000       0.329003         8.9526 
  96   0.0000       0.333656         9.0792 
  97   0.0000       0.333891         9.0856 
  98   0.0000       0.354992         9.6598 
  99   0.0000       0.357449         9.7267 
 100   0.0000       0.368206        10.0194 
 101   0.0000       0.374231        10.1833 
 102   0.0000       0.419439        11.4135 
 103   0.0000       0.421721        11.4756 
 104   0.0000       0.433234        11.7889 
 105   0.0000       0.443472        12.0675 
 106   0.0000       0.488093        13.2817 
 107   0.0000       0.499264        13.5857 
 108   0.0000       0.501025        13.6336 
 109   0.0000       0.511425        13.9166 
 110   0.0000       0.520262        14.1571 
 111   0.0000       0.527752        14.3609 
 112   0.0000       0.527969        14.3668 
 113   0.0000       0.539723        14.6866 
 114   0.0000       0.551758        15.0141 
 115   0.0000       0.566232        15.4079 
 116   0.0000       0.567000        15.4288 
 117   0.0000       0.567250        15.4357 
 118   0.0000       0.572173        15.5696 
 119   0.0000       0.576289        15.6816 
 120   0.0000       0.590183        16.0597 
 121   0.0000       0.596604        16.2344 
 122   0.0000       0.598782        16.2937 
 123   0.0000       0.599232        16.3059 
 124   0.0000       0.615189        16.7401 
 125   0.0000       0.616264        16.7694 
 126   0.0000       0.617613        16.8061 
 127   0.0000       0.618957        16.8427 
 128   0.0000       0.624942        17.0055 
 129   0.0000       0.625045        17.0083 
 130   0.0000       0.629223        17.1220 
 131   0.0000       0.634827        17.2745 
 132   0.0000       0.655123        17.8268 
 133   0.0000       0.661678        18.0052 
 134   0.0000       0.676216        18.4008 
 135   0.0000       0.676557        18.4101 
 136   0.0000       0.678526        18.4636 
 137   0.0000       0.707894        19.2628 
 138   0.0000       0.712450        19.3868 
 139   0.0000       0.731845        19.9145 
 140   0.0000       0.746143        20.3036 
 141   0.0000       0.752541        20.4777 
 142   0.0000       0.754537        20.5320 
 143   0.0000       0.771192        20.9852 
 144   0.0000       0.787131        21.4189 
 145   0.0000       0.788406        21.4536 
 146   0.0000       0.860819        23.4241 
 147   0.0000       0.878257        23.8986 
 148   0.0000       0.899271        24.4704 
 149   0.0000       0.905883        24.6503 
 150   0.0000       0.917179        24.9577 
 151   0.0000       0.923347        25.1255 
 152   0.0000       0.927824        25.2474 
 153   0.0000       0.927967        25.2513 
 154   0.0000       0.934385        25.4259 
 155   0.0000       0.949411        25.8348 
 156   0.0000       0.954597        25.9759 
 157   0.0000       0.958983        26.0952 
 158   0.0000       0.974096        26.5065 
 159   0.0000       0.989131        26.9156 
 160   0.0000       0.997076        27.1318 
 161   0.0000       0.998112        27.1600 
 162   0.0000       1.002260        27.2729 
 163   0.0000       1.019605        27.7449 
 164   0.0000       1.032880        28.1061 
 165   0.0000       1.034772        28.1576 
 166   0.0000       1.049024        28.5454 
 167   0.0000       1.050193        28.5772 
 168   0.0000       1.064394        28.9636 
 169   0.0000       1.082490        29.4561 
 170   0.0000       1.090640        29.6778 
 171   0.0000       1.101506        29.9735 
 172   0.0000       1.114121        30.3168 
 173   0.0000       1.118615        30.4391 
 174   0.0000       1.128146        30.6984 
 175   0.0000       1.133610        30.8471 
 176   0.0000       1.144302        31.1380 
 177   0.0000       1.156887        31.4805 
 178   0.0000       1.180841        32.1323 
 179   0.0000       1.201377        32.6911 
 180   0.0000       1.234162        33.5833 
 181   0.0000       1.253626        34.1129 
 182   0.0000       1.271075        34.5877 
 183   0.0000       1.279846        34.8264 
 184   0.0000       1.292701        35.1762 
 185   0.0000       1.300926        35.4000 
 186   0.0000       1.306815        35.5602 
 187   0.0000       1.319560        35.9070 
 188   0.0000       1.345895        36.6237 
 189   0.0000       1.346812        36.6486 
 190   0.0000       1.356073        36.9006 
 191   0.0000       1.368187        37.2302 
 192   0.0000       1.369453        37.2647 
 193   0.0000       1.381430        37.5906 
 194   0.0000       1.388993        37.7964 
 195   0.0000       1.401593        38.1393 
 196   0.0000       1.442840        39.2617 
 197   0.0000       1.464914        39.8623 
 198   0.0000       1.472757        40.0757 
 199   0.0000       1.490465        40.5576 
 200   0.0000       1.491578        40.5879 
 201   0.0000       1.495475        40.6939 
 202   0.0000       1.516142        41.2563 
 203   0.0000       1.517216        41.2855 
 204   0.0000       1.520329        41.3703 
 205   0.0000       1.532074        41.6898 
 206   0.0000       1.534727        41.7620 
 207   0.0000       1.535097        41.7721 
 208   0.0000       1.552176        42.2368 
 209   0.0000       1.573155        42.8077 
 210   0.0000       1.593349        43.3572 
 211   0.0000       1.716192        46.6999 
 212   0.0000       1.738042        47.2945 
 213   0.0000       1.744207        47.4623 
 214   0.0000       1.745666        47.5020 
 215   0.0000       1.763349        47.9832 
 216   0.0000       1.772056        48.2201 
 217   0.0000       1.789359        48.6909 
 218   0.0000       1.803457        49.0746 
 219   0.0000       1.805356        49.1262 
 220   0.0000       1.832245        49.8579 
 221   0.0000       1.863588        50.7108 
 222   0.0000       1.864371        50.7321 
 223   0.0000       1.865112        50.7523 
 224   0.0000       1.892450        51.4962 
 225   0.0000       1.894991        51.5653 
 226   0.0000       1.925939        52.4075 
 227   0.0000       1.949255        53.0419 
 228   0.0000       1.970936        53.6319 
 229   0.0000       1.994642        54.2770 
 230   0.0000       1.999768        54.4165 
 231   0.0000       2.004842        54.5545 
 232   0.0000       2.008089        54.6429 
 233   0.0000       2.011328        54.7310 
 234   0.0000       2.062969        56.1362 
 235   0.0000       2.071065        56.3565 
 236   0.0000       2.081848        56.6500 
 237   0.0000       2.089256        56.8515 
 238   0.0000       2.102386        57.2088 
 239   0.0000       2.109150        57.3929 
 240   0.0000       2.119975        57.6875 
 241   0.0000       2.121907        57.7400 
 242   0.0000       2.149897        58.5017 
 243   0.0000       2.152158        58.5632 
 244   0.0000       2.177567        59.2546 
 245   0.0000       2.197666        59.8015 
 246   0.0000       2.223382        60.5013 
 247   0.0000       2.223665        60.5090 
 248   0.0000       2.232713        60.7552 
 249   0.0000       2.260558        61.5129 
 250   0.0000       2.271300        61.8052 
 251   0.0000       2.280184        62.0470 
 252   0.0000       2.286931        62.2306 
 253   0.0000       2.296806        62.4993 
 254   0.0000       2.302212        62.6464 
 255   0.0000       2.323567        63.2275 
 256   0.0000       2.327033        63.3218 
 257   0.0000       2.327506        63.3347 
 258   0.0000       2.334831        63.5340 
 259   0.0000       2.372483        64.5585 
 260   0.0000       2.392541        65.1043 
 261   0.0000       2.402293        65.3697 
 262   0.0000       2.436728        66.3068 
 263   0.0000       2.466010        67.1035 
 264   0.0000       2.476236        67.3818 
 265   0.0000       2.483911        67.5906 
 266   0.0000       2.505919        68.1895 
 267   0.0000       2.574471        70.0549 
 268   0.0000       2.604846        70.8815 
 269   0.0000       2.606334        70.9220 
 270   0.0000       2.624532        71.4171 
 271   0.0000       2.637668        71.7746 
 272   0.0000       2.639502        71.8245 
 273   0.0000       2.653766        72.2126 
 274   0.0000       2.680988        72.9534 
 275   0.0000       2.698374        73.4265 
 276   0.0000       2.706507        73.6478 
 277   0.0000       2.716264        73.9133 
 278   0.0000       2.721770        74.0631 
 279   0.0000       2.744157        74.6723 
 280   0.0000       2.769408        75.3594 
 281   0.0000       2.789250        75.8993 
 282   0.0000       2.807681        76.4009 
 283   0.0000       2.824236        76.8514 
 284   0.0000       2.854756        77.6819 
 285   0.0000       2.856712        77.7351 
 286   0.0000       2.900961        78.9392 
 287   0.0000       2.927805        79.6696 
 288   0.0000       2.953234        80.3616 
 289   0.0000       2.961417        80.5843 
 290   0.0000       3.009904        81.9036 
 291   0.0000       3.017220        82.1027 
 292   0.0000       3.074939        83.6733 
 293   0.0000       3.139300        85.4247 
 294   0.0000       3.276215        89.1503 
 295   0.0000       3.331011        90.6414 
 296   0.0000       3.358564        91.3912 
 297   0.0000       3.392357        92.3107 
 298   0.0000       3.464716        94.2797 
 299   0.0000       3.549795        96.5948 
 300   0.0000      13.230143       360.0105 
 301   0.0000      13.309679       362.1748 
 302   0.0000      13.601288       370.1099 
 303   0.0000      13.670638       371.9970 
 304   0.0000      13.692075       372.5803 
 305   0.0000      13.698377       372.7518 
 306   0.0000      13.792521       375.3136 
 307   0.0000      13.972393       380.2081 
 308   0.0000      14.021468       381.5436 
 309   0.0000      14.156155       385.2086 
 310   0.0000      14.159632       385.3032 
 311   0.0000      14.195439       386.2775 
 312   0.0000      14.220994       386.9729 
 313   0.0000      14.398473       391.8024 
 314   0.0000      14.517274       395.0351 
 315   0.0000      14.523043       395.1921 
 316   0.0000      19.415113       528.3121 
 317   0.0000      19.475556       529.9568 
 318   0.0000      25.760036       700.9662 
 319   0.0000      25.762892       701.0439 

                    ********************************
                    * MULLIKEN POPULATION ANALYSIS *
                    ********************************

-----------------------
MULLIKEN ATOMIC CHARGES
-----------------------
   0 C :   -0.258707
   1 C :   -0.241872
   2 C :   -0.213110
   3 C :   -0.299783
   4 C :    0.420833
   5 C :   -0.093674
   6 C :    0.337659
   7 C :    0.201480
   8 N :   -0.800509
   9 O :   -0.383698
  10 C :    0.201485
  11 N :   -0.800510
  12 C :    0.420831
  13 C :   -0.093675
  14 C :    0.337660
  15 C :   -0.299781
  16 C :   -0.213112
  17 C :   -0.241872
  18 C :   -0.258705
  19 O :   -0.383698
  20 H :    0.243534
  21 H :    0.227319
  22 H :    0.232564
  23 H :    0.229731
  24 H :    0.398230
  25 H :    0.398230
  26 H :    0.229732
  27 H :    0.232564
  28 H :    0.227319
  29 H :    0.243534
Sum of atomic charges:    0.0000000

--------------------------------
MULLIKEN REDUCED ORBITAL CHARGES
--------------------------------
  0 C s       :     3.322695  s :     3.322695
      pz      :     0.917913  p :     2.895365
      px      :     0.915838
      py      :     1.061614
      dz2     :     0.003905  d :     0.040647
      dxz     :     0.008168
      dyz     :     0.002524
      dx2y2   :     0.015011
      dxy     :     0.011040
  1 C s       :     3.244330  s :     3.244330
      pz      :     1.042644  p :     2.959479
      px      :     1.010029
      py      :     0.906807
      dz2     :     0.003873  d :     0.038063
      dxz     :     0.003011
      dyz     :     0.005059
      dx2y2   :     0.012984
      dxy     :     0.013137
  2 C s       :     3.265504  s :     3.265504
      pz      :     0.942047  p :     2.907399
      px      :     1.008842
      py      :     0.956510
      dz2     :     0.003858  d :     0.040207
      dxz     :     0.004231
      dyz     :     0.006110
      dx2y2   :     0.011178
      dxy     :     0.014829
  3 C s       :     3.271980  s :     3.271980
      pz      :     1.062580  p :     2.990035
      px      :     0.922056
      py      :     1.005399
      dz2     :     0.004020  d :     0.037768
      dxz     :     0.005790
      dyz     :     0.002565
      dx2y2   :     0.013735
      dxy     :     0.011659
  4 C s       :     3.078809  s :     3.078809
      pz      :     0.929178  p :     2.435234
      px      :     0.695424
      py      :     0.810632
      dz2     :     0.004486  d :     0.065124
      dxz     :     0.015297
      dyz     :     0.007865
      dx2y2   :     0.021386
      dxy     :     0.016089
  5 C s       :     3.212197  s :     3.212197
      pz      :     1.109593  p :     2.840240
      px      :     0.859071
      py      :     0.871575
      dz2     :     0.003973  d :     0.041237
      dxz     :     0.004894
      dyz     :     0.005068
      dx2y2   :     0.016338
      dxy     :     0.010964
  6 C s       :     3.116744  s :     3.116744
      pz      :     0.791516  p :     2.448492
      px      :     0.808896
      py      :     0.848080
      dz2     :     0.005629  d :     0.097105
      dxz     :     0.007257
      dyz     :     0.017475
      dx2y2   :     0.028309
      dxy     :     0.038435
  7 C s       :     3.169033  s :     3.169033
      pz      :     1.016062  p :     2.569980
      px      :     0.739168
      py      :     0.814750
      dz2     :     0.004639  d :     0.059508
      dxz     :     0.010853
      dyz     :     0.008938
      dx2y2   :     0.014378
      dxy     :     0.020699
  8 N s       :     3.626879  s :     3.626879
      pz      :     1.657901  p :     4.135063
      px      :     1.206060
      py      :     1.271102
      dz2     :     0.004315  d :     0.038568
      dxz     :     0.006545
      dyz     :     0.003444
      dx2y2   :     0.011768
      dxy     :     0.012496
  9 O s       :     3.775653  s :     3.775653
      pz      :     1.394555  p :     4.579500
      px      :     1.764674
      py      :     1.420270
      dz2     :     0.002562  d :     0.028545
      dxz     :     0.000952
      dyz     :     0.009965
      dx2y2   :     0.007796
      dxy     :     0.007270
 10 C s       :     3.169032  s :     3.169032
      pz      :     1.016062  p :     2.569976
      px      :     0.739166
      py      :     0.814749
      dz2     :     0.004639  d :     0.059508
      dxz     :     0.010853
      dyz     :     0.008938
      dx2y2   :     0.014378
      dxy     :     0.020699
 11 N s       :     3.626878  s :     3.626878
      pz      :     1.657901  p :     4.135064
      px      :     1.206061
      py      :     1.271102
      dz2     :     0.004315  d :     0.038568
      dxz     :     0.006545
      dyz     :     0.003444
      dx2y2   :     0.011768
      dxy     :     0.012496
 12 C s       :     3.078809  s :     3.078809
      pz      :     0.929178  p :     2.435237
      px      :     0.695427
      py      :     0.810632
      dz2     :     0.004486  d :     0.065124
      dxz     :     0.015297
      dyz     :     0.007865
      dx2y2   :     0.021386
      dxy     :     0.016089
 13 C s       :     3.212196  s :     3.212196
      pz      :     1.109593  p :     2.840242
      px      :     0.859074
      py      :     0.871575
      dz2     :     0.003973  d :     0.041237
      dxz     :     0.004894
      dyz     :     0.005068
      dx2y2   :     0.016338
      dxy     :     0.010964
 14 C s       :     3.116743  s :     3.116743
      pz      :     0.791516  p :     2.448492
      px      :     0.808897
      py      :     0.848080
      dz2     :     0.005629  d :     0.097105
      dxz     :     0.007257
      dyz     :     0.017475
      dx2y2   :     0.028309
      dxy     :     0.038435
 15 C s       :     3.271977  s :     3.271977
      pz      :     1.062580  p :     2.990036
      px      :     0.922056
      py      :     1.005400
      dz2     :     0.004020  d :     0.037768
      dxz     :     0.005790
      dyz     :     0.002565
      dx2y2   :     0.013735
      dxy     :     0.011659
 16 C s       :     3.265504  s :     3.265504
      pz      :     0.942047  p :     2.907401
      px      :     1.008844
      py      :     0.956510
      dz2     :     0.003858  d :     0.040207
      dxz     :     0.004231
      dyz     :     0.006110
      dx2y2   :     0.011178
      dxy     :     0.014829
 17 C s       :     3.244330  s :     3.244330
      pz      :     1.042644  p :     2.959479
      px      :     1.010029
      py      :     0.906806
      dz2     :     0.003873  d :     0.038063
      dxz     :     0.003011
      dyz     :     0.005059
      dx2y2   :     0.012984
      dxy     :     0.013137
 18 C s       :     3.322694  s :     3.322694
      pz      :     0.917913  p :     2.895364
      px      :     0.915838
      py      :     1.061613
      dz2     :     0.003905  d :     0.040647
      dxz     :     0.008168
      dyz     :     0.002524
      dx2y2   :     0.015011
      dxy     :     0.011040
 19 O s       :     3.775653  s :     3.775653
      pz      :     1.394555  p :     4.579500
      px      :     1.764674
      py      :     1.420271
      dz2     :     0.002562  d :     0.028545
      dxz     :     0.000952
      dyz     :     0.009965
      dx2y2   :     0.007796
      dxy     :     0.007270
 20 H s       :     0.756466  s :     0.756466
 21 H s       :     0.772681  s :     0.772681
 22 H s       :     0.767436  s :     0.767436
 23 H s       :     0.770269  s :     0.770269
 24 H s       :     0.601770  s :     0.601770
 25 H s       :     0.601770  s :     0.601770
 26 H s       :     0.770268  s :     0.770268
 27 H s       :     0.767436  s :     0.767436
 28 H s       :     0.772681  s :     0.772681
 29 H s       :     0.756466  s :     0.756466


                     *******************************
                     * LOEWDIN POPULATION ANALYSIS *
                     *******************************

----------------------
LOEWDIN ATOMIC CHARGES
----------------------
   0 C :   -0.076026
   1 C :   -0.165125
   2 C :   -0.095531
   3 C :   -0.170091
   4 C :    0.067174
   5 C :   -0.121698
   6 C :    0.114494
   7 C :   -0.002661
   8 N :   -0.177889
   9 O :   -0.234820
  10 C :   -0.002661
  11 N :   -0.177889
  12 C :    0.067173
  13 C :   -0.121698
  14 C :    0.114494
  15 C :   -0.170090
  16 C :   -0.095531
  17 C :   -0.165125
  18 C :   -0.076026
  19 O :   -0.234820
  20 H :    0.153086
  21 H :    0.140412
  22 H :    0.142616
  23 H :    0.144631
  24 H :    0.281428
  25 H :    0.281428
  26 H :    0.144631
  27 H :    0.142616
  28 H :    0.140412
  29 H :    0.153086

-------------------------------
LOEWDIN REDUCED ORBITAL CHARGES
-------------------------------
  0 C s       :     2.895970  s :     2.895970
      pz      :     0.921490  p :     3.089354
      px      :     1.075306
      py      :     1.092557
      dz2     :     0.006173  d :     0.090702
      dxz     :     0.017022
      dyz     :     0.003776
      dx2y2   :     0.035295
      dxy     :     0.028436
  1 C s       :     2.893744  s :     2.893744
      pz      :     1.032632  p :     3.185262
      px      :     1.078180
      py      :     1.074450
      dz2     :     0.006276  d :     0.086119
      dxz     :     0.004952
      dyz     :     0.010209
      dx2y2   :     0.032369
      dxy     :     0.032312
  2 C s       :     2.901154  s :     2.901154
      pz      :     0.936182  p :     3.105253
      px      :     1.080691
      py      :     1.088380
      dz2     :     0.006094  d :     0.089125
      dxz     :     0.007784
      dyz     :     0.012203
      dx2y2   :     0.028254
      dxy     :     0.034790
  3 C s       :     2.890267  s :     2.890267
      pz      :     1.051062  p :     3.194470
      px      :     1.066601
      py      :     1.076807
      dz2     :     0.006515  d :     0.085353
      dxz     :     0.011925
      dyz     :     0.003663
      dx2y2   :     0.032786
      dxy     :     0.030464
  4 C s       :     2.821417  s :     2.821417
      pz      :     0.927582  p :     2.961050
      px      :     0.964822
      py      :     1.068647
      dz2     :     0.009229  d :     0.150360
      dxz     :     0.030854
      dyz     :     0.015772
      dx2y2   :     0.054313
      dxy     :     0.040190
  5 C s       :     2.848619  s :     2.848619
      pz      :     1.069717  p :     3.169772
      px      :     1.058713
      py      :     1.041342
      dz2     :     0.007731  d :     0.103307
      dxz     :     0.009726
      dyz     :     0.010004
      dx2y2   :     0.045181
      dxy     :     0.030664
  6 C s       :     2.843142  s :     2.843142
      pz      :     0.790880  p :     2.817448
      px      :     1.017613
      py      :     1.008955
      dz2     :     0.012441  d :     0.224917
      dxz     :     0.013884
      dyz     :     0.034455
      dx2y2   :     0.067904
      dxy     :     0.096232
  7 C s       :     2.840087  s :     2.840087
      pz      :     0.999255  p :     3.022441
      px      :     1.043504
      py      :     0.979682
      dz2     :     0.010156  d :     0.140134
      dxz     :     0.022207
      dyz     :     0.018362
      dx2y2   :     0.035979
      dxy     :     0.053429
  8 N s       :     3.074766  s :     3.074766
      pz      :     1.621171  p :     4.014872
      px      :     1.178999
      py      :     1.214701
      dz2     :     0.005622  d :     0.088251
      dxz     :     0.013869
      dyz     :     0.006620
      dx2y2   :     0.030633
      dxy     :     0.031507
  9 O s       :     3.528255  s :     3.528255
      pz      :     1.388182  p :     4.651999
      px      :     1.761797
      py      :     1.502020
      dz2     :     0.006282  d :     0.054566
      dxz     :     0.001369
      dyz     :     0.013189
      dx2y2   :     0.017960
      dxy     :     0.015767
 10 C s       :     2.840087  s :     2.840087
      pz      :     0.999255  p :     3.022441
      px      :     1.043504
      py      :     0.979682
      dz2     :     0.010156  d :     0.140134
      dxz     :     0.022207
      dyz     :     0.018362
      dx2y2   :     0.035979
      dxy     :     0.053429
 11 N s       :     3.074766  s :     3.074766
      pz      :     1.621171  p :     4.014872
      px      :     1.178999
      py      :     1.214701
      dz2     :     0.005622  d :     0.088251
      dxz     :     0.013869
      dyz     :     0.006620
      dx2y2   :     0.030633
      dxy     :     0.031507
 12 C s       :     2.821417  s :     2.821417
      pz      :     0.927582  p :     2.961050
      px      :     0.964822
      py      :     1.068647
      dz2     :     0.009229  d :     0.150360
      dxz     :     0.030854
      dyz     :     0.015772
      dx2y2   :     0.054313
      dxy     :     0.040190
 13 C s       :     2.848619  s :     2.848619
      pz      :     1.069717  p :     3.169772
      px      :     1.058713
      py      :     1.041342
      dz2     :     0.007731  d :     0.103307
      dxz     :     0.009726
      dyz     :     0.010004
      dx2y2   :     0.045181
      dxy     :     0.030664
 14 C s       :     2.843142  s :     2.843142
      pz      :     0.790880  p :     2.817448
      px      :     1.017613
      py      :     1.008955
      dz2     :     0.012441  d :     0.224917
      dxz     :     0.013884
      dyz     :     0.034455
      dx2y2   :     0.067904
      dxy     :     0.096232
 15 C s       :     2.890267  s :     2.890267
      pz      :     1.051062  p :     3.194470
      px      :     1.066601
      py      :     1.076807
      dz2     :     0.006515  d :     0.085353
      dxz     :     0.011925
      dyz     :     0.003663
      dx2y2   :     0.032786
      dxy     :     0.030464
 16 C s       :     2.901154  s :     2.901154
      pz      :     0.936182  p :     3.105253
      px      :     1.080691
      py      :     1.088380
      dz2     :     0.006094  d :     0.089125
      dxz     :     0.007784
      dyz     :     0.012203
      dx2y2   :     0.028254
      dxy     :     0.034790
 17 C s       :     2.893744  s :     2.893744
      pz      :     1.032632  p :     3.185262
      px      :     1.078180
      py      :     1.074450
      dz2     :     0.006276  d :     0.086119
      dxz     :     0.004952
      dyz     :     0.010209
      dx2y2   :     0.032369
      dxy     :     0.032312
 18 C s       :     2.895970  s :     2.895970
      pz      :     0.921490  p :     3.089353
      px      :     1.075306
      py      :     1.092557
      dz2     :     0.006173  d :     0.090702
      dxz     :     0.017022
      dyz     :     0.003776
      dx2y2   :     0.035295
      dxy     :     0.028436
 19 O s       :     3.528255  s :     3.528255
      pz      :     1.388182  p :     4.651999
      px      :     1.761797
      py      :     1.502020
      dz2     :     0.006282  d :     0.054566
      dxz     :     0.001369
      dyz     :     0.013189
      dx2y2   :     0.017960
      dxy     :     0.015767
 20 H s       :     0.846914  s :     0.846914
 21 H s       :     0.859588  s :     0.859588
 22 H s       :     0.857384  s :     0.857384
 23 H s       :     0.855369  s :     0.855369
 24 H s       :     0.718572  s :     0.718572
 25 H s       :     0.718572  s :     0.718572
 26 H s       :     0.855369  s :     0.855369
 27 H s       :     0.857384  s :     0.857384
 28 H s       :     0.859588  s :     0.859588
 29 H s       :     0.846914  s :     0.846914


                      *****************************
                      * MAYER POPULATION ANALYSIS *
                      *****************************

  NA   - Mulliken gross atomic population
  ZA   - Total nuclear charge
  QA   - Mulliken gross atomic charge
  VA   - Mayer's total valence
  BVA  - Mayer's bonded valence
  FA   - Mayer's free valence

  ATOM       NA         ZA         QA         VA         BVA        FA
  0 C      6.2587     6.0000    -0.2587     3.7974     3.7974    -0.0000
  1 C      6.2419     6.0000    -0.2419     3.7978     3.7978     0.0000
  2 C      6.2131     6.0000    -0.2131     3.8364     3.8364     0.0000
  3 C      6.2998     6.0000    -0.2998     3.7585     3.7585    -0.0000
  4 C      5.5792     6.0000     0.4208     3.5955     3.5955    -0.0000
  5 C      6.0937     6.0000    -0.0937     3.6442     3.6442    -0.0000
  6 C      5.6623     6.0000     0.3377     3.9654     3.9654     0.0000
  7 C      5.7985     6.0000     0.2015     3.4753     3.4753     0.0000
  8 N      7.8005     7.0000    -0.8005     3.0705     3.0705    -0.0000
  9 O      8.3837     8.0000    -0.3837     2.2342     2.2342    -0.0000
 10 C      5.7985     6.0000     0.2015     3.4753     3.4753    -0.0000
 11 N      7.8005     7.0000    -0.8005     3.0705     3.0705    -0.0000
 12 C      5.5792     6.0000     0.4208     3.5955     3.5955    -0.0000
 13 C      6.0937     6.0000    -0.0937     3.6442     3.6442     0.0000
 14 C      5.6623     6.0000     0.3377     3.9654     3.9654     0.0000
 15 C      6.2998     6.0000    -0.2998     3.7585     3.7585     0.0000
 16 C      6.2131     6.0000    -0.2131     3.8364     3.8364    -0.0000
 17 C      6.2419     6.0000    -0.2419     3.7978     3.7978     0.0000
 18 C      6.2587     6.0000    -0.2587     3.7974     3.7974     0.0000
 19 O      8.3837     8.0000    -0.3837     2.2342     2.2342     0.0000
 20 H      0.7565     1.0000     0.2435     0.9094     0.9094    -0.0000
 21 H      0.7727     1.0000     0.2273     0.9112     0.9112     0.0000
 22 H      0.7674     1.0000     0.2326     0.9083     0.9083     0.0000
 23 H      0.7703     1.0000     0.2297     0.9096     0.9096     0.0000
 24 H      0.6018     1.0000     0.3982     0.8469     0.8469    -0.0000
 25 H      0.6018     1.0000     0.3982     0.8469     0.8469    -0.0000
 26 H      0.7703     1.0000     0.2297     0.9096     0.9096     0.0000
 27 H      0.7674     1.0000     0.2326     0.9083     0.9083    -0.0000
 28 H      0.7727     1.0000     0.2273     0.9112     0.9112    -0.0000
 29 H      0.7565     1.0000     0.2435     0.9094     0.9094     0.0000

  Mayer bond orders larger than 0.100000
B(  0-C ,  1-C ) :   1.4458 B(  0-C ,  5-C ) :   1.3450 B(  0-C , 20-H ) :   0.9186 
B(  1-C ,  2-C ) :   1.3864 B(  1-C , 21-H ) :   0.9177 B(  2-C ,  3-C ) :   1.4454 
B(  2-C , 22-H ) :   0.9161 B(  3-C ,  4-C ) :   1.3223 B(  3-C , 23-H ) :   0.9159 
B(  4-C ,  5-C ) :   1.2291 B(  4-C ,  8-N ) :   1.0062 B(  5-C ,  6-C ) :   1.0424 
B(  6-C ,  7-C ) :   0.9386 B(  6-C ,  9-O ) :   2.0056 B(  7-C ,  8-N ) :   1.0703 
B(  7-C , 10-C ) :   1.3977 B(  8-N , 24-H ) :   0.7808 B( 10-C , 11-N ) :   1.0703 
B( 10-C , 14-C ) :   0.9386 B( 11-N , 12-C ) :   1.0062 B( 11-N , 25-H ) :   0.7808 
B( 12-C , 13-C ) :   1.2291 B( 12-C , 15-C ) :   1.3223 B( 13-C , 14-C ) :   1.0424 
B( 13-C , 18-C ) :   1.3450 B( 14-C , 19-O ) :   2.0056 B( 15-C , 16-C ) :   1.4454 
B( 15-C , 26-H ) :   0.9159 B( 16-C , 17-C ) :   1.3864 B( 16-C , 27-H ) :   0.9161 
B( 17-C , 18-C ) :   1.4458 B( 17-C , 28-H ) :   0.9177 B( 18-C , 29-H ) :   0.9186 


-------
TIMINGS
-------

Total SCF time: 0 days 0 hours 5 min 21 sec 

Total time                  ....     321.126 sec
Sum of individual times     ....     314.638 sec  ( 98.0%)

Fock matrix formation       ....     288.251 sec  ( 89.8%)
  Split-RI-J                ....      22.129 sec  (  7.7% of F)
  Chain of spheres X        ....     209.694 sec  ( 72.7% of F)
  XC integration            ....      42.906 sec  ( 14.9% of F)
    Basis function eval.    ....      12.284 sec  ( 28.6% of XC)
    Density eval.           ....       7.452 sec  ( 17.4% of XC)
    XC-Functional eval.     ....       3.217 sec  (  7.5% of XC)
    XC-Potential eval.      ....       4.744 sec  ( 11.1% of XC)
Diagonalization             ....       2.053 sec  (  0.6%)
Density matrix formation    ....       0.453 sec  (  0.1%)
Population analysis         ....       0.074 sec  (  0.0%)
Initial guess               ....       0.064 sec  (  0.0%)
Orbital Transformation      ....       0.000 sec  (  0.0%)
Orbital Orthonormalization  ....       0.000 sec  (  0.0%)
DIIS solution               ....       2.883 sec  (  0.9%)
SOSCF solution              ....       4.402 sec  (  1.4%)
Grid generation             ....      16.458 sec  (  5.1%)

Maximum memory used throughout the entire SCF-calculation: 96.6 MB


-------------------------------------------------------------------------------
                          DFT DISPERSION CORRECTION                            
                                                                               
                              DFTD3 V3.1  Rev 1                                
                          USING Becke-Johnson damping                          
-------------------------------------------------------------------------------
The PBEh-3c composite method is recognized
Using three-body term ABC
Active option DFTDOPT                   ...         4   

molecular C6(AA) [au] = 12555.938159 


            DFT-D V3
 parameters
 s6 scaling factor         :     1.0000 
 a1 scaling factor         :     0.4860 
 s8 scaling factor         :     0.0000 
 a2 scaling factor         :     4.5000 
 Damping factor alpha9(ATM):    16.0000 
 ad hoc parameters k1-k3   :    16.0000     1.3333    -4.0000 

 Edisp/kcal,au: -14.007861110462  -0.022322945223 
 E6   /kcal   : -13.948968125 
 E8   /kcal   :  -0.000000000 
 E6(ABC)      :  -0.058892985 
 % E8         :   0.000000000 
 % E6(ABC)    :   0.420428106 

-------------------------   ----------------
Dispersion correction           -0.022322945
-------------------------   ----------------

------------------   -----------------
gCP correction             0.045733306
------------------   -----------------

-------------------------   --------------------
FINAL SINGLE POINT ENERGY      -873.792958413326
-------------------------   --------------------


                            ***************************************
                            *     ORCA property calculations      *
                            ***************************************

                                    ---------------------
                                    Active property flags
                                    ---------------------
   (+) Dipole Moment


------------------------------------------------------------------------------
                       ORCA ELECTRIC PROPERTIES CALCULATION
------------------------------------------------------------------------------

Dipole Moment Calculation                       ... on
Quadrupole Moment Calculation                   ... off
Polarizability Calculation                      ... off
GBWName                                         ... pbeh-3c.gbw
Electron density                                ... pbeh-3c.scfp
The origin for moment calculation is the CENTER OF MASS  = ( 0.000000,  0.000000  0.000000)

-------------
DIPOLE MOMENT
-------------
                                X             Y             Z
Electronic contribution:      0.00000      -0.00000      -0.00000
Nuclear contribution   :      0.00000       0.00000       0.00000
                        -----------------------------------------
Total Dipole Moment    :      0.00000      -0.00000      -0.00000
                        -----------------------------------------
Magnitude (a.u.)       :      0.00000
Magnitude (Debye)      :      0.00000



--------------------
Rotational spectrum 
--------------------
 
Rotational constants in cm-1:     0.038223     0.005756     0.005002 
Rotational constants in MHz :  1145.887535   172.553348   149.970115 

 Dipole components along the rotational axes: 
x,y,z [a.u.] :    -0.000000    -0.000000    -0.000000 
x,y,z [Debye]:    -0.000001    -0.000000    -0.000000 

 

Timings for individual modules:

Sum of individual times         ...      325.667 sec (=   5.428 min)
GTO integral calculation        ...        3.797 sec (=   0.063 min)   1.2 %
SCF iterations                  ...      321.870 sec (=   5.364 min)  98.8 %
                             ****ORCA TERMINATED NORMALLY****
TOTAL RUN TIME: 0 days 0 hours 5 minutes 27 seconds 151 msec
