
                                 *****************
                                 * O   R   C   A *
                                 *****************

                                            #,                                       
                                            ###                                      
                                            ####                                     
                                            #####                                    
                                            ######                                   
                                           ########,                                 
                                     ,,################,,,,,                         
                               ,,#################################,,                 
                          ,,##########################################,,             
                       ,#########################################, ''#####,          
                    ,#############################################,,   '####,        
                  ,##################################################,,,,####,       
                ,###########''''           ''''###############################       
              ,#####''   ,,,,##########,,,,          '''####'''          '####       
            ,##' ,,,,###########################,,,                        '##       
           ' ,,###''''                  '''############,,,                           
         ,,##''                                '''############,,,,        ,,,,,,###''
      ,#''                                            '''#######################'''  
     '                                                          ''''####''''         
             ,#######,   #######,   ,#######,      ##                                
            ,#'     '#,  ##    ##  ,#'     '#,    #''#        ######   ,####,        
            ##       ##  ##   ,#'  ##            #'  '#       #        #'  '#        
            ##       ##  #######   ##           ,######,      #####,   #    #        
            '#,     ,#'  ##    ##  '#,     ,#' ,#      #,         ##   #,  ,#        
             '#######'   ##     ##  '#######'  #'      '#     #####' # '####'        



                  #######################################################
                  #                        -***-                        #
                  #          Department of theory and spectroscopy      #
                  #    Directorship and core code : Frank Neese         #
                  #        Max Planck Institute fuer Kohlenforschung    #
                  #                Kaiser Wilhelm Platz 1               #
                  #                 D-45470 Muelheim/Ruhr               #
                  #                      Germany                        #
                  #                                                     #
                  #                  All rights reserved                #
                  #                        -***-                        #
                  #######################################################


                         Program Version 5.0.3 -  RELEASE  -


 With contributions from (in alphabetic order):
   Daniel Aravena         : Magnetic Suceptibility
   Michael Atanasov       : Ab Initio Ligand Field Theory (pilot matlab implementation)
   Alexander A. Auer      : GIAO ZORA, VPT2 properties, NMR spectrum
   Ute Becker             : Parallelization
   Giovanni Bistoni       : ED, misc. LED, open-shell LED, HFLD
   Martin Brehm           : Molecular dynamics
   Dmytro Bykov           : SCF Hessian
   Vijay G. Chilkuri      : MRCI spin determinant printing, contributions to CSF-ICE
   Dipayan Datta          : RHF DLPNO-CCSD density
   Achintya Kumar Dutta   : EOM-CC, STEOM-CC
   Dmitry Ganyushin       : Spin-Orbit,Spin-Spin,Magnetic field MRCI
   Miquel Garcia          : C-PCM and meta-GGA Hessian, CC/C-PCM, Gaussian charge scheme
   Yang Guo               : DLPNO-NEVPT2, F12-NEVPT2, CIM, IAO-localization
   Andreas Hansen         : Spin unrestricted coupled pair/coupled cluster methods
   Benjamin Helmich-Paris : MC-RPA, TRAH-SCF, COSX integrals
   Lee Huntington         : MR-EOM, pCC
   Robert Izsak           : Overlap fitted RIJCOSX, COSX-SCS-MP3, EOM
   Marcus Kettner         : VPT2
   Christian Kollmar      : KDIIS, OOCD, Brueckner-CCSD(T), CCSD density, CASPT2, CASPT2-K
   Simone Kossmann        : Meta GGA functionals, TD-DFT gradient, OOMP2, MP2 Hessian
   Martin Krupicka        : Initial AUTO-CI
   Lucas Lang             : DCDCAS
   Marvin Lechner         : AUTO-CI (C++ implementation), FIC-MRCC
   Dagmar Lenk            : GEPOL surface, SMD
   Dimitrios Liakos       : Extrapolation schemes; Compound Job, initial MDCI parallelization
   Dimitrios Manganas     : Further ROCIS development; embedding schemes
   Dimitrios Pantazis     : SARC Basis sets
   Anastasios Papadopoulos: AUTO-CI, single reference methods and gradients
   Taras Petrenko         : DFT Hessian,TD-DFT gradient, ASA, ECA, R-Raman, ABS, FL, XAS/XES, NRVS
   Peter Pinski           : DLPNO-MP2, DLPNO-MP2 Gradient
   Christoph Reimann      : Effective Core Potentials
   Marius Retegan         : Local ZFS, SOC
   Christoph Riplinger    : Optimizer, TS searches, QM/MM, DLPNO-CCSD(T), (RO)-DLPNO pert. Triples
   Tobias Risthaus        : Range-separated hybrids, TD-DFT gradient, RPA, STAB
   Michael Roemelt        : Original ROCIS implementation
   Masaaki Saitow         : Open-shell DLPNO-CCSD energy and density
   Barbara Sandhoefer     : DKH picture change effects
   Avijit Sen             : IP-ROCIS
   Kantharuban Sivalingam : CASSCF convergence, NEVPT2, FIC-MRCI
   Bernardo de Souza      : ESD, SOC TD-DFT
   Georgi Stoychev        : AutoAux, RI-MP2 NMR, DLPNO-MP2 response
   Willem Van den Heuvel  : Paramagnetic NMR
   Boris Wezisla          : Elementary symmetry handling
   Frank Wennmohs         : Technical directorship


 We gratefully acknowledge several colleagues who have allowed us to
 interface, adapt or use parts of their codes:
   Stefan Grimme, W. Hujo, H. Kruse, P. Pracht,  : VdW corrections, initial TS optimization,
                  C. Bannwarth, S. Ehlert          DFT functionals, gCP, sTDA/sTD-DF
   Ed Valeev, F. Pavosevic, A. Kumar             : LibInt (2-el integral package), F12 methods
   Garnet Chan, S. Sharma, J. Yang, R. Olivares  : DMRG
   Ulf Ekstrom                                   : XCFun DFT Library
   Mihaly Kallay                                 : mrcc  (arbitrary order and MRCC methods)
   Jiri Pittner, Ondrej Demel                    : Mk-CCSD
   Frank Weinhold                                : gennbo (NPA and NBO analysis)
   Christopher J. Cramer and Donald G. Truhlar   : smd solvation model
   Lars Goerigk                                  : TD-DFT with DH, B97 family of functionals
   V. Asgeirsson, H. Jonsson                     : NEB implementation
   FAccTs GmbH                                   : IRC, NEB, NEB-TS, DLPNO-Multilevel, CI-OPT
                                                   MM, QMMM, 2- and 3-layer-ONIOM, Crystal-QMMM,
                                                   LR-CPCM, SF, NACMEs, symmetry and pop. for TD-DFT,
                                                   nearIR, NL-DFT gradient (VV10), updates on ESD,
                                                   ML-optimized integration grids
   S Lehtola, MJT Oliveira, MAL Marques          : LibXC Library
   Liviu Ungur et al                             : ANISO software


 Your calculation uses the libint2 library for the computation of 2-el integrals
 For citations please refer to: http://libint.valeyev.net

 Your ORCA version has been built with support for libXC version: 5.1.0
 For citations please refer to: https://tddft.org/programs/libxc/

 This ORCA versions uses:
   CBLAS   interface :  Fast vector & matrix operations
   LAPACKE interface :  Fast linear algebra routines
   SCALAPACK package :  Parallel linear algebra routines
   Shared memory     :  Shared parallel matrices
   BLAS/LAPACK       :  OpenBLAS 0.3.15  USE64BITINT DYNAMIC_ARCH NO_AFFINITY Haswell SINGLE_THREADED
        Core in use  :  Haswell
   Copyright (c) 2011-2014, The OpenBLAS Project




***************************************
The coordinates will be read from file: i15p.xyz
***************************************


Your calculation utilizes the geometrical counterpoise correction gCP
Please cite in your paper:
H.Kruse, S. Grimme J.Chem.Phys., 136, (2012), 154101 
   

Your calculation utilizes the atom-pairwise dispersion correction
with the Becke-Johnson damping scheme (D3BJ)
Cite in your paper:
S.Grimme, S.Ehrlich, L.Goerigk, J Comput Chem, (2011), 32, 1456–1465 
S.Grimme, J.Antony, S.Ehrlich and H.Krieg, J.Chem.Phys., 132, (2010), 154104 
   

Your calculation employs the composite approach PBEh-3c.
Please cite in your paper:
S. Grimme, J. G. Brandenburg, C. Bannwarth, A. Hansen J.Chem.Phys., 143, (2015), 054107 
   

================================================================================

----- Orbital basis set information -----
Your calculation utilizes the basis: def2-mSVP

----- AuxJ basis set information -----
Your calculation utilizes the auxiliary basis: def2/J
   F. Weigend, Phys. Chem. Chem. Phys. 8, 1057 (2006).

================================================================================
                                        WARNINGS
                       Please study these warnings very carefully!
================================================================================


INFO   : the flag for use of the SHARK integral package has been found!

================================================================================
                                       INPUT FILE
================================================================================
NAME = pbeh-3c.inp
|  1> ! PBEh-3c def2/J TightSCF DefGrid3
|  2> 
|  3> %maxcore 60000
|  4> 
|  5> %pal
|  6> nprocs 4
|  7> end
|  8> 
|  9> *xyzfile 0 1 i15p.xyz
| 10> 
| 11>                          ****END OF INPUT****
================================================================================

                       ****************************
                       * Single Point Calculation *
                       ****************************

---------------------------------
CARTESIAN COORDINATES (ANGSTROEM)
---------------------------------
  C      0.836524    0.131713    1.267512
  C      1.557115   -0.392344    0.000000
  C      0.836524    0.131713   -1.267512
  C     -0.659167   -0.144523   -1.263320
  C     -1.331625    0.377349    0.000000
  C     -0.659167   -0.144523    1.263320
  C      1.575422   -1.924201    0.000000
  O      2.951054   -0.022548    0.000000
  C      1.619630    0.098258   -2.553742
  C      1.284068    1.426069   -1.909041
  C     -1.161788   -1.439857   -1.861371
  C     -1.408323   -0.130802   -2.573983
  C     -2.814571    0.654994    0.000000
  C     -1.831390    1.804440    0.000000
  C     -1.161788   -1.439857    1.861371
  C     -1.408323   -0.130802    2.573983
  C      1.284068    1.426069    1.909041
  C      1.619630    0.098258    2.553742
  H      0.556968   -2.316653    0.000000
  H      2.096535   -2.282928   -0.893911
  H      2.096535   -2.282928    0.893911
  H      2.997539    0.943049    0.000000
  H      0.503591    2.025781    2.368656
  H      2.102318    2.008695    1.488629
  H      2.649560   -0.242894    2.466005
  H      1.128505   -0.183101    3.483962
  H     -0.431079   -2.111115    2.292470
  H     -2.014811   -1.912945    1.379779
  H     -2.420048    0.276060    2.596840
  H     -0.850806    0.079644    3.483506
  H     -3.383345    0.465161    0.904331
  H     -3.383345    0.465161   -0.904331
  H     -1.721620    2.374740   -0.925222
  H     -1.721620    2.374740    0.925222
  H     -2.014811   -1.912945   -1.379779
  H     -0.431079   -2.111115   -2.292470
  H     -0.850806    0.079644   -3.483506
  H     -2.420048    0.276060   -2.596840
  H      1.128505   -0.183101   -3.483962
  H      2.649560   -0.242894   -2.466005
  H      2.102318    2.008695   -1.488629
  H      0.503591    2.025781   -2.368656

----------------------------
CARTESIAN COORDINATES (A.U.)
----------------------------
  NO LB      ZA    FRAG     MASS         X           Y           Z
   0 C     6.0000    0    12.011    1.580801    0.248901    2.395250
   1 C     6.0000    0    12.011    2.942521   -0.741423    0.000000
   2 C     6.0000    0    12.011    1.580801    0.248901   -2.395250
   3 C     6.0000    0    12.011   -1.245645   -0.273109   -2.387329
   4 C     6.0000    0    12.011   -2.516407    0.713087    0.000000
   5 C     6.0000    0    12.011   -1.245645   -0.273109    2.387329
   6 C     6.0000    0    12.011    2.977117   -3.636213    0.000000
   7 O     8.0000    0    15.999    5.576684   -0.042610    0.000000
   8 C     6.0000    0    12.011    3.060657    0.185681   -4.825873
   9 C     6.0000    0    12.011    2.426536    2.694880   -3.607565
  10 C     6.0000    0    12.011   -2.195462   -2.720935   -3.517482
  11 C     6.0000    0    12.011   -2.661344   -0.247180   -4.864123
  12 C     6.0000    0    12.011   -5.318769    1.237760    0.000000
  13 C     6.0000    0    12.011   -3.460825    3.409898    0.000000
  14 C     6.0000    0    12.011   -2.195462   -2.720935    3.517482
  15 C     6.0000    0    12.011   -2.661344   -0.247180    4.864123
  16 C     6.0000    0    12.011    2.426536    2.694880    3.607565
  17 C     6.0000    0    12.011    3.060657    0.185681    4.825873
  18 H     1.0000    0     1.008    1.052517   -4.377840    0.000000
  19 H     1.0000    0     1.008    3.961877   -4.314109   -1.689247
  20 H     1.0000    0     1.008    3.961877   -4.314109    1.689247
  21 H     1.0000    0     1.008    5.664528    1.782104    0.000000
  22 H     1.0000    0     1.008    0.951649    3.828172    4.476111
  23 H     1.0000    0     1.008    3.972805    3.795884    2.813101
  24 H     1.0000    0     1.008    5.006943   -0.459003    4.660074
  25 H     1.0000    0     1.008    2.132566   -0.346011    6.583734
  26 H     1.0000    0     1.008   -0.814621   -3.989429    4.332140
  27 H     1.0000    0     1.008   -3.807440   -3.614942    2.607404
  28 H     1.0000    0     1.008   -4.573229    0.521677    4.907316
  29 H     1.0000    0     1.008   -1.607791    0.150505    6.582873
  30 H     1.0000    0     1.008   -6.393595    0.879027    1.708937
  31 H     1.0000    0     1.008   -6.393595    0.879027   -1.708937
  32 H     1.0000    0     1.008   -3.253391    4.487608   -1.748417
  33 H     1.0000    0     1.008   -3.253391    4.487608    1.748417
  34 H     1.0000    0     1.008   -3.807440   -3.614942   -2.607404
  35 H     1.0000    0     1.008   -0.814621   -3.989429   -4.332140
  36 H     1.0000    0     1.008   -1.607791    0.150505   -6.582873
  37 H     1.0000    0     1.008   -4.573229    0.521677   -4.907316
  38 H     1.0000    0     1.008    2.132566   -0.346011   -6.583734
  39 H     1.0000    0     1.008    5.006943   -0.459003   -4.660074
  40 H     1.0000    0     1.008    3.972805    3.795884   -2.813101
  41 H     1.0000    0     1.008    0.951649    3.828172   -4.476111

--------------------------------
INTERNAL COORDINATES (ANGSTROEM)
--------------------------------
 C      0   0   0     0.000000000000     0.00000000     0.00000000
 C      1   0   0     1.549346006324     0.00000000     0.00000000
 C      2   1   0     1.549346006324   109.78905493     0.00000000
 C      3   2   1     1.520991766902   113.18317526   307.91066466
 C      4   3   2     1.523327818562   111.97262235    53.70925497
 C      1   2   3     1.520991766902   113.18317526    52.08933534
 C      2   1   3     1.531966792992   110.10720063   238.61484844
 O      2   1   3     1.442156590604   111.27296142   123.63240610
 C      3   2   1     1.506240923094   116.69754772   161.20546059
 C      3   2   1     1.512353707036   119.92624985    91.84626760
 C      4   3   2     1.512674129985   118.76235379   270.07756616
 C      4   3   2     1.509721748498   118.94197142   200.48335700
 C      5   4   3     1.508713418155   119.79816637   158.20235308
 C      5   4   3     1.512069397554   117.98478191    88.46333163
 C      6   1   2     1.512674129985   118.76235379    89.92243384
 C      6   1   2     1.509721748498   118.94197142   159.51664300
 C      1   2   3     1.512353707036   119.92624985   268.15373240
 C      1   2   3     1.506240923094   116.69754772   198.79453941
 H      7   2   1     1.091451826990   110.38898301    60.59758190
 H      7   2   1     1.095134915340   109.46475298   180.63069220
 H      7   2   1     1.095134915340   109.46475298   300.56447160
 H      8   2   1     0.966715169643   107.61381125   298.60830391
 H     17   1   2     1.086298216134   116.06266962   146.31752281
 H     17   1   2     1.088913564786   121.09929108     0.70281394
 H     18   1   2     1.088503264003   115.47148403     3.27303797
 H     18   1   2     1.088887313963   120.04940731   219.54939317
 H     15   6   1     1.081836766134   117.67445850     1.44788173
 H     15   6   1     1.087837646868   117.25337517   215.93923793
 H     16   6   1     1.090709701008   118.80761140   142.84643700
 H     16   6   1     1.087356731300   118.26168685     0.13412910
 H     13   5   4     1.085059257071   118.88400979   145.02439998
 H     13   5   4     1.085059257071   118.88400979     0.72917320
 H     14   5   4     1.092395056859   117.35558488     2.57375620
 H     14   5   4     1.092395056859   117.35558488   217.61573295
 H     11   4   3     1.087837646868   117.25337517   144.06076207
 H     11   4   3     1.081836766134   117.67445850   358.55211827
 H     12   4   3     1.087356731300   118.26168685   359.86587090
 H     12   4   3     1.090709701008   118.80761140   217.15356300
 H      9   3   2     1.088887313963   120.04940731   140.45060683
 H      9   3   2     1.088503264003   115.47148403   356.72696203
 H     10   3   2     1.088913564786   121.09929108   359.29718606
 H     10   3   2     1.086298216134   116.06266962   213.68247719

---------------------------
INTERNAL COORDINATES (A.U.)
---------------------------
 C      0   0   0     0.000000000000     0.00000000     0.00000000
 C      1   0   0     2.927839638637     0.00000000     0.00000000
 C      2   1   0     2.927839638637   109.78905493     0.00000000
 C      3   2   1     2.874257891394   113.18317526   307.91066466
 C      4   3   2     2.878672389266   111.97262235    53.70925497
 C      1   2   3     2.874257891394   113.18317526    52.08933534
 C      2   1   3     2.894997685016   110.10720063   238.61484844
 O      2   1   3     2.725280998471   111.27296142   123.63240610
 C      3   2   1     2.846382836353   116.69754772   161.20546059
 C      3   2   1     2.857934323919   119.92624985    91.84626760
 C      4   3   2     2.858539835539   118.76235379   270.07756616
 C      4   3   2     2.852960643086   118.94197142   200.48335700
 C      5   4   3     2.851055174884   119.79816637   158.20235308
 C      5   4   3     2.857397056860   117.98478191    88.46333163
 C      6   1   2     2.858539835539   118.76235379    89.92243384
 C      6   1   2     2.852960643086   118.94197142   159.51664300
 C      1   2   3     2.857934323919   119.92624985   268.15373240
 C      1   2   3     2.846382836353   116.69754772   198.79453941
 H      7   2   1     2.062545041379   110.38898301    60.59758190
 H      7   2   1     2.069505069688   109.46475298   180.63069220
 H      7   2   1     2.069505069688   109.46475298   300.56447160
 H      8   2   1     1.826826920132   107.61381125   298.60830391
 H     17   1   2     2.052806128260   116.06266962   146.31752281
 H     17   1   2     2.057748420957   121.09929108     0.70281394
 H     18   1   2     2.056973064845   115.47148403     3.27303797
 H     18   1   2     2.057698814091   120.04940731   219.54939317
 H     15   6   1     2.044375209601   117.67445850     1.44788173
 H     15   6   1     2.055715230751   117.25337517   215.93923793
 H     16   6   1     2.061142626516   118.80761140   142.84643700
 H     16   6   1     2.054806432032   118.26168685     0.13412910
 H     13   5   4     2.050464834940   118.88400979   145.02439998
 H     13   5   4     2.050464834940   118.88400979     0.72917320
 H     14   5   4     2.064327487512   117.35558488     2.57375620
 H     14   5   4     2.064327487512   117.35558488   217.61573295
 H     11   4   3     2.055715230751   117.25337517   144.06076207
 H     11   4   3     2.044375209601   117.67445850   358.55211827
 H     12   4   3     2.054806432032   118.26168685   359.86587090
 H     12   4   3     2.061142626516   118.80761140   217.15356300
 H      9   3   2     2.057698814091   120.04940731   140.45060683
 H      9   3   2     2.056973064845   115.47148403   356.72696203
 H     10   3   2     2.057748420957   121.09929108   359.29718606
 H     10   3   2     2.052806128260   116.06266962   213.68247719

---------------------
BASIS SET INFORMATION
---------------------
There are 3 groups of distinct atoms

 Group   1 Type C   : 8s4p1d contracted to 4s2p1d pattern {5111/31/1}
 Group   2 Type O   : 8s4p1d contracted to 4s2p1d pattern {5111/31/1}
 Group   3 Type H   : 4s contracted to 2s pattern {31}

Atom   0C    basis set group =>   1
Atom   1C    basis set group =>   1
Atom   2C    basis set group =>   1
Atom   3C    basis set group =>   1
Atom   4C    basis set group =>   1
Atom   5C    basis set group =>   1
Atom   6C    basis set group =>   1
Atom   7O    basis set group =>   2
Atom   8C    basis set group =>   1
Atom   9C    basis set group =>   1
Atom  10C    basis set group =>   1
Atom  11C    basis set group =>   1
Atom  12C    basis set group =>   1
Atom  13C    basis set group =>   1
Atom  14C    basis set group =>   1
Atom  15C    basis set group =>   1
Atom  16C    basis set group =>   1
Atom  17C    basis set group =>   1
Atom  18H    basis set group =>   3
Atom  19H    basis set group =>   3
Atom  20H    basis set group =>   3
Atom  21H    basis set group =>   3
Atom  22H    basis set group =>   3
Atom  23H    basis set group =>   3
Atom  24H    basis set group =>   3
Atom  25H    basis set group =>   3
Atom  26H    basis set group =>   3
Atom  27H    basis set group =>   3
Atom  28H    basis set group =>   3
Atom  29H    basis set group =>   3
Atom  30H    basis set group =>   3
Atom  31H    basis set group =>   3
Atom  32H    basis set group =>   3
Atom  33H    basis set group =>   3
Atom  34H    basis set group =>   3
Atom  35H    basis set group =>   3
Atom  36H    basis set group =>   3
Atom  37H    basis set group =>   3
Atom  38H    basis set group =>   3
Atom  39H    basis set group =>   3
Atom  40H    basis set group =>   3
Atom  41H    basis set group =>   3
---------------------------------
AUXILIARY/J BASIS SET INFORMATION
---------------------------------
There are 3 groups of distinct atoms

 Group   1 Type C   : 12s5p4d2f1g contracted to 6s4p3d1f1g pattern {711111/2111/211/2/1}
 Group   2 Type O   : 12s5p4d2f1g contracted to 6s4p3d1f1g pattern {711111/2111/211/2/1}
 Group   3 Type H   : 5s2p1d contracted to 3s1p1d pattern {311/2/1}

Atom   0C    basis set group =>   1
Atom   1C    basis set group =>   1
Atom   2C    basis set group =>   1
Atom   3C    basis set group =>   1
Atom   4C    basis set group =>   1
Atom   5C    basis set group =>   1
Atom   6C    basis set group =>   1
Atom   7O    basis set group =>   2
Atom   8C    basis set group =>   1
Atom   9C    basis set group =>   1
Atom  10C    basis set group =>   1
Atom  11C    basis set group =>   1
Atom  12C    basis set group =>   1
Atom  13C    basis set group =>   1
Atom  14C    basis set group =>   1
Atom  15C    basis set group =>   1
Atom  16C    basis set group =>   1
Atom  17C    basis set group =>   1
Atom  18H    basis set group =>   3
Atom  19H    basis set group =>   3
Atom  20H    basis set group =>   3
Atom  21H    basis set group =>   3
Atom  22H    basis set group =>   3
Atom  23H    basis set group =>   3
Atom  24H    basis set group =>   3
Atom  25H    basis set group =>   3
Atom  26H    basis set group =>   3
Atom  27H    basis set group =>   3
Atom  28H    basis set group =>   3
Atom  29H    basis set group =>   3
Atom  30H    basis set group =>   3
Atom  31H    basis set group =>   3
Atom  32H    basis set group =>   3
Atom  33H    basis set group =>   3
Atom  34H    basis set group =>   3
Atom  35H    basis set group =>   3
Atom  36H    basis set group =>   3
Atom  37H    basis set group =>   3
Atom  38H    basis set group =>   3
Atom  39H    basis set group =>   3
Atom  40H    basis set group =>   3
Atom  41H    basis set group =>   3


           ************************************************************
           *        Program running with 4 parallel MPI-processes     *
           *              working on a common directory               *
           ************************************************************
------------------------------------------------------------------------------
                           ORCA GTO INTEGRAL CALCULATION
                           -- RI-GTO INTEGRALS CHOSEN --
------------------------------------------------------------------------------
------------------------------------------------------------------------------
                   ___                                                        
                  /   \      - P O W E R E D   B Y -                         
                 /     \                                                     
                 |  |  |   _    _      __       _____    __    __             
                 |  |  |  | |  | |    /  \     |  _  \  |  |  /  |          
                  \  \/   | |  | |   /    \    | | | |  |  | /  /          
                 / \  \   | |__| |  /  /\  \   | |_| |  |  |/  /          
                |  |  |   |  __  | /  /__\  \  |    /   |      \           
                |  |  |   | |  | | |   __   |  |    \   |  |\   \          
                \     /   | |  | | |  |  |  |  | |\  \  |  | \   \       
                 \___/    |_|  |_| |__|  |__|  |_| \__\ |__|  \__/        
                                                                              
                      - O R C A' S   B I G   F R I E N D -                    
                                      &                                       
                       - I N T E G R A L  F E E D E R -                       
                                                                              
 v1 FN, 2020, v2 2021                                                         
------------------------------------------------------------------------------


Reading SHARK input file pbeh-3c.SHARKINP.tmp ... ok
----------------------
SHARK INTEGRAL PACKAGE
----------------------

Number of atoms                             ...     42
Number of basis functions                   ...    318
Number of shells                            ...    174
Maximum angular momentum                    ...      2
Integral batch strategy                     ... SHARK/LIBINT Hybrid
RI-J (if used) integral strategy            ... SPLIT-RIJ (Revised 2003 algorithm where possible)
Printlevel                                  ...      1
Contraction scheme used                     ... SEGMENTED contraction
Coulomb Range Separation                    ... NOT USED
Exchange Range Separation                   ... NOT USED
Finite Nucleus Model                        ... NOT USED
Auxiliary Coulomb fitting basis             ... AVAILABLE
   # of basis functions in Aux-J            ...   1146
   # of shells in Aux-J                     ...    390
   Maximum angular momentum in Aux-J        ...      4
Auxiliary J/K fitting basis                 ... NOT available
Auxiliary Correlation fitting basis         ... NOT available
Auxiliary 'external' fitting basis          ... NOT available
Integral threshold                          ...     2.500000e-11
Primitive cut-off                           ...     2.500000e-12
Primitive pair pre-selection threshold      ...     2.500000e-12

Calculating pre-screening integrals         ... done (  0.2 sec) Dimension = 174
Organizing shell pair data                  ... done (  0.6 sec)
Shell pair information
Total number of shell pairs                 ...     15225
Shell pairs after pre-screening             ...     12849
Total number of primitive shell pairs       ...     54921
Primitive shell pairs kept                  ...     30048
          la=0 lb=0:   5663 shell pairs
          la=1 lb=0:   4013 shell pairs
          la=1 lb=1:    660 shell pairs
          la=2 lb=0:   1735 shell pairs
          la=2 lb=1:    625 shell pairs
          la=2 lb=2:    153 shell pairs

Calculating one electron integrals          ... done (  0.2 sec)
Calculating RI/J V-Matrix + Cholesky decomp.... done (  1.6 sec)
Calculating Nuclear repulsion               ... done (  0.0 sec) ENN=   1502.519412213950 Eh

SHARK setup successfully completed in   4.2 seconds

Maximum memory used throughout the entire GTOINT-calculation: 24.1 MB


           ************************************************************
           *        Program running with 4 parallel MPI-processes     *
           *              working on a common directory               *
           ************************************************************
-------------------------------------------------------------------------------
                                 ORCA SCF
-------------------------------------------------------------------------------

------------
SCF SETTINGS
------------
Hamiltonian:
 Density Functional     Method          .... DFT(GTOs)
 Exchange Functional    Exchange        .... PBE
   PBE kappa parameter   XKappa         ....  1.024500
   PBE mue parameter    XMuePBE         ....  0.123457
 Correlation Functional Correlation     .... PBE
   PBE beta parameter  CBetaPBE         ....  0.030000
 LDA part of GGA corr.  LDAOpt          .... PW91-LDA
 Gradients option       PostSCFGGA      .... off
 Hybrid DFT is turned on
   Fraction HF Exchange ScalHFX         ....  0.420000
   Scaling of DF-GGA-X  ScalDFX         ....  0.580000
   Scaling of DF-GGA-C  ScalDFC         ....  1.000000
   Scaling of DF-LDA-C  ScalLDAC        ....  1.000000
   Perturbative correction              ....  0.000000
   Density functional embedding theory  .... OFF
 RI-approximation to the Coulomb term is turned on
   Number of AuxJ basis functions       .... 1146
   RIJ-ON(X) (HFX calculated with O(N)) .... on
   Number of AuxJ basis functions       .... 1146
   RIJ-COSX (HFX calculated with COS-X)).... on


General Settings:
 Integral files         IntName         .... pbeh-3c
 Hartree-Fock type      HFTyp           .... RHF
 Total Charge           Charge          ....    0
 Multiplicity           Mult            ....    1
 Number of Electrons    NEL             ....  134
 Basis Dimension        Dim             ....  318
 Nuclear Repulsion      ENuc            ....   1502.5194122140 Eh

Convergence Acceleration:
 DIIS                   CNVDIIS         .... on
   Start iteration      DIISMaxIt       ....    12
   Startup error        DIISStart       ....  0.200000
   # of expansion vecs  DIISMaxEq       ....     5
   Bias factor          DIISBfac        ....   1.050
   Max. coefficient     DIISMaxC        ....  10.000
 Trust-Rad. Augm. Hess. CNVTRAH         .... auto
   Auto Start mean grad. ratio tolernc. ....  1.125000
   Auto Start start iteration           ....    20
   Auto Start num. interpolation iter.  ....    10
   Max. Number of Micro iterations      ....    16
   Max. Number of Macro iterations      .... Maxiter - #DIIS iter
   Number of Davidson start vectors     ....     2
   Converg. threshold I  (grad. norm)   ....   1.000e-05
   Converg. threshold II (energy diff.) ....   1.000e-08
   Grad. Scal. Fac. for Micro threshold ....   0.100
   Minimum threshold for Micro iter.    ....   0.010
   NR start threshold (gradient norm)   ....   0.001
   Initial trust radius                 ....   0.400
   Minimum AH scaling param. (alpha)    ....   1.000
   Maximum AH scaling param. (alpha)    .... 1000.000
   Orbital update algorithm             .... Taylor
   White noise on init. David. guess    .... on
   Maximum white noise                  ....   0.010
   Quad. conv. algorithm                .... NR
   COSX micro iterations for RIJONX calc.... off
 SOSCF                  CNVSOSCF        .... on
   Start iteration      SOSCFMaxIt      ....   150
   Startup grad/error   SOSCFStart      ....  0.003300
 Level Shifting         CNVShift        .... on
   Level shift para.    LevelShift      ....    0.2500
   Turn off err/grad.   ShiftErr        ....    0.0010
 Zerner damping         CNVZerner       .... off
 Static damping         CNVDamp         .... on
   Fraction old density DampFac         ....    0.7000
   Max. Damping (<1)    DampMax         ....    0.9800
   Min. Damping (>=0)   DampMin         ....    0.0000
   Turn off err/grad.   DampErr         ....    0.1000
 Fernandez-Rico         CNVRico         .... off

SCF Procedure:
 Maximum # iterations   MaxIter         ....   125
 SCF integral mode      SCFMode         .... Direct
   Integral package                     .... SHARK and LIBINT hybrid scheme
 Reset frequency        DirectResetFreq ....    20
 Integral Threshold     Thresh          ....  2.500e-11 Eh
 Primitive CutOff       TCut            ....  2.500e-12 Eh

Convergence Tolerance:
 Convergence Check Mode ConvCheckMode   .... Total+1el-Energy
 Convergence forced     ConvForced      .... 0
 Energy Change          TolE            ....  1.000e-08 Eh
 1-El. energy change                    ....  1.000e-05 Eh
 Orbital Gradient       TolG            ....  1.000e-05
 Orbital Rotation angle TolX            ....  1.000e-05
 DIIS Error             TolErr          ....  5.000e-07


Diagonalization of the overlap matrix:
Smallest eigenvalue                        ... 1.859e-03
Time for diagonalization                   ...    0.042 sec
Threshold for overlap eigenvalues          ... 1.000e-08
Number of eigenvalues below threshold      ... 0
Time for construction of square roots      ...    0.137 sec
Total time needed                          ...    0.180 sec

--------------------------------
INITIAL GUESS: MINIMAL BASIS EHT
--------------------------------
The minimal basis has 114 functions
EHT matrix was diagonalized
Basis set overlap was calculated now projecting the orbitals
Using GuessMode=FMatrix for the initial guess
C*T matrix was formed
Effective Fockian was calculated
Effective Fockian was diagonalized
Initial density was built
                      ------------------
                      INITIAL GUESS DONE
                      ------------------
-------------------
DFT GRID GENERATION
-------------------

General Integration Accuracy     IntAcc      ... 4.959
Radial Grid Type                 RadialGrid  ... OptM3 with GC (2021)
Angular Grid (max. ang.)         AngularGrid ... 6 (Lebedev-590)
Angular grid pruning method      GridPruning ... 4 (adaptive)
Weight generation scheme         WeightScheme... Becke
Basis function cutoff            BFCut       ... 1.0000e-11
Integration weight cutoff        WCut        ... 1.0000e-14
Angular grids for H and He will be reduced by one unit
Partially contracted basis set               ... off
Rotationally invariant grid construction     ... off

Total number of grid points                  ...   452385
Total number of batches                      ...     7090
Average number of points per batch           ...       63
Average number of grid points per atom       ...    10771
Time for grid setup =   12.887 sec

--------------------
COSX GRID GENERATION
--------------------

GRIDX 1
-------
General Integration Accuracy     IntAcc      ... 4.020
Radial Grid Type                 RadialGrid  ... OptM3 with GC (2021)
Angular Grid (max. ang.)         AngularGrid ... 2 (Lebedev-110)
Angular grid pruning method      GridPruning ... 4 (adaptive)
Weight generation scheme         WeightScheme... Becke
Basis function cutoff            BFCut       ... 1.0000e-11
Integration weight cutoff        WCut        ... 1.0000e-14
Angular grids for H and He will be reduced by one unit
Partially contracted basis set               ... on
Rotationally invariant grid construction     ... off

Total number of grid points                  ...    48045
Total number of batches                      ...      767
Average number of points per batch           ...       62
Average number of grid points per atom       ...     1144
UseSFitting                                  ... on

GRIDX 2
-------
General Integration Accuracy     IntAcc      ... 4.338
Radial Grid Type                 RadialGrid  ... OptM3 with GC (2021)
Angular Grid (max. ang.)         AngularGrid ... 3 (Lebedev-194)
Angular grid pruning method      GridPruning ... 4 (adaptive)
Weight generation scheme         WeightScheme... Becke
Basis function cutoff            BFCut       ... 1.0000e-11
Integration weight cutoff        WCut        ... 1.0000e-14
Angular grids for H and He will be reduced by one unit
Partially contracted basis set               ... on
Rotationally invariant grid construction     ... off

Total number of grid points                  ...   103940
Total number of batches                      ...     1648
Average number of points per batch           ...       63
Average number of grid points per atom       ...     2475
UseSFitting                                  ... on

GRIDX 3
-------
General Integration Accuracy     IntAcc      ... 4.871
Radial Grid Type                 RadialGrid  ... OptM3 with GC (2021)
Angular Grid (max. ang.)         AngularGrid ... 4 (Lebedev-302)
Angular grid pruning method      GridPruning ... 4 (adaptive)
Weight generation scheme         WeightScheme... Becke
Basis function cutoff            BFCut       ... 1.0000e-11
Integration weight cutoff        WCut        ... 1.0000e-14
Angular grids for H and He will be reduced by one unit
Partially contracted basis set               ... on
Rotationally invariant grid construction     ... off

Total number of grid points                  ...   199706
Total number of batches                      ...     3140
Average number of points per batch           ...       63
Average number of grid points per atom       ...     4755
UseSFitting                                  ... on

Time for X-Grid setup             =   11.044 sec

--------------
SCF ITERATIONS
--------------
ITER       Energy         Delta-E        Max-DP      RMS-DP      [F,P]     Damp
               ***  Starting incremental Fock matrix formation  ***
  0   -734.1582662138   0.000000000000 0.17381908  0.00306234  0.4834140 0.7000
  1   -734.6606290621  -0.502362848296 0.09068275  0.00214757  0.2838491 0.7000
  2   -734.9922130082  -0.331583946112 0.05182698  0.00155163  0.2002516 0.7000
                               ***Turning on DIIS***
  3   -735.2265002179  -0.234287209656 0.03850752  0.00115512  0.1411556 0.7000
  4   -735.3934685509  -0.166968333051 0.09631470  0.00301433  0.0994205 0.0000
  5   -735.7938576195  -0.400389068622 0.01243952  0.00022020  0.0129071 0.0000
  6   -735.7944878442  -0.000630224646 0.00451141  0.00008275  0.0080795 0.0000
                      *** Initiating the SOSCF procedure ***
                           *** Shutting down DIIS ***
                      *** Re-Reading the Fockian *** 
                      *** Removing any level shift *** 
ITER      Energy       Delta-E        Grad      Rot      Max-DP    RMS-DP
  7   -735.79463325  -0.0001454058  0.000402  0.000402  0.001777  0.000036
               *** Restarting incremental Fock matrix formation ***
  8   -735.79466217  -0.0000289183  0.000137  0.000272  0.000640  0.000019
  9   -735.79466396  -0.0000017937  0.000086  0.000142  0.000277  0.000009
 10   -735.79466449  -0.0000005275  0.000033  0.000052  0.000153  0.000004
 11   -735.79466458  -0.0000000923  0.000012  0.000017  0.000061  0.000002
 12   -735.79466461  -0.0000000279  0.000010  0.000007  0.000033  0.000001
 13   -735.79466460   0.0000000102  0.000003  0.000002  0.000011  0.000000
                  ***Gradient check signals convergence***
              ***Rediagonalizing the Fockian in SOSCF/NRSCF***

               *****************************************************
               *                     SUCCESS                       *
               *           SCF CONVERGED AFTER  14 CYCLES          *
               *****************************************************

Old exchange energy                            =    -44.070136242 Eh
New exchange energy                            =    -44.070147071 Eh
Exchange energy change after final integration =     -0.000010829 Eh
Total energy after final integration           =   -735.794675423 Eh
Final COS-X integration done in                =    37.213 sec

----------------
TOTAL SCF ENERGY
----------------

Total Energy       :         -735.79467542 Eh          -20021.99102 eV

Components:
Nuclear Repulsion  :         1502.51941221 Eh           40885.63179 eV
Electronic Energy  :        -2238.31408764 Eh          -60907.62281 eV
One Electron Energy:        -3982.51761503 Eh         -108369.81372 eV
Two Electron Energy:         1744.20352739 Eh           47462.19091 eV
Max COSX asymmetry :            0.00000156 Eh               0.00004 eV

Virial components:
Potential Energy   :        -1465.04699065 Eh          -39865.95536 eV
Kinetic Energy     :          729.25231523 Eh           19843.96435 eV
Virial Ratio       :            2.00897133


DFT components:
N(Alpha)           :       67.000003908495 electrons
N(Beta)            :       67.000003908495 electrons
N(Total)           :      134.000007816990 electrons
E(X)               :      -58.470807657414 Eh       
E(C)               :       -5.837336141028 Eh       
E(XC)              :      -64.308143798442 Eh       
DFET-embed. en.    :        0.000000000000 Eh       

---------------
SCF CONVERGENCE
---------------

  Last Energy change         ...    5.3268e-09  Tolerance :   1.0000e-08
  Last MAX-Density change    ...    1.7764e-15  Tolerance :   1.0000e-07
  Last RMS-Density change    ...    3.1581e-17  Tolerance :   5.0000e-09
  Last Orbital Gradient      ...    1.2731e-06  Tolerance :   1.0000e-05
  Last Orbital Rotation      ...    1.3468e-06  Tolerance :   1.0000e-05

             **** THE GBW FILE WAS UPDATED (pbeh-3c.gbw) ****
             **** DENSITY pbeh-3c.scfp WAS UPDATED ****
             **** ENERGY FILE WAS UPDATED (pbeh-3c.en.tmp) ****
             **** THE GBW FILE WAS UPDATED (pbeh-3c.gbw) ****
             **** DENSITY pbeh-3c.scfp WAS UPDATED ****
----------------
ORBITAL ENERGIES
----------------

  NO   OCC          E(Eh)            E(eV) 
   0   2.0000     -19.491802      -530.3989 
   1   2.0000     -10.502976      -285.8005 
   2   2.0000     -10.460847      -284.6541 
   3   2.0000     -10.460818      -284.6533 
   4   2.0000     -10.460073      -284.6331 
   5   2.0000     -10.455544      -284.5098 
   6   2.0000     -10.455504      -284.5087 
   7   2.0000     -10.441653      -284.1318 
   8   2.0000     -10.441648      -284.1317 
   9   2.0000     -10.441175      -284.1188 
  10   2.0000     -10.440112      -284.0899 
  11   2.0000     -10.440108      -284.0898 
  12   2.0000     -10.437652      -284.0229 
  13   2.0000     -10.437140      -284.0090 
  14   2.0000     -10.437132      -284.0088 
  15   2.0000     -10.435495      -283.9643 
  16   2.0000     -10.435492      -283.9642 
  17   2.0000     -10.414419      -283.3908 
  18   2.0000      -1.126995       -30.6671 
  19   2.0000      -1.000220       -27.2174 
  20   2.0000      -0.969677       -26.3863 
  21   2.0000      -0.947154       -25.7734 
  22   2.0000      -0.922286       -25.0967 
  23   2.0000      -0.911068       -24.7914 
  24   2.0000      -0.840446       -22.8697 
  25   2.0000      -0.766585       -20.8598 
  26   2.0000      -0.700610       -19.0646 
  27   2.0000      -0.697740       -18.9865 
  28   2.0000      -0.681938       -18.5565 
  29   2.0000      -0.681228       -18.5371 
  30   2.0000      -0.673732       -18.3332 
  31   2.0000      -0.671482       -18.2719 
  32   2.0000      -0.669939       -18.2300 
  33   2.0000      -0.630974       -17.1697 
  34   2.0000      -0.613078       -16.6827 
  35   2.0000      -0.590033       -16.0556 
  36   2.0000      -0.586846       -15.9689 
  37   2.0000      -0.563633       -15.3372 
  38   2.0000      -0.557004       -15.1569 
  39   2.0000      -0.549682       -14.9576 
  40   2.0000      -0.544773       -14.8240 
  41   2.0000      -0.532149       -14.4805 
  42   2.0000      -0.494184       -13.4474 
  43   2.0000      -0.488404       -13.2902 
  44   2.0000      -0.468514       -12.7489 
  45   2.0000      -0.466191       -12.6857 
  46   2.0000      -0.455300       -12.3893 
  47   2.0000      -0.431574       -11.7437 
  48   2.0000      -0.429847       -11.6967 
  49   2.0000      -0.422375       -11.4934 
  50   2.0000      -0.420094       -11.4313 
  51   2.0000      -0.416265       -11.3272 
  52   2.0000      -0.413126       -11.2417 
  53   2.0000      -0.403514       -10.9802 
  54   2.0000      -0.400807       -10.9065 
  55   2.0000      -0.393636       -10.7114 
  56   2.0000      -0.392350       -10.6764 
  57   2.0000      -0.372291       -10.1306 
  58   2.0000      -0.368376       -10.0240 
  59   2.0000      -0.351088        -9.5536 
  60   2.0000      -0.347449        -9.4546 
  61   2.0000      -0.338032        -9.1983 
  62   2.0000      -0.328795        -8.9470 
  63   2.0000      -0.313169        -8.5218 
  64   2.0000      -0.307695        -8.3728 
  65   2.0000      -0.296554        -8.0696 
  66   2.0000      -0.290848        -7.9144 
  67   0.0000       0.101467         2.7610 
  68   0.0000       0.114314         3.1106 
  69   0.0000       0.122160         3.3241 
  70   0.0000       0.130724         3.5572 
  71   0.0000       0.138078         3.7573 
  72   0.0000       0.142698         3.8830 
  73   0.0000       0.156655         4.2628 
  74   0.0000       0.156751         4.2654 
  75   0.0000       0.161601         4.3974 
  76   0.0000       0.170221         4.6320 
  77   0.0000       0.175118         4.7652 
  78   0.0000       0.176589         4.8052 
  79   0.0000       0.184437         5.0188 
  80   0.0000       0.187957         5.1146 
  81   0.0000       0.189109         5.1459 
  82   0.0000       0.193351         5.2613 
  83   0.0000       0.198151         5.3920 
  84   0.0000       0.203182         5.5289 
  85   0.0000       0.221750         6.0341 
  86   0.0000       0.226067         6.1516 
  87   0.0000       0.234951         6.3933 
  88   0.0000       0.241075         6.5600 
  89   0.0000       0.245161         6.6712 
  90   0.0000       0.249906         6.8003 
  91   0.0000       0.252746         6.8776 
  92   0.0000       0.253623         6.9014 
  93   0.0000       0.260299         7.0831 
  94   0.0000       0.261260         7.1093 
  95   0.0000       0.264566         7.1992 
  96   0.0000       0.267706         7.2847 
  97   0.0000       0.273460         7.4412 
  98   0.0000       0.274949         7.4817 
  99   0.0000       0.294027         8.0009 
 100   0.0000       0.297058         8.0834 
 101   0.0000       0.309356         8.4180 
 102   0.0000       0.312923         8.5151 
 103   0.0000       0.314698         8.5634 
 104   0.0000       0.321955         8.7608 
 105   0.0000       0.334913         9.1134 
 106   0.0000       0.335573         9.1314 
 107   0.0000       0.360315         9.8047 
 108   0.0000       0.374688        10.1958 
 109   0.0000       0.379901        10.3376 
 110   0.0000       0.413602        11.2547 
 111   0.0000       0.422847        11.5063 
 112   0.0000       0.426151        11.5962 
 113   0.0000       0.427060        11.6209 
 114   0.0000       0.465605        12.6698 
 115   0.0000       0.470605        12.8058 
 116   0.0000       0.484870        13.1940 
 117   0.0000       0.486835        13.2475 
 118   0.0000       0.488145        13.2831 
 119   0.0000       0.522542        14.2191 
 120   0.0000       0.534297        14.5390 
 121   0.0000       0.540854        14.7174 
 122   0.0000       0.561190        15.2708 
 123   0.0000       0.564435        15.3591 
 124   0.0000       0.566434        15.4135 
 125   0.0000       0.573352        15.6017 
 126   0.0000       0.604473        16.4485 
 127   0.0000       0.606151        16.4942 
 128   0.0000       0.609222        16.5778 
 129   0.0000       0.615030        16.7358 
 130   0.0000       0.620716        16.8905 
 131   0.0000       0.635880        17.3032 
 132   0.0000       0.638755        17.3814 
 133   0.0000       0.646228        17.5847 
 134   0.0000       0.648284        17.6407 
 135   0.0000       0.653065        17.7708 
 136   0.0000       0.658030        17.9059 
 137   0.0000       0.668671        18.1955 
 138   0.0000       0.669027        18.2052 
 139   0.0000       0.673512        18.3272 
 140   0.0000       0.685954        18.6658 
 141   0.0000       0.686986        18.6938 
 142   0.0000       0.698113        18.9966 
 143   0.0000       0.710482        19.3332 
 144   0.0000       0.735223        20.0064 
 145   0.0000       0.755339        20.5538 
 146   0.0000       0.767004        20.8712 
 147   0.0000       0.778162        21.1749 
 148   0.0000       0.778178        21.1753 
 149   0.0000       0.786554        21.4032 
 150   0.0000       0.789005        21.4699 
 151   0.0000       0.792955        21.5774 
 152   0.0000       0.796010        21.6605 
 153   0.0000       0.819128        22.2896 
 154   0.0000       0.849439        23.1144 
 155   0.0000       0.872859        23.7517 
 156   0.0000       0.926566        25.2131 
 157   0.0000       0.946988        25.7689 
 158   0.0000       0.947703        25.7883 
 159   0.0000       0.966018        26.2867 
 160   0.0000       0.971729        26.4421 
 161   0.0000       0.975816        26.5533 
 162   0.0000       0.980685        26.6858 
 163   0.0000       1.001241        27.2452 
 164   0.0000       1.005008        27.3476 
 165   0.0000       1.013485        27.5783 
 166   0.0000       1.028537        27.9879 
 167   0.0000       1.030688        28.0464 
 168   0.0000       1.036330        28.2000 
 169   0.0000       1.040805        28.3218 
 170   0.0000       1.047724        28.5100 
 171   0.0000       1.057299        28.7706 
 172   0.0000       1.060985        28.8709 
 173   0.0000       1.065328        28.9890 
 174   0.0000       1.088236        29.6124 
 175   0.0000       1.094361        29.7791 
 176   0.0000       1.106075        30.0978 
 177   0.0000       1.106347        30.1052 
 178   0.0000       1.111198        30.2372 
 179   0.0000       1.122667        30.5493 
 180   0.0000       1.132924        30.8284 
 181   0.0000       1.138997        30.9937 
 182   0.0000       1.144987        31.1567 
 183   0.0000       1.148423        31.2502 
 184   0.0000       1.180066        32.1112 
 185   0.0000       1.188454        32.3395 
 186   0.0000       1.199256        32.6334 
 187   0.0000       1.204636        32.7798 
 188   0.0000       1.214038        33.0357 
 189   0.0000       1.225343        33.3433 
 190   0.0000       1.240186        33.7472 
 191   0.0000       1.259284        34.2669 
 192   0.0000       1.260412        34.2975 
 193   0.0000       1.280984        34.8574 
 194   0.0000       1.300296        35.3828 
 195   0.0000       1.305464        35.5235 
 196   0.0000       1.334828        36.3225 
 197   0.0000       1.355353        36.8810 
 198   0.0000       1.358529        36.9675 
 199   0.0000       1.394919        37.9577 
 200   0.0000       1.413548        38.4646 
 201   0.0000       1.447566        39.3903 
 202   0.0000       1.458487        39.6875 
 203   0.0000       1.511322        41.1252 
 204   0.0000       1.517400        41.2905 
 205   0.0000       1.557771        42.3891 
 206   0.0000       1.588399        43.2225 
 207   0.0000       1.606675        43.7198 
 208   0.0000       1.636260        44.5249 
 209   0.0000       1.636585        44.5338 
 210   0.0000       1.651667        44.9441 
 211   0.0000       1.667022        45.3620 
 212   0.0000       1.683164        45.8012 
 213   0.0000       1.747887        47.5624 
 214   0.0000       1.786259        48.6066 
 215   0.0000       1.795751        48.8649 
 216   0.0000       1.816150        49.4200 
 217   0.0000       1.828658        49.7603 
 218   0.0000       1.835339        49.9421 
 219   0.0000       1.844452        50.1901 
 220   0.0000       1.849012        50.3142 
 221   0.0000       1.855385        50.4876 
 222   0.0000       1.865049        50.7506 
 223   0.0000       1.882973        51.2383 
 224   0.0000       1.895227        51.5718 
 225   0.0000       1.900437        51.7135 
 226   0.0000       1.914365        52.0925 
 227   0.0000       1.931265        52.5524 
 228   0.0000       1.943477        52.8847 
 229   0.0000       1.957505        53.2664 
 230   0.0000       1.971955        53.6596 
 231   0.0000       1.975242        53.7491 
 232   0.0000       1.977384        53.8074 
 233   0.0000       1.983135        53.9639 
 234   0.0000       1.991029        54.1787 
 235   0.0000       1.997144        54.3450 
 236   0.0000       2.002860        54.5006 
 237   0.0000       2.022147        55.0254 
 238   0.0000       2.027560        55.1727 
 239   0.0000       2.031477        55.2793 
 240   0.0000       2.031562        55.2816 
 241   0.0000       2.046920        55.6995 
 242   0.0000       2.061541        56.0974 
 243   0.0000       2.101877        57.1950 
 244   0.0000       2.129056        57.9346 
 245   0.0000       2.143269        58.3213 
 246   0.0000       2.165323        58.9214 
 247   0.0000       2.181769        59.3689 
 248   0.0000       2.218581        60.3707 
 249   0.0000       2.227295        60.6078 
 250   0.0000       2.251090        61.2553 
 251   0.0000       2.266863        61.6845 
 252   0.0000       2.280400        62.0528 
 253   0.0000       2.303794        62.6894 
 254   0.0000       2.304541        62.7097 
 255   0.0000       2.317572        63.0643 
 256   0.0000       2.325206        63.2721 
 257   0.0000       2.340105        63.6775 
 258   0.0000       2.342464        63.7417 
 259   0.0000       2.387469        64.9663 
 260   0.0000       2.390906        65.0599 
 261   0.0000       2.395086        65.1736 
 262   0.0000       2.403059        65.3906 
 263   0.0000       2.415734        65.7355 
 264   0.0000       2.419191        65.8295 
 265   0.0000       2.436773        66.3080 
 266   0.0000       2.454690        66.7955 
 267   0.0000       2.458324        66.8944 
 268   0.0000       2.488348        67.7114 
 269   0.0000       2.500202        68.0340 
 270   0.0000       2.502017        68.0834 
 271   0.0000       2.516643        68.4813 
 272   0.0000       2.530422        68.8563 
 273   0.0000       2.538846        69.0855 
 274   0.0000       2.550588        69.4050 
 275   0.0000       2.562802        69.7374 
 276   0.0000       2.567752        69.8721 
 277   0.0000       2.581023        70.2332 
 278   0.0000       2.603865        70.8548 
 279   0.0000       2.626600        71.4734 
 280   0.0000       2.636656        71.7471 
 281   0.0000       2.645560        71.9894 
 282   0.0000       2.681008        72.9539 
 283   0.0000       2.682850        73.0040 
 284   0.0000       2.702048        73.5265 
 285   0.0000       2.716847        73.9292 
 286   0.0000       2.729459        74.2724 
 287   0.0000       2.768964        75.3473 
 288   0.0000       2.846620        77.4605 
 289   0.0000       2.848593        77.5142 
 290   0.0000       2.876237        78.2664 
 291   0.0000       2.893371        78.7326 
 292   0.0000       2.898858        78.8819 
 293   0.0000       2.926435        79.6324 
 294   0.0000       2.934484        79.8514 
 295   0.0000       2.949914        80.2712 
 296   0.0000       2.966089        80.7114 
 297   0.0000       3.053013        83.0767 
 298   0.0000       3.057839        83.2080 
 299   0.0000       3.135365        85.3176 
 300   0.0000      13.374586       363.9410 
 301   0.0000      13.632439       370.9575 
 302   0.0000      13.696045       372.6883 
 303   0.0000      13.729498       373.5986 
 304   0.0000      13.744097       373.9959 
 305   0.0000      13.803990       375.6257 
 306   0.0000      13.925552       378.9335 
 307   0.0000      13.958118       379.8197 
 308   0.0000      13.969044       380.1170 
 309   0.0000      14.026878       381.6908 
 310   0.0000      14.034267       381.8918 
 311   0.0000      14.045839       382.2067 
 312   0.0000      14.143717       384.8701 
 313   0.0000      14.191433       386.1685 
 314   0.0000      14.257043       387.9538 
 315   0.0000      14.301718       389.1695 
 316   0.0000      14.335814       390.0973 
 317   0.0000      25.812117       702.3834 

                    ********************************
                    * MULLIKEN POPULATION ANALYSIS *
                    ********************************

-----------------------
MULLIKEN ATOMIC CHARGES
-----------------------
   0 C :    0.014755
   1 C :    0.201499
   2 C :    0.014757
   3 C :   -0.022030
   4 C :    0.027433
   5 C :   -0.022031
   6 C :   -0.636137
   7 O :   -0.647300
   8 C :   -0.474998
   9 C :   -0.455688
  10 C :   -0.443537
  11 C :   -0.491912
  12 C :   -0.492830
  13 C :   -0.434435
  14 C :   -0.443536
  15 C :   -0.491911
  16 C :   -0.455688
  17 C :   -0.474998
  18 H :    0.240791
  19 H :    0.227179
  20 H :    0.227179
  21 H :    0.414193
  22 H :    0.236591
  23 H :    0.203756
  24 H :    0.253498
  25 H :    0.223286
  26 H :    0.239306
  27 H :    0.233093
  28 H :    0.228663
  29 H :    0.231165
  30 H :    0.229812
  31 H :    0.229811
  32 H :    0.230452
  33 H :    0.230452
  34 H :    0.233093
  35 H :    0.239306
  36 H :    0.231165
  37 H :    0.228664
  38 H :    0.223286
  39 H :    0.253498
  40 H :    0.203756
  41 H :    0.236591
Sum of atomic charges:   -0.0000000

--------------------------------
MULLIKEN REDUCED ORBITAL CHARGES
--------------------------------
  0 C s       :     3.204276  s :     3.204276
      pz      :     0.881112  p :     2.725749
      px      :     0.907575
      py      :     0.937062
      dz2     :     0.012060  d :     0.055219
      dxz     :     0.012465
      dyz     :     0.010173
      dx2y2   :     0.012084
      dxy     :     0.008437
  1 C s       :     3.198114  s :     3.198114
      pz      :     0.884864  p :     2.524534
      px      :     0.682226
      py      :     0.957445
      dz2     :     0.014366  d :     0.075852
      dxz     :     0.018861
      dyz     :     0.009603
      dx2y2   :     0.020509
      dxy     :     0.012513
  2 C s       :     3.204276  s :     3.204276
      pz      :     0.881112  p :     2.725748
      px      :     0.907573
      py      :     0.937062
      dz2     :     0.012060  d :     0.055219
      dxz     :     0.012465
      dyz     :     0.010173
      dx2y2   :     0.012084
      dxy     :     0.008437
  3 C s       :     3.213983  s :     3.213983
      pz      :     0.881662  p :     2.751182
      px      :     0.905103
      py      :     0.964417
      dz2     :     0.012294  d :     0.056865
      dxz     :     0.012624
      dyz     :     0.010607
      dx2y2   :     0.012725
      dxy     :     0.008616
  4 C s       :     3.207183  s :     3.207183
      pz      :     0.912602  p :     2.708411
      px      :     0.872683
      py      :     0.923126
      dz2     :     0.013095  d :     0.056973
      dxz     :     0.009770
      dyz     :     0.008490
      dx2y2   :     0.014453
      dxy     :     0.011165
  5 C s       :     3.213981  s :     3.213981
      pz      :     0.881662  p :     2.751185
      px      :     0.905105
      py      :     0.964417
      dz2     :     0.012294  d :     0.056865
      dxz     :     0.012624
      dyz     :     0.010607
      dx2y2   :     0.012725
      dxy     :     0.008616
  6 C s       :     3.379643  s :     3.379643
      pz      :     1.146856  p :     3.220954
      px      :     1.134555
      py      :     0.939543
      dz2     :     0.007815  d :     0.035540
      dxz     :     0.007355
      dyz     :     0.006267
      dx2y2   :     0.008738
      dxy     :     0.005365
  7 O s       :     3.844915  s :     3.844915
      pz      :     1.902795  p :     4.773285
      px      :     1.461041
      py      :     1.409449
      dz2     :     0.005453  d :     0.029101
      dxz     :     0.003298
      dyz     :     0.001106
      dx2y2   :     0.016387
      dxy     :     0.002857
  8 C s       :     3.327226  s :     3.327226
      pz      :     0.978855  p :     3.104439
      px      :     1.114560
      py      :     1.011024
      dz2     :     0.010157  d :     0.043332
      dxz     :     0.009681
      dyz     :     0.008568
      dx2y2   :     0.008864
      dxy     :     0.006062
  9 C s       :     3.319386  s :     3.319386
      pz      :     1.086817  p :     3.092904
      px      :     1.118006
      py      :     0.888082
      dz2     :     0.004931  d :     0.043398
      dxz     :     0.006682
      dyz     :     0.010769
      dx2y2   :     0.008488
      dxy     :     0.012527
 10 C s       :     3.318965  s :     3.318965
      pz      :     1.070817  p :     3.081085
      px      :     1.123589
      py      :     0.886679
      dz2     :     0.004900  d :     0.043487
      dxz     :     0.007002
      dyz     :     0.011046
      dx2y2   :     0.008686
      dxy     :     0.011853
 11 C s       :     3.331438  s :     3.331438
      pz      :     0.981052  p :     3.117057
      px      :     1.104073
      py      :     1.031933
      dz2     :     0.010136  d :     0.043417
      dxz     :     0.009991
      dyz     :     0.008508
      dx2y2   :     0.008137
      dxy     :     0.006646
 12 C s       :     3.329343  s :     3.329343
      pz      :     1.155072  p :     3.119995
      px      :     0.911939
      py      :     1.052984
      dz2     :     0.008750  d :     0.043492
      dxz     :     0.011647
      dyz     :     0.002875
      dx2y2   :     0.009827
      dxy     :     0.010392
 13 C s       :     3.318905  s :     3.318905
      pz      :     1.150665  p :     3.072286
      px      :     1.038817
      py      :     0.882804
      dz2     :     0.009450  d :     0.043244
      dxz     :     0.001942
      dyz     :     0.012024
      dx2y2   :     0.009375
      dxy     :     0.010452
 14 C s       :     3.318964  s :     3.318964
      pz      :     1.070817  p :     3.081085
      px      :     1.123589
      py      :     0.886679
      dz2     :     0.004900  d :     0.043487
      dxz     :     0.007002
      dyz     :     0.011046
      dx2y2   :     0.008686
      dxy     :     0.011853
 15 C s       :     3.331437  s :     3.331437
      pz      :     0.981052  p :     3.117057
      px      :     1.104073
      py      :     1.031933
      dz2     :     0.010136  d :     0.043417
      dxz     :     0.009991
      dyz     :     0.008508
      dx2y2   :     0.008137
      dxy     :     0.006646
 16 C s       :     3.319386  s :     3.319386
      pz      :     1.086817  p :     3.092904
      px      :     1.118006
      py      :     0.888082
      dz2     :     0.004931  d :     0.043398
      dxz     :     0.006682
      dyz     :     0.010769
      dx2y2   :     0.008488
      dxy     :     0.012527
 17 C s       :     3.327227  s :     3.327227
      pz      :     0.978855  p :     3.104439
      px      :     1.114560
      py      :     1.011024
      dz2     :     0.010157  d :     0.043332
      dxz     :     0.009681
      dyz     :     0.008568
      dx2y2   :     0.008864
      dxy     :     0.006062
 18 H s       :     0.759209  s :     0.759209
 19 H s       :     0.772821  s :     0.772821
 20 H s       :     0.772821  s :     0.772821
 21 H s       :     0.585807  s :     0.585807
 22 H s       :     0.763409  s :     0.763409
 23 H s       :     0.796244  s :     0.796244
 24 H s       :     0.746502  s :     0.746502
 25 H s       :     0.776714  s :     0.776714
 26 H s       :     0.760694  s :     0.760694
 27 H s       :     0.766907  s :     0.766907
 28 H s       :     0.771337  s :     0.771337
 29 H s       :     0.768835  s :     0.768835
 30 H s       :     0.770188  s :     0.770188
 31 H s       :     0.770189  s :     0.770189
 32 H s       :     0.769548  s :     0.769548
 33 H s       :     0.769548  s :     0.769548
 34 H s       :     0.766907  s :     0.766907
 35 H s       :     0.760694  s :     0.760694
 36 H s       :     0.768835  s :     0.768835
 37 H s       :     0.771336  s :     0.771336
 38 H s       :     0.776714  s :     0.776714
 39 H s       :     0.746502  s :     0.746502
 40 H s       :     0.796244  s :     0.796244
 41 H s       :     0.763409  s :     0.763409


                     *******************************
                     * LOEWDIN POPULATION ANALYSIS *
                     *******************************

----------------------
LOEWDIN ATOMIC CHARGES
----------------------
   0 C :   -0.066888
   1 C :    0.065234
   2 C :   -0.066888
   3 C :   -0.051614
   4 C :   -0.046396
   5 C :   -0.051614
   6 C :   -0.338795
   7 O :   -0.379600
   8 C :   -0.250685
   9 C :   -0.242666
  10 C :   -0.239503
  11 C :   -0.248495
  12 C :   -0.250748
  13 C :   -0.234113
  14 C :   -0.239503
  15 C :   -0.248495
  16 C :   -0.242666
  17 C :   -0.250685
  18 H :    0.138637
  19 H :    0.133046
  20 H :    0.133046
  21 H :    0.305660
  22 H :    0.137430
  23 H :    0.120294
  24 H :    0.145675
  25 H :    0.128756
  26 H :    0.137914
  27 H :    0.135836
  28 H :    0.131379
  29 H :    0.132971
  30 H :    0.131654
  31 H :    0.131654
  32 H :    0.134958
  33 H :    0.134958
  34 H :    0.135836
  35 H :    0.137914
  36 H :    0.132971
  37 H :    0.131379
  38 H :    0.128756
  39 H :    0.145675
  40 H :    0.120294
  41 H :    0.137430

-------------------------------
LOEWDIN REDUCED ORBITAL CHARGES
-------------------------------
  0 C s       :     2.825965  s :     2.825965
      pz      :     1.023854  p :     3.113585
      px      :     1.028126
      py      :     1.061606
      dz2     :     0.028319  d :     0.127337
      dxz     :     0.029639
      dyz     :     0.022672
      dx2y2   :     0.027464
      dxy     :     0.019244
  1 C s       :     2.836635  s :     2.836635
      pz      :     1.026033  p :     2.923412
      px      :     0.852098
      py      :     1.045281
      dz2     :     0.033686  d :     0.174719
      dxz     :     0.044654
      dyz     :     0.020946
      dx2y2   :     0.048696
      dxy     :     0.026738
  2 C s       :     2.825965  s :     2.825965
      pz      :     1.023854  p :     3.113585
      px      :     1.028126
      py      :     1.061606
      dz2     :     0.028319  d :     0.127337
      dxz     :     0.029639
      dyz     :     0.022672
      dx2y2   :     0.027464
      dxy     :     0.019244
  3 C s       :     2.813338  s :     2.813338
      pz      :     1.016367  p :     3.106754
      px      :     1.023318
      py      :     1.067070
      dz2     :     0.029213  d :     0.131522
      dxz     :     0.030126
      dyz     :     0.023193
      dx2y2   :     0.029317
      dxy     :     0.019673
  4 C s       :     2.814047  s :     2.814047
      pz      :     1.034692  p :     3.100936
      px      :     1.021034
      py      :     1.045210
      dz2     :     0.030339  d :     0.131413
      dxz     :     0.024473
      dyz     :     0.020615
      dx2y2   :     0.032425
      dxy     :     0.023561
  5 C s       :     2.813338  s :     2.813338
      pz      :     1.016367  p :     3.106755
      px      :     1.023318
      py      :     1.067070
      dz2     :     0.029213  d :     0.131522
      dxz     :     0.030126
      dyz     :     0.023193
      dx2y2   :     0.029317
      dxy     :     0.019673
  6 C s       :     2.953827  s :     2.953827
      pz      :     1.131862  p :     3.318753
      px      :     1.131517
      py      :     1.055374
      dz2     :     0.013927  d :     0.066214
      dxz     :     0.011816
      dyz     :     0.012215
      dx2y2   :     0.017826
      dxy     :     0.010430
  7 O s       :     3.528300  s :     3.528300
      pz      :     1.894212  p :     4.800742
      px      :     1.495691
      py      :     1.410839
      dz2     :     0.007846  d :     0.050559
      dxz     :     0.006712
      dyz     :     0.001501
      dx2y2   :     0.027280
      dxy     :     0.007220
  8 C s       :     2.899292  s :     2.899292
      pz      :     1.055166  p :     3.262243
      px      :     1.108025
      py      :     1.099052
      dz2     :     0.021652  d :     0.089150
      dxz     :     0.019413
      dyz     :     0.018398
      dx2y2   :     0.017135
      dxy     :     0.012553
  9 C s       :     2.899809  s :     2.899809
      pz      :     1.134866  p :     3.253557
      px      :     1.116111
      py      :     1.002580
      dz2     :     0.010606  d :     0.089299
      dxz     :     0.011808
      dyz     :     0.022308
      dx2y2   :     0.018729
      dxy     :     0.025848
 10 C s       :     2.902726  s :     2.902726
      pz      :     1.125322  p :     3.247610
      px      :     1.119488
      py      :     1.002800
      dz2     :     0.010368  d :     0.089167
      dxz     :     0.012337
      dyz     :     0.022994
      dx2y2   :     0.019091
      dxy     :     0.024378
 11 C s       :     2.896787  s :     2.896787
      pz      :     1.049608  p :     3.262830
      px      :     1.101142
      py      :     1.112080
      dz2     :     0.021295  d :     0.088878
      dxz     :     0.020169
      dyz     :     0.018290
      dx2y2   :     0.015658
      dxy     :     0.013465
 12 C s       :     2.896739  s :     2.896739
      pz      :     1.118007  p :     3.265032
      px      :     1.016290
      py      :     1.130735
      dz2     :     0.016270  d :     0.088976
      dxz     :     0.023748
      dyz     :     0.006187
      dx2y2   :     0.020988
      dxy     :     0.021783
 13 C s       :     2.903890  s :     2.903890
      pz      :     1.115446  p :     3.241576
      px      :     1.123638
      py      :     1.002492
      dz2     :     0.017380  d :     0.088647
      dxz     :     0.004330
      dyz     :     0.024722
      dx2y2   :     0.020197
      dxy     :     0.022019
 14 C s       :     2.902726  s :     2.902726
      pz      :     1.125322  p :     3.247610
      px      :     1.119488
      py      :     1.002800
      dz2     :     0.010368  d :     0.089167
      dxz     :     0.012337
      dyz     :     0.022994
      dx2y2   :     0.019091
      dxy     :     0.024378
 15 C s       :     2.896787  s :     2.896787
      pz      :     1.049608  p :     3.262830
      px      :     1.101142
      py      :     1.112080
      dz2     :     0.021295  d :     0.088878
      dxz     :     0.020169
      dyz     :     0.018290
      dx2y2   :     0.015658
      dxy     :     0.013465
 16 C s       :     2.899809  s :     2.899809
      pz      :     1.134866  p :     3.253557
      px      :     1.116111
      py      :     1.002580
      dz2     :     0.010606  d :     0.089299
      dxz     :     0.011808
      dyz     :     0.022308
      dx2y2   :     0.018729
      dxy     :     0.025848
 17 C s       :     2.899292  s :     2.899292
      pz      :     1.055166  p :     3.262243
      px      :     1.108026
      py      :     1.099052
      dz2     :     0.021652  d :     0.089150
      dxz     :     0.019413
      dyz     :     0.018398
      dx2y2   :     0.017135
      dxy     :     0.012553
 18 H s       :     0.861363  s :     0.861363
 19 H s       :     0.866954  s :     0.866954
 20 H s       :     0.866954  s :     0.866954
 21 H s       :     0.694340  s :     0.694340
 22 H s       :     0.862570  s :     0.862570
 23 H s       :     0.879706  s :     0.879706
 24 H s       :     0.854325  s :     0.854325
 25 H s       :     0.871244  s :     0.871244
 26 H s       :     0.862086  s :     0.862086
 27 H s       :     0.864164  s :     0.864164
 28 H s       :     0.868621  s :     0.868621
 29 H s       :     0.867029  s :     0.867029
 30 H s       :     0.868346  s :     0.868346
 31 H s       :     0.868346  s :     0.868346
 32 H s       :     0.865042  s :     0.865042
 33 H s       :     0.865042  s :     0.865042
 34 H s       :     0.864164  s :     0.864164
 35 H s       :     0.862086  s :     0.862086
 36 H s       :     0.867029  s :     0.867029
 37 H s       :     0.868621  s :     0.868621
 38 H s       :     0.871244  s :     0.871244
 39 H s       :     0.854325  s :     0.854325
 40 H s       :     0.879706  s :     0.879706
 41 H s       :     0.862570  s :     0.862570


                      *****************************
                      * MAYER POPULATION ANALYSIS *
                      *****************************

  NA   - Mulliken gross atomic population
  ZA   - Total nuclear charge
  QA   - Mulliken gross atomic charge
  VA   - Mayer's total valence
  BVA  - Mayer's bonded valence
  FA   - Mayer's free valence

  ATOM       NA         ZA         QA         VA         BVA        FA
  0 C      5.9852     6.0000     0.0148     3.6513     3.6513    -0.0000
  1 C      5.7985     6.0000     0.2015     3.8064     3.8064    -0.0000
  2 C      5.9852     6.0000     0.0148     3.6513     3.6513     0.0000
  3 C      6.0220     6.0000    -0.0220     3.7572     3.7572     0.0000
  4 C      5.9726     6.0000     0.0274     3.7169     3.7169    -0.0000
  5 C      6.0220     6.0000    -0.0220     3.7572     3.7572    -0.0000
  6 C      6.6361     6.0000    -0.6361     3.6844     3.6844     0.0000
  7 O      8.6473     8.0000    -0.6473     1.8579     1.8579     0.0000
  8 C      6.4750     6.0000    -0.4750     3.6804     3.6804     0.0000
  9 C      6.4557     6.0000    -0.4557     3.7094     3.7094     0.0000
 10 C      6.4435     6.0000    -0.4435     3.6706     3.6706    -0.0000
 11 C      6.4919     6.0000    -0.4919     3.7082     3.7082    -0.0000
 12 C      6.4928     6.0000    -0.4928     3.7061     3.7061     0.0000
 13 C      6.4344     6.0000    -0.4344     3.6710     3.6710    -0.0000
 14 C      6.4435     6.0000    -0.4435     3.6705     3.6705    -0.0000
 15 C      6.4919     6.0000    -0.4919     3.7082     3.7082     0.0000
 16 C      6.4557     6.0000    -0.4557     3.7094     3.7094     0.0000
 17 C      6.4750     6.0000    -0.4750     3.6804     3.6804    -0.0000
 18 H      0.7592     1.0000     0.2408     0.9006     0.9006     0.0000
 19 H      0.7728     1.0000     0.2272     0.9158     0.9158     0.0000
 20 H      0.7728     1.0000     0.2272     0.9158     0.9158     0.0000
 21 H      0.5858     1.0000     0.4142     0.8147     0.8147    -0.0000
 22 H      0.7634     1.0000     0.2366     0.9186     0.9186     0.0000
 23 H      0.7962     1.0000     0.2038     0.9342     0.9342     0.0000
 24 H      0.7465     1.0000     0.2535     0.9192     0.9192     0.0000
 25 H      0.7767     1.0000     0.2233     0.9236     0.9236     0.0000
 26 H      0.7607     1.0000     0.2393     0.9167     0.9167     0.0000
 27 H      0.7669     1.0000     0.2331     0.9195     0.9195    -0.0000
 28 H      0.7713     1.0000     0.2287     0.9226     0.9226    -0.0000
 29 H      0.7688     1.0000     0.2312     0.9207     0.9207     0.0000
 30 H      0.7702     1.0000     0.2298     0.9217     0.9217     0.0000
 31 H      0.7702     1.0000     0.2298     0.9217     0.9217     0.0000
 32 H      0.7695     1.0000     0.2305     0.9216     0.9216    -0.0000
 33 H      0.7695     1.0000     0.2305     0.9216     0.9216     0.0000
 34 H      0.7669     1.0000     0.2331     0.9195     0.9195    -0.0000
 35 H      0.7607     1.0000     0.2393     0.9167     0.9167     0.0000
 36 H      0.7688     1.0000     0.2312     0.9207     0.9207    -0.0000
 37 H      0.7713     1.0000     0.2287     0.9226     0.9226    -0.0000
 38 H      0.7767     1.0000     0.2233     0.9236     0.9236    -0.0000
 39 H      0.7465     1.0000     0.2535     0.9192     0.9192     0.0000
 40 H      0.7962     1.0000     0.2038     0.9342     0.9342     0.0000
 41 H      0.7634     1.0000     0.2366     0.9186     0.9186    -0.0000

  Mayer bond orders larger than 0.100000
B(  0-C ,  1-C ) :   0.9439 B(  0-C ,  5-C ) :   0.9816 B(  0-C , 16-C ) :   0.9181 
B(  0-C , 17-C ) :   0.9227 B(  1-C ,  2-C ) :   0.9439 B(  1-C ,  6-C ) :   0.9848 
B(  1-C ,  7-O ) :   0.9607 B(  2-C ,  3-C ) :   0.9816 B(  2-C ,  8-C ) :   0.9227 
B(  2-C ,  9-C ) :   0.9181 B(  3-C ,  4-C ) :   0.9895 B(  3-C , 10-C ) :   0.9068 
B(  3-C , 11-C ) :   0.9304 B(  4-C ,  5-C ) :   0.9895 B(  4-C , 12-C ) :   0.9305 
B(  4-C , 13-C ) :   0.9019 B(  5-C , 14-C ) :   0.9068 B(  5-C , 15-C ) :   0.9304 
B(  6-C , 18-H ) :   0.9064 B(  6-C , 19-H ) :   0.9213 B(  6-C , 20-H ) :   0.9213 
B(  7-O , 21-H ) :   0.7729 B(  8-C ,  9-C ) :   0.9249 B(  8-C , 38-H ) :   0.9169 
B(  8-C , 39-H ) :   0.9049 B(  9-C , 40-H ) :   0.9260 B(  9-C , 41-H ) :   0.9195 
B( 10-C , 11-C ) :   0.9326 B( 10-C , 34-H ) :   0.9219 B( 10-C , 35-H ) :   0.9190 
B( 11-C , 36-H ) :   0.9122 B( 11-C , 37-H ) :   0.9128 B( 12-C , 13-C ) :   0.9308 
B( 12-C , 30-H ) :   0.9115 B( 12-C , 31-H ) :   0.9115 B( 13-C , 32-H ) :   0.9233 
B( 13-C , 33-H ) :   0.9233 B( 14-C , 15-C ) :   0.9326 B( 14-C , 26-H ) :   0.9190 
B( 14-C , 27-H ) :   0.9219 B( 15-C , 28-H ) :   0.9128 B( 15-C , 29-H ) :   0.9122 
B( 16-C , 17-C ) :   0.9249 B( 16-C , 22-H ) :   0.9195 B( 16-C , 23-H ) :   0.9260 
B( 17-C , 24-H ) :   0.9049 B( 17-C , 25-H ) :   0.9169 

-------
TIMINGS
-------

Total SCF time: 0 days 0 hours 6 min 47 sec 

Total time                  ....     407.273 sec
Sum of individual times     ....     400.237 sec  ( 98.3%)

Fock matrix formation       ....     367.772 sec  ( 90.3%)
  Split-RI-J                ....      25.188 sec  (  6.8% of F)
  Chain of spheres X        ....     270.748 sec  ( 73.6% of F)
  XC integration            ....      59.794 sec  ( 16.3% of F)
    Basis function eval.    ....      19.430 sec  ( 32.5% of XC)
    Density eval.           ....      13.605 sec  ( 22.8% of XC)
    XC-Functional eval.     ....       3.892 sec  (  6.5% of XC)
    XC-Potential eval.      ....       7.528 sec  ( 12.6% of XC)
Diagonalization             ....       2.495 sec  (  0.6%)
Density matrix formation    ....       0.148 sec  (  0.0%)
Population analysis         ....       0.300 sec  (  0.1%)
Initial guess               ....       0.292 sec  (  0.1%)
Orbital Transformation      ....       0.000 sec  (  0.0%)
Orbital Orthonormalization  ....       0.000 sec  (  0.0%)
DIIS solution               ....       3.400 sec  (  0.8%)
SOSCF solution              ....       1.899 sec  (  0.5%)
Grid generation             ....      23.931 sec  (  5.9%)

Maximum memory used throughout the entire SCF-calculation: 124.2 MB


-------------------------------------------------------------------------------
                          DFT DISPERSION CORRECTION                            
                                                                               
                              DFTD3 V3.1  Rev 1                                
                          USING Becke-Johnson damping                          
-------------------------------------------------------------------------------
The PBEh-3c composite method is recognized
Using three-body term ABC
Active option DFTDOPT                   ...         4   

molecular C6(AA) [au] = 13876.544351 


            DFT-D V3
 parameters
 s6 scaling factor         :     1.0000 
 a1 scaling factor         :     0.4860 
 s8 scaling factor         :     0.0000 
 a2 scaling factor         :     4.5000 
 Damping factor alpha9(ATM):    16.0000 
 ad hoc parameters k1-k3   :    16.0000     1.3333    -4.0000 

 Edisp/kcal,au: -20.586689147776  -0.032806973923 
 E6   /kcal   : -21.083629657 
 E8   /kcal   :  -0.000000000 
 E6(ABC)      :   0.496940509 
 % E8         :   0.000000000 
 % E6(ABC)    :  -2.413892323 

-------------------------   ----------------
Dispersion correction           -0.032806974
-------------------------   ----------------

------------------   -----------------
gCP correction             0.070245819
------------------   -----------------

-------------------------   --------------------
FINAL SINGLE POINT ENERGY      -735.757236578237
-------------------------   --------------------


                            ***************************************
                            *     ORCA property calculations      *
                            ***************************************

                                    ---------------------
                                    Active property flags
                                    ---------------------
   (+) Dipole Moment


------------------------------------------------------------------------------
                       ORCA ELECTRIC PROPERTIES CALCULATION
------------------------------------------------------------------------------

Dipole Moment Calculation                       ... on
Quadrupole Moment Calculation                   ... off
Polarizability Calculation                      ... off
GBWName                                         ... pbeh-3c.gbw
Electron density                                ... pbeh-3c.scfp
The origin for moment calculation is the CENTER OF MASS  = ( 0.186971,  0.031586 -0.000000)

-------------
DIPOLE MOMENT
-------------
                                X             Y             Z
Electronic contribution:      2.79691       1.04563       0.00000
Nuclear contribution   :     -3.24376      -0.73288       0.00000
                        -----------------------------------------
Total Dipole Moment    :     -0.44685       0.31274       0.00000
                        -----------------------------------------
Magnitude (a.u.)       :      0.54542
Magnitude (Debye)      :      1.38635



--------------------
Rotational spectrum 
--------------------
 
Rotational constants in cm-1:     0.018485     0.018188     0.012655 
Rotational constants in MHz :   554.156132   545.251843   379.377847 

 Dipole components along the rotational axes: 
x,y,z [a.u.] :     0.000000    -0.460508     0.292259 
x,y,z [Debye]:     0.000000    -1.170517     0.742862 

 

Timings for individual modules:

Sum of individual times         ...      412.937 sec (=   6.882 min)
GTO integral calculation        ...        4.954 sec (=   0.083 min)   1.2 %
SCF iterations                  ...      407.984 sec (=   6.800 min)  98.8 %
                             ****ORCA TERMINATED NORMALLY****
TOTAL RUN TIME: 0 days 0 hours 6 minutes 54 seconds 775 msec
