
                                 *****************
                                 * O   R   C   A *
                                 *****************

                                            #,                                       
                                            ###                                      
                                            ####                                     
                                            #####                                    
                                            ######                                   
                                           ########,                                 
                                     ,,################,,,,,                         
                               ,,#################################,,                 
                          ,,##########################################,,             
                       ,#########################################, ''#####,          
                    ,#############################################,,   '####,        
                  ,##################################################,,,,####,       
                ,###########''''           ''''###############################       
              ,#####''   ,,,,##########,,,,          '''####'''          '####       
            ,##' ,,,,###########################,,,                        '##       
           ' ,,###''''                  '''############,,,                           
         ,,##''                                '''############,,,,        ,,,,,,###''
      ,#''                                            '''#######################'''  
     '                                                          ''''####''''         
             ,#######,   #######,   ,#######,      ##                                
            ,#'     '#,  ##    ##  ,#'     '#,    #''#        ######   ,####,        
            ##       ##  ##   ,#'  ##            #'  '#       #        #'  '#        
            ##       ##  #######   ##           ,######,      #####,   #    #        
            '#,     ,#'  ##    ##  '#,     ,#' ,#      #,         ##   #,  ,#        
             '#######'   ##     ##  '#######'  #'      '#     #####' # '####'        



                  #######################################################
                  #                        -***-                        #
                  #          Department of theory and spectroscopy      #
                  #    Directorship and core code : Frank Neese         #
                  #        Max Planck Institute fuer Kohlenforschung    #
                  #                Kaiser Wilhelm Platz 1               #
                  #                 D-45470 Muelheim/Ruhr               #
                  #                      Germany                        #
                  #                                                     #
                  #                  All rights reserved                #
                  #                        -***-                        #
                  #######################################################


                         Program Version 5.0.3 -  RELEASE  -


 With contributions from (in alphabetic order):
   Daniel Aravena         : Magnetic Suceptibility
   Michael Atanasov       : Ab Initio Ligand Field Theory (pilot matlab implementation)
   Alexander A. Auer      : GIAO ZORA, VPT2 properties, NMR spectrum
   Ute Becker             : Parallelization
   Giovanni Bistoni       : ED, misc. LED, open-shell LED, HFLD
   Martin Brehm           : Molecular dynamics
   Dmytro Bykov           : SCF Hessian
   Vijay G. Chilkuri      : MRCI spin determinant printing, contributions to CSF-ICE
   Dipayan Datta          : RHF DLPNO-CCSD density
   Achintya Kumar Dutta   : EOM-CC, STEOM-CC
   Dmitry Ganyushin       : Spin-Orbit,Spin-Spin,Magnetic field MRCI
   Miquel Garcia          : C-PCM and meta-GGA Hessian, CC/C-PCM, Gaussian charge scheme
   Yang Guo               : DLPNO-NEVPT2, F12-NEVPT2, CIM, IAO-localization
   Andreas Hansen         : Spin unrestricted coupled pair/coupled cluster methods
   Benjamin Helmich-Paris : MC-RPA, TRAH-SCF, COSX integrals
   Lee Huntington         : MR-EOM, pCC
   Robert Izsak           : Overlap fitted RIJCOSX, COSX-SCS-MP3, EOM
   Marcus Kettner         : VPT2
   Christian Kollmar      : KDIIS, OOCD, Brueckner-CCSD(T), CCSD density, CASPT2, CASPT2-K
   Simone Kossmann        : Meta GGA functionals, TD-DFT gradient, OOMP2, MP2 Hessian
   Martin Krupicka        : Initial AUTO-CI
   Lucas Lang             : DCDCAS
   Marvin Lechner         : AUTO-CI (C++ implementation), FIC-MRCC
   Dagmar Lenk            : GEPOL surface, SMD
   Dimitrios Liakos       : Extrapolation schemes; Compound Job, initial MDCI parallelization
   Dimitrios Manganas     : Further ROCIS development; embedding schemes
   Dimitrios Pantazis     : SARC Basis sets
   Anastasios Papadopoulos: AUTO-CI, single reference methods and gradients
   Taras Petrenko         : DFT Hessian,TD-DFT gradient, ASA, ECA, R-Raman, ABS, FL, XAS/XES, NRVS
   Peter Pinski           : DLPNO-MP2, DLPNO-MP2 Gradient
   Christoph Reimann      : Effective Core Potentials
   Marius Retegan         : Local ZFS, SOC
   Christoph Riplinger    : Optimizer, TS searches, QM/MM, DLPNO-CCSD(T), (RO)-DLPNO pert. Triples
   Tobias Risthaus        : Range-separated hybrids, TD-DFT gradient, RPA, STAB
   Michael Roemelt        : Original ROCIS implementation
   Masaaki Saitow         : Open-shell DLPNO-CCSD energy and density
   Barbara Sandhoefer     : DKH picture change effects
   Avijit Sen             : IP-ROCIS
   Kantharuban Sivalingam : CASSCF convergence, NEVPT2, FIC-MRCI
   Bernardo de Souza      : ESD, SOC TD-DFT
   Georgi Stoychev        : AutoAux, RI-MP2 NMR, DLPNO-MP2 response
   Willem Van den Heuvel  : Paramagnetic NMR
   Boris Wezisla          : Elementary symmetry handling
   Frank Wennmohs         : Technical directorship


 We gratefully acknowledge several colleagues who have allowed us to
 interface, adapt or use parts of their codes:
   Stefan Grimme, W. Hujo, H. Kruse, P. Pracht,  : VdW corrections, initial TS optimization,
                  C. Bannwarth, S. Ehlert          DFT functionals, gCP, sTDA/sTD-DF
   Ed Valeev, F. Pavosevic, A. Kumar             : LibInt (2-el integral package), F12 methods
   Garnet Chan, S. Sharma, J. Yang, R. Olivares  : DMRG
   Ulf Ekstrom                                   : XCFun DFT Library
   Mihaly Kallay                                 : mrcc  (arbitrary order and MRCC methods)
   Jiri Pittner, Ondrej Demel                    : Mk-CCSD
   Frank Weinhold                                : gennbo (NPA and NBO analysis)
   Christopher J. Cramer and Donald G. Truhlar   : smd solvation model
   Lars Goerigk                                  : TD-DFT with DH, B97 family of functionals
   V. Asgeirsson, H. Jonsson                     : NEB implementation
   FAccTs GmbH                                   : IRC, NEB, NEB-TS, DLPNO-Multilevel, CI-OPT
                                                   MM, QMMM, 2- and 3-layer-ONIOM, Crystal-QMMM,
                                                   LR-CPCM, SF, NACMEs, symmetry and pop. for TD-DFT,
                                                   nearIR, NL-DFT gradient (VV10), updates on ESD,
                                                   ML-optimized integration grids
   S Lehtola, MJT Oliveira, MAL Marques          : LibXC Library
   Liviu Ungur et al                             : ANISO software


 Your calculation uses the libint2 library for the computation of 2-el integrals
 For citations please refer to: http://libint.valeyev.net

 Your ORCA version has been built with support for libXC version: 5.1.0
 For citations please refer to: https://tddft.org/programs/libxc/

 This ORCA versions uses:
   CBLAS   interface :  Fast vector & matrix operations
   LAPACKE interface :  Fast linear algebra routines
   SCALAPACK package :  Parallel linear algebra routines
   Shared memory     :  Shared parallel matrices
   BLAS/LAPACK       :  OpenBLAS 0.3.15  USE64BITINT DYNAMIC_ARCH NO_AFFINITY Haswell SINGLE_THREADED
        Core in use  :  Haswell
   Copyright (c) 2011-2014, The OpenBLAS Project




***************************************
The coordinates will be read from file: 13ts_2a.xyz
***************************************


Your calculation utilizes the geometrical counterpoise correction gCP
Please cite in your paper:
H.Kruse, S. Grimme J.Chem.Phys., 136, (2012), 154101 
   

Your calculation utilizes the atom-pairwise dispersion correction
with the Becke-Johnson damping scheme (D3BJ)
Cite in your paper:
S.Grimme, S.Ehrlich, L.Goerigk, J Comput Chem, (2011), 32, 1456–1465 
S.Grimme, J.Antony, S.Ehrlich and H.Krieg, J.Chem.Phys., 132, (2010), 154104 
   

Your calculation employs the composite approach PBEh-3c.
Please cite in your paper:
S. Grimme, J. G. Brandenburg, C. Bannwarth, A. Hansen J.Chem.Phys., 143, (2015), 054107 
   

================================================================================

----- Orbital basis set information -----
Your calculation utilizes the basis: def2-mSVP

----- AuxJ basis set information -----
Your calculation utilizes the auxiliary basis: def2/J
   F. Weigend, Phys. Chem. Chem. Phys. 8, 1057 (2006).

================================================================================
                                        WARNINGS
                       Please study these warnings very carefully!
================================================================================


INFO   : the flag for use of the SHARK integral package has been found!

================================================================================
                                       INPUT FILE
================================================================================
NAME = pbeh-3c.inp
|  1> ! PBEh-3c def2/J TightSCF DefGrid3
|  2> 
|  3> %maxcore 60000
|  4> 
|  5> %pal
|  6> nprocs 4
|  7> end
|  8> 
|  9> *xyzfile 0 1 13ts_2a.xyz
| 10> 
| 11>                          ****END OF INPUT****
================================================================================

                       ****************************
                       * Single Point Calculation *
                       ****************************

---------------------------------
CARTESIAN COORDINATES (ANGSTROEM)
---------------------------------
  C      0.858508    0.851499   -0.054066
  C      0.856658   -0.532348   -0.021484
  N     -1.218956   -0.930226   -0.123497
  N     -1.667046    0.255934   -0.012121
  N     -1.210739    1.330914   -0.050630
  H      1.039729    1.420147    0.848392
  H      1.040725    1.371326   -0.986268
  H      1.025091   -1.056979    0.911291
  H      1.042072   -1.103942   -0.920502
  H     -1.766043   -1.606327    0.408885

----------------------------
CARTESIAN COORDINATES (A.U.)
----------------------------
  NO LB      ZA    FRAG     MASS         X           Y           Z
   0 C     6.0000    0    12.011    1.622346    1.609100   -0.102169
   1 C     6.0000    0    12.011    1.618849   -1.005993   -0.040599
   2 N     7.0000    0    14.007   -2.303492   -1.757871   -0.233376
   3 N     7.0000    0    14.007   -3.150260    0.483645   -0.022906
   4 N     7.0000    0    14.007   -2.287964    2.515063   -0.095677
   5 H     1.0000    0     1.008    1.964803    2.683689    1.603229
   6 H     1.0000    0     1.008    1.966685    2.591431   -1.863777
   7 H     1.0000    0     1.008    1.937141   -1.997400    1.722090
   8 H     1.0000    0     1.008    1.969231   -2.086147   -1.739496
   9 H     1.0000    0     1.008   -3.337339   -3.035518    0.772680

--------------------------------
INTERNAL COORDINATES (ANGSTROEM)
--------------------------------
 C      0   0   0     0.000000000000     0.00000000     0.00000000
 C      1   0   0     1.384232340029     0.00000000     0.00000000
 N      2   1   0     2.115864911063   100.84594232     0.00000000
 N      3   2   1     1.272856591568    99.54851585   352.53128429
 N      4   3   2     1.168452411155   135.80557628    11.58186089
 H      1   2   3     1.081957506331   120.39898370   104.22320517
 H      1   2   3     1.082785727217   120.02905033   261.90843803
 H      2   1   3     1.083362912765   120.27722925   256.51150751
 H      2   1   3     1.081355918251   120.57358162    98.46195315
 H      3   2   1     1.019729839254   128.74111440   223.23717319

---------------------------
INTERNAL COORDINATES (A.U.)
---------------------------
 C      0   0   0     0.000000000000     0.00000000     0.00000000
 C      1   0   0     2.615820028371     0.00000000     0.00000000
 N      2   1   0     3.998405218282   100.84594232     0.00000000
 N      3   2   1     2.405350365820    99.54851585   352.53128429
 N      4   3   2     2.208055057603   135.80557628    11.58186089
 H      1   2   3     2.044603375506   120.39898370   104.22320517
 H      1   2   3     2.046168486159   120.02905033   261.90843803
 H      2   1   3     2.047259208773   120.27722925   256.51150751
 H      2   1   3     2.043466538789   120.57358162    98.46195315
 H      3   2   1     1.927010126778   128.74111440   223.23717319

---------------------
BASIS SET INFORMATION
---------------------
There are 3 groups of distinct atoms

 Group   1 Type C   : 8s4p1d contracted to 4s2p1d pattern {5111/31/1}
 Group   2 Type N   : 8s4p1d contracted to 4s2p1d pattern {5111/31/1}
 Group   3 Type H   : 4s contracted to 2s pattern {31}

Atom   0C    basis set group =>   1
Atom   1C    basis set group =>   1
Atom   2N    basis set group =>   2
Atom   3N    basis set group =>   2
Atom   4N    basis set group =>   2
Atom   5H    basis set group =>   3
Atom   6H    basis set group =>   3
Atom   7H    basis set group =>   3
Atom   8H    basis set group =>   3
Atom   9H    basis set group =>   3
---------------------------------
AUXILIARY/J BASIS SET INFORMATION
---------------------------------
There are 3 groups of distinct atoms

 Group   1 Type C   : 12s5p4d2f1g contracted to 6s4p3d1f1g pattern {711111/2111/211/2/1}
 Group   2 Type N   : 12s5p4d2f1g contracted to 6s4p3d1f1g pattern {711111/2111/211/2/1}
 Group   3 Type H   : 5s2p1d contracted to 3s1p1d pattern {311/2/1}

Atom   0C    basis set group =>   1
Atom   1C    basis set group =>   1
Atom   2N    basis set group =>   2
Atom   3N    basis set group =>   2
Atom   4N    basis set group =>   2
Atom   5H    basis set group =>   3
Atom   6H    basis set group =>   3
Atom   7H    basis set group =>   3
Atom   8H    basis set group =>   3
Atom   9H    basis set group =>   3


           ************************************************************
           *        Program running with 4 parallel MPI-processes     *
           *              working on a common directory               *
           ************************************************************
------------------------------------------------------------------------------
                           ORCA GTO INTEGRAL CALCULATION
                           -- RI-GTO INTEGRALS CHOSEN --
------------------------------------------------------------------------------
------------------------------------------------------------------------------
                   ___                                                        
                  /   \      - P O W E R E D   B Y -                         
                 /     \                                                     
                 |  |  |   _    _      __       _____    __    __             
                 |  |  |  | |  | |    /  \     |  _  \  |  |  /  |          
                  \  \/   | |  | |   /    \    | | | |  |  | /  /          
                 / \  \   | |__| |  /  /\  \   | |_| |  |  |/  /          
                |  |  |   |  __  | /  /__\  \  |    /   |      \           
                |  |  |   | |  | | |   __   |  |    \   |  |\   \          
                \     /   | |  | | |  |  |  |  | |\  \  |  | \   \       
                 \___/    |_|  |_| |__|  |__|  |_| \__\ |__|  \__/        
                                                                              
                      - O R C A' S   B I G   F R I E N D -                    
                                      &                                       
                       - I N T E G R A L  F E E D E R -                       
                                                                              
 v1 FN, 2020, v2 2021                                                         
------------------------------------------------------------------------------


Reading SHARK input file pbeh-3c.SHARKINP.tmp ... ok
----------------------
SHARK INTEGRAL PACKAGE
----------------------

Number of atoms                             ...     10
Number of basis functions                   ...     85
Number of shells                            ...     45
Maximum angular momentum                    ...      2
Integral batch strategy                     ... SHARK/LIBINT Hybrid
RI-J (if used) integral strategy            ... SPLIT-RIJ (Revised 2003 algorithm where possible)
Printlevel                                  ...      1
Contraction scheme used                     ... SEGMENTED contraction
Coulomb Range Separation                    ... NOT USED
Exchange Range Separation                   ... NOT USED
Finite Nucleus Model                        ... NOT USED
Auxiliary Coulomb fitting basis             ... AVAILABLE
   # of basis functions in Aux-J            ...    300
   # of shells in Aux-J                     ...    100
   Maximum angular momentum in Aux-J        ...      4
Auxiliary J/K fitting basis                 ... NOT available
Auxiliary Correlation fitting basis         ... NOT available
Auxiliary 'external' fitting basis          ... NOT available
Integral threshold                          ...     2.500000e-11
Primitive cut-off                           ...     2.500000e-12
Primitive pair pre-selection threshold      ...     2.500000e-12

Calculating pre-screening integrals         ... done (  0.1 sec) Dimension = 45
Organizing shell pair data                  ... done (  0.2 sec)
Shell pair information
Total number of shell pairs                 ...      1035
Shell pairs after pre-screening             ...      1001
Total number of primitive shell pairs       ...      3735
Primitive shell pairs kept                  ...      2778
          la=0 lb=0:    431 shell pairs
          la=1 lb=0:    300 shell pairs
          la=1 lb=1:     55 shell pairs
          la=2 lb=0:    150 shell pairs
          la=2 lb=1:     50 shell pairs
          la=2 lb=2:     15 shell pairs

Calculating one electron integrals          ... done (  0.0 sec)
Calculating RI/J V-Matrix + Cholesky decomp.... done (  0.4 sec)
Calculating Nuclear repulsion               ... done (  0.1 sec) ENN=    165.419731072273 Eh

SHARK setup successfully completed in   1.9 seconds

Maximum memory used throughout the entire GTOINT-calculation: 9.7 MB


           ************************************************************
           *        Program running with 4 parallel MPI-processes     *
           *              working on a common directory               *
           ************************************************************
-------------------------------------------------------------------------------
                                 ORCA SCF
-------------------------------------------------------------------------------

------------
SCF SETTINGS
------------
Hamiltonian:
 Density Functional     Method          .... DFT(GTOs)
 Exchange Functional    Exchange        .... PBE
   PBE kappa parameter   XKappa         ....  1.024500
   PBE mue parameter    XMuePBE         ....  0.123457
 Correlation Functional Correlation     .... PBE
   PBE beta parameter  CBetaPBE         ....  0.030000
 LDA part of GGA corr.  LDAOpt          .... PW91-LDA
 Gradients option       PostSCFGGA      .... off
 Hybrid DFT is turned on
   Fraction HF Exchange ScalHFX         ....  0.420000
   Scaling of DF-GGA-X  ScalDFX         ....  0.580000
   Scaling of DF-GGA-C  ScalDFC         ....  1.000000
   Scaling of DF-LDA-C  ScalLDAC        ....  1.000000
   Perturbative correction              ....  0.000000
   Density functional embedding theory  .... OFF
 RI-approximation to the Coulomb term is turned on
   Number of AuxJ basis functions       .... 300
   RIJ-ON(X) (HFX calculated with O(N)) .... on
   Number of AuxJ basis functions       .... 300
   RIJ-COSX (HFX calculated with COS-X)).... on


General Settings:
 Integral files         IntName         .... pbeh-3c
 Hartree-Fock type      HFTyp           .... RHF
 Total Charge           Charge          ....    0
 Multiplicity           Mult            ....    1
 Number of Electrons    NEL             ....   38
 Basis Dimension        Dim             ....   85
 Nuclear Repulsion      ENuc            ....    165.4197310723 Eh

Convergence Acceleration:
 DIIS                   CNVDIIS         .... on
   Start iteration      DIISMaxIt       ....    12
   Startup error        DIISStart       ....  0.200000
   # of expansion vecs  DIISMaxEq       ....     5
   Bias factor          DIISBfac        ....   1.050
   Max. coefficient     DIISMaxC        ....  10.000
 Trust-Rad. Augm. Hess. CNVTRAH         .... auto
   Auto Start mean grad. ratio tolernc. ....  1.125000
   Auto Start start iteration           ....    20
   Auto Start num. interpolation iter.  ....    10
   Max. Number of Micro iterations      ....    16
   Max. Number of Macro iterations      .... Maxiter - #DIIS iter
   Number of Davidson start vectors     ....     2
   Converg. threshold I  (grad. norm)   ....   1.000e-05
   Converg. threshold II (energy diff.) ....   1.000e-08
   Grad. Scal. Fac. for Micro threshold ....   0.100
   Minimum threshold for Micro iter.    ....   0.010
   NR start threshold (gradient norm)   ....   0.001
   Initial trust radius                 ....   0.400
   Minimum AH scaling param. (alpha)    ....   1.000
   Maximum AH scaling param. (alpha)    .... 1000.000
   Orbital update algorithm             .... Taylor
   White noise on init. David. guess    .... on
   Maximum white noise                  ....   0.010
   Quad. conv. algorithm                .... NR
   COSX micro iterations for RIJONX calc.... off
 SOSCF                  CNVSOSCF        .... on
   Start iteration      SOSCFMaxIt      ....   150
   Startup grad/error   SOSCFStart      ....  0.003300
 Level Shifting         CNVShift        .... on
   Level shift para.    LevelShift      ....    0.2500
   Turn off err/grad.   ShiftErr        ....    0.0010
 Zerner damping         CNVZerner       .... off
 Static damping         CNVDamp         .... on
   Fraction old density DampFac         ....    0.7000
   Max. Damping (<1)    DampMax         ....    0.9800
   Min. Damping (>=0)   DampMin         ....    0.0000
   Turn off err/grad.   DampErr         ....    0.1000
 Fernandez-Rico         CNVRico         .... off

SCF Procedure:
 Maximum # iterations   MaxIter         ....   125
 SCF integral mode      SCFMode         .... Direct
   Integral package                     .... SHARK and LIBINT hybrid scheme
 Reset frequency        DirectResetFreq ....    20
 Integral Threshold     Thresh          ....  2.500e-11 Eh
 Primitive CutOff       TCut            ....  2.500e-12 Eh

Convergence Tolerance:
 Convergence Check Mode ConvCheckMode   .... Total+1el-Energy
 Convergence forced     ConvForced      .... 0
 Energy Change          TolE            ....  1.000e-08 Eh
 1-El. energy change                    ....  1.000e-05 Eh
 Orbital Gradient       TolG            ....  1.000e-05
 Orbital Rotation angle TolX            ....  1.000e-05
 DIIS Error             TolErr          ....  5.000e-07


Diagonalization of the overlap matrix:
Smallest eigenvalue                        ... 6.088e-03
Time for diagonalization                   ...    0.001 sec
Threshold for overlap eigenvalues          ... 1.000e-08
Number of eigenvalues below threshold      ... 0
Time for construction of square roots      ...    0.225 sec
Total time needed                          ...    0.324 sec

--------------------------------
INITIAL GUESS: MINIMAL BASIS EHT
--------------------------------
The minimal basis has 30 functions
EHT matrix was diagonalized
Basis set overlap was calculated now projecting the orbitals
Using GuessMode=FMatrix for the initial guess
C*T matrix was formed
Effective Fockian was calculated
Effective Fockian was diagonalized
Initial density was built
                      ------------------
                      INITIAL GUESS DONE
                      ------------------
-------------------
DFT GRID GENERATION
-------------------

General Integration Accuracy     IntAcc      ... 4.959
Radial Grid Type                 RadialGrid  ... OptM3 with GC (2021)
Angular Grid (max. ang.)         AngularGrid ... 6 (Lebedev-590)
Angular grid pruning method      GridPruning ... 4 (adaptive)
Weight generation scheme         WeightScheme... Becke
Basis function cutoff            BFCut       ... 1.0000e-11
Integration weight cutoff        WCut        ... 1.0000e-14
Angular grids for H and He will be reduced by one unit
Partially contracted basis set               ... off
Rotationally invariant grid construction     ... off

Total number of grid points                  ...   116231
Total number of batches                      ...     1821
Average number of points per batch           ...       63
Average number of grid points per atom       ...    11623
Time for grid setup =    1.957 sec

--------------------
COSX GRID GENERATION
--------------------

GRIDX 1
-------
General Integration Accuracy     IntAcc      ... 4.020
Radial Grid Type                 RadialGrid  ... OptM3 with GC (2021)
Angular Grid (max. ang.)         AngularGrid ... 2 (Lebedev-110)
Angular grid pruning method      GridPruning ... 4 (adaptive)
Weight generation scheme         WeightScheme... Becke
Basis function cutoff            BFCut       ... 1.0000e-11
Integration weight cutoff        WCut        ... 1.0000e-14
Angular grids for H and He will be reduced by one unit
Partially contracted basis set               ... on
Rotationally invariant grid construction     ... off

Total number of grid points                  ...    13061
Total number of batches                      ...      206
Average number of points per batch           ...       63
Average number of grid points per atom       ...     1306
UseSFitting                                  ... on

GRIDX 2
-------
General Integration Accuracy     IntAcc      ... 4.338
Radial Grid Type                 RadialGrid  ... OptM3 with GC (2021)
Angular Grid (max. ang.)         AngularGrid ... 3 (Lebedev-194)
Angular grid pruning method      GridPruning ... 4 (adaptive)
Weight generation scheme         WeightScheme... Becke
Basis function cutoff            BFCut       ... 1.0000e-11
Integration weight cutoff        WCut        ... 1.0000e-14
Angular grids for H and He will be reduced by one unit
Partially contracted basis set               ... on
Rotationally invariant grid construction     ... off

Total number of grid points                  ...    28730
Total number of batches                      ...      454
Average number of points per batch           ...       63
Average number of grid points per atom       ...     2873
UseSFitting                                  ... on

GRIDX 3
-------
General Integration Accuracy     IntAcc      ... 4.871
Radial Grid Type                 RadialGrid  ... OptM3 with GC (2021)
Angular Grid (max. ang.)         AngularGrid ... 4 (Lebedev-302)
Angular grid pruning method      GridPruning ... 4 (adaptive)
Weight generation scheme         WeightScheme... Becke
Basis function cutoff            BFCut       ... 1.0000e-11
Integration weight cutoff        WCut        ... 1.0000e-14
Angular grids for H and He will be reduced by one unit
Partially contracted basis set               ... on
Rotationally invariant grid construction     ... off

Total number of grid points                  ...    55067
Total number of batches                      ...      865
Average number of points per batch           ...       63
Average number of grid points per atom       ...     5507
UseSFitting                                  ... on

Time for X-Grid setup             =    3.409 sec

--------------
SCF ITERATIONS
--------------
ITER       Energy         Delta-E        Max-DP      RMS-DP      [F,P]     Damp
               ***  Starting incremental Fock matrix formation  ***
  0   -242.0466079941   0.000000000000 0.13107434  0.00587816  0.4322298 0.7000
  1   -242.3076785827  -0.261070588596 0.07805322  0.00378183  0.3063137 0.7000
  2   -242.4539506597  -0.146272077016 0.05081558  0.00242534  0.2148939 0.7000
                               ***Turning on DIIS***
  3   -242.5551350490  -0.101184389324 0.03870881  0.00172016  0.1500678 0.7000
  4   -242.6278058198  -0.072670770760 0.02927711  0.00130522  0.1046353 0.7000
  5   -242.6793278612  -0.051522041431 0.06606412  0.00326696  0.0732986 0.0000
  6   -242.8026973131  -0.123369451839 0.00852386  0.00027824  0.0038645 0.0000
                      *** Initiating the SOSCF procedure ***
                           *** Shutting down DIIS ***
                      *** Re-Reading the Fockian *** 
                      *** Removing any level shift *** 
ITER      Energy       Delta-E        Grad      Rot      Max-DP    RMS-DP
  7   -242.80287581  -0.0001784986  0.001832  0.001832  0.003967  0.000142
               *** Restarting incremental Fock matrix formation ***
  8   -242.80291339  -0.0000375812  0.001314  0.003745  0.003461  0.000144
  9   -242.80293044  -0.0000170465  0.001607  0.004279  0.004486  0.000150
 10   -242.80294247  -0.0000120336  0.000603  0.001400  0.002351  0.000066
 11   -242.80294555  -0.0000030775  0.000286  0.000459  0.000777  0.000031
 12   -242.80294616  -0.0000006057  0.000155  0.000401  0.000592  0.000018
 13   -242.80294649  -0.0000003348  0.000045  0.000061  0.000111  0.000004
 14   -242.80294649   0.0000000009  0.000040  0.000052  0.000061  0.000003
 15   -242.80294651  -0.0000000234  0.000003  0.000007  0.000006  0.000000
                  ***Gradient check signals convergence***
              ***Rediagonalizing the Fockian in SOSCF/NRSCF***

               *****************************************************
               *                     SUCCESS                       *
               *           SCF CONVERGED AFTER  16 CYCLES          *
               *****************************************************

Old exchange energy                            =    -13.314464376 Eh
New exchange energy                            =    -13.314463036 Eh
Exchange energy change after final integration =      0.000001340 Eh
Total energy after final integration           =   -242.802945174 Eh
Final COS-X integration done in                =     2.024 sec

----------------
TOTAL SCF ENERGY
----------------

Total Energy       :         -242.80294517 Eh           -6607.00403 eV

Components:
Nuclear Repulsion  :          165.41973107 Eh            4501.29972 eV
Electronic Energy  :         -408.22267625 Eh          -11108.30376 eV
One Electron Energy:         -655.79852884 Eh          -17845.18520 eV
Two Electron Energy:          247.57585259 Eh            6736.88145 eV
Max COSX asymmetry :            0.00000123 Eh               0.00003 eV

Virial components:
Potential Energy   :         -483.73768189 Eh          -13163.17153 eV
Kinetic Energy     :          240.93473671 Eh            6556.16750 eV
Virial Ratio       :            2.00775400


DFT components:
N(Alpha)           :       19.000001235153 electrons
N(Beta)            :       19.000001235153 electrons
N(Total)           :       38.000002470306 electrons
E(X)               :      -17.759821784134 Eh       
E(C)               :       -1.650748328074 Eh       
E(XC)              :      -19.410570112208 Eh       
DFET-embed. en.    :        0.000000000000 Eh       

---------------
SCF CONVERGENCE
---------------

  Last Energy change         ...    2.2459e-10  Tolerance :   1.0000e-08
  Last MAX-Density change    ...    1.4433e-15  Tolerance :   1.0000e-07
  Last RMS-Density change    ...    4.8109e-17  Tolerance :   5.0000e-09
  Last Orbital Gradient      ...    8.3721e-07  Tolerance :   1.0000e-05
  Last Orbital Rotation      ...    1.4687e-06  Tolerance :   1.0000e-05

             **** THE GBW FILE WAS UPDATED (pbeh-3c.gbw) ****
             **** DENSITY pbeh-3c.scfp WAS UPDATED ****
             **** ENERGY FILE WAS UPDATED (pbeh-3c.en.tmp) ****
             **** THE GBW FILE WAS UPDATED (pbeh-3c.gbw) ****
             **** DENSITY pbeh-3c.scfp WAS UPDATED ****
----------------
ORBITAL ENERGIES
----------------

  NO   OCC          E(Eh)            E(eV) 
   0   2.0000     -14.766310      -401.8117 
   1   2.0000     -14.703921      -400.1140 
   2   2.0000     -14.682022      -399.5181 
   3   2.0000     -10.465553      -284.7822 
   4   2.0000     -10.445298      -284.2310 
   5   2.0000      -1.219292       -33.1786 
   6   2.0000      -1.014290       -27.6002 
   7   2.0000      -0.852471       -23.1969 
   8   2.0000      -0.674456       -18.3529 
   9   2.0000      -0.666108       -18.1257 
  10   2.0000      -0.574504       -15.6330 
  11   2.0000      -0.546303       -14.8657 
  12   2.0000      -0.514877       -14.0105 
  13   2.0000      -0.495425       -13.4812 
  14   2.0000      -0.469943       -12.7878 
  15   2.0000      -0.417862       -11.3706 
  16   2.0000      -0.367886       -10.0107 
  17   2.0000      -0.304888        -8.2964 
  18   2.0000      -0.286368        -7.7925 
  19   0.0000      -0.015417        -0.4195 
  20   0.0000       0.045592         1.2406 
  21   0.0000       0.080865         2.2004 
  22   0.0000       0.150112         4.0848 
  23   0.0000       0.172241         4.6869 
  24   0.0000       0.192357         5.2343 
  25   0.0000       0.208075         5.6620 
  26   0.0000       0.306630         8.3438 
  27   0.0000       0.310001         8.4355 
  28   0.0000       0.348229         9.4758 
  29   0.0000       0.466996        12.7076 
  30   0.0000       0.519446        14.1348 
  31   0.0000       0.532146        14.4804 
  32   0.0000       0.545250        14.8370 
  33   0.0000       0.614048        16.7091 
  34   0.0000       0.675749        18.3881 
  35   0.0000       0.749599        20.3976 
  36   0.0000       0.755940        20.5702 
  37   0.0000       0.766512        20.8579 
  38   0.0000       0.781877        21.2760 
  39   0.0000       0.790522        21.5112 
  40   0.0000       0.800668        21.7873 
  41   0.0000       0.884186        24.0599 
  42   0.0000       0.906272        24.6609 
  43   0.0000       0.914560        24.8865 
  44   0.0000       0.969668        26.3860 
  45   0.0000       0.979284        26.6477 
  46   0.0000       1.018296        27.7092 
  47   0.0000       1.046277        28.4707 
  48   0.0000       1.080933        29.4137 
  49   0.0000       1.118030        30.4231 
  50   0.0000       1.192947        32.4617 
  51   0.0000       1.230769        33.4909 
  52   0.0000       1.309172        35.6244 
  53   0.0000       1.472898        40.0796 
  54   0.0000       1.479990        40.2726 
  55   0.0000       1.539053        41.8797 
  56   0.0000       1.569865        42.7182 
  57   0.0000       1.616972        44.0000 
  58   0.0000       1.633744        44.4564 
  59   0.0000       1.679960        45.7140 
  60   0.0000       1.860332        50.6222 
  61   0.0000       1.905678        51.8561 
  62   0.0000       1.909574        51.9621 
  63   0.0000       1.956697        53.2444 
  64   0.0000       2.000417        54.4341 
  65   0.0000       2.077941        56.5437 
  66   0.0000       2.085877        56.7596 
  67   0.0000       2.122829        57.7651 
  68   0.0000       2.196689        59.7749 
  69   0.0000       2.330889        63.4267 
  70   0.0000       2.398035        65.2539 
  71   0.0000       2.451563        66.7104 
  72   0.0000       2.514918        68.4344 
  73   0.0000       2.584190        70.3194 
  74   0.0000       2.679192        72.9045 
  75   0.0000       2.702293        73.5331 
  76   0.0000       2.727265        74.2127 
  77   0.0000       2.789176        75.8973 
  78   0.0000       2.904847        79.0449 
  79   0.0000       3.175682        86.4147 
  80   0.0000      13.559054       368.9606 
  81   0.0000      14.116980       384.1426 
  82   0.0000      18.577938       505.5314 
  83   0.0000      19.157648       521.3061 
  84   0.0000      19.564199       532.3689 

                    ********************************
                    * MULLIKEN POPULATION ANALYSIS *
                    ********************************

-----------------------
MULLIKEN ATOMIC CHARGES
-----------------------
   0 C :   -0.499329
   1 C :   -0.400598
   2 N :   -0.456983
   3 N :    0.168923
   4 N :   -0.127809
   5 H :    0.240005
   6 H :    0.243519
   7 H :    0.231192
   8 H :    0.246889
   9 H :    0.354192
Sum of atomic charges:   -0.0000000

--------------------------------
MULLIKEN REDUCED ORBITAL CHARGES
--------------------------------
  0 C s       :     3.349347  s :     3.349347
      pz      :     1.139778  p :     3.116729
      px      :     1.019387
      py      :     0.957564
      dz2     :     0.007769  d :     0.033253
      dxz     :     0.001325
      dyz     :     0.013414
      dx2y2   :     0.005723
      dxy     :     0.005021
  1 C s       :     3.345740  s :     3.345740
      pz      :     1.128695  p :     3.018957
      px      :     0.898844
      py      :     0.991418
      dz2     :     0.007813  d :     0.035901
      dxz     :     0.001440
      dyz     :     0.014155
      dx2y2   :     0.006166
      dxy     :     0.006328
  2 N s       :     3.648546  s :     3.648546
      pz      :     1.557089  p :     3.758873
      px      :     1.234150
      py      :     0.967634
      dz2     :     0.004663  d :     0.049564
      dxz     :     0.006250
      dyz     :     0.011119
      dx2y2   :     0.010788
      dxy     :     0.016744
  3 N s       :     3.391660  s :     3.391660
      pz      :     1.100645  p :     3.345974
      px      :     1.317248
      py      :     0.928081
      dz2     :     0.005427  d :     0.093443
      dxz     :     0.004177
      dyz     :     0.035195
      dx2y2   :     0.016840
      dxy     :     0.031804
  4 N s       :     3.752495  s :     3.752495
      pz      :     1.134837  p :     3.317231
      px      :     0.945216
      py      :     1.237179
      dz2     :     0.005690  d :     0.058083
      dxz     :     0.002670
      dyz     :     0.015533
      dx2y2   :     0.017831
      dxy     :     0.016359
  5 H s       :     0.759995  s :     0.759995
  6 H s       :     0.756481  s :     0.756481
  7 H s       :     0.768808  s :     0.768808
  8 H s       :     0.753111  s :     0.753111
  9 H s       :     0.645808  s :     0.645808


                     *******************************
                     * LOEWDIN POPULATION ANALYSIS *
                     *******************************

----------------------
LOEWDIN ATOMIC CHARGES
----------------------
   0 C :   -0.298926
   1 C :   -0.220024
   2 N :   -0.296537
   3 N :    0.099339
   4 N :   -0.076230
   5 H :    0.137369
   6 H :    0.139503
   7 H :    0.133272
   8 H :    0.140192
   9 H :    0.242043

-------------------------------
LOEWDIN REDUCED ORBITAL CHARGES
-------------------------------
  0 C s       :     2.979723  s :     2.979723
      pz      :     1.120370  p :     3.252546
      px      :     1.029667
      py      :     1.102510
      dz2     :     0.014476  d :     0.066657
      dxz     :     0.002002
      dyz     :     0.027390
      dx2y2   :     0.013784
      dxy     :     0.009005
  1 C s       :     2.983205  s :     2.983205
      pz      :     1.121549  p :     3.165215
      px      :     0.923594
      py      :     1.120072
      dz2     :     0.014367  d :     0.071605
      dxz     :     0.002229
      dyz     :     0.028481
      dx2y2   :     0.014646
      dxy     :     0.011882
  2 N s       :     3.309376  s :     3.309376
      pz      :     1.536557  p :     3.888285
      px      :     1.254989
      py      :     1.096738
      dz2     :     0.010017  d :     0.098876
      dxz     :     0.007333
      dyz     :     0.020022
      dx2y2   :     0.026114
      dxy     :     0.035389
  3 N s       :     3.093217  s :     3.093217
      pz      :     1.067063  p :     3.595247
      px      :     1.352139
      py      :     1.176044
      dz2     :     0.013162  d :     0.212198
      dxz     :     0.004821
      dyz     :     0.076588
      dx2y2   :     0.037412
      dxy     :     0.080215
  4 N s       :     3.446013  s :     3.446013
      pz      :     1.135404  p :     3.519777
      px      :     1.008134
      py      :     1.376239
      dz2     :     0.011986  d :     0.110441
      dxz     :     0.004128
      dyz     :     0.022596
      dx2y2   :     0.037323
      dxy     :     0.034408
  5 H s       :     0.862631  s :     0.862631
  6 H s       :     0.860497  s :     0.860497
  7 H s       :     0.866728  s :     0.866728
  8 H s       :     0.859808  s :     0.859808
  9 H s       :     0.757957  s :     0.757957


                      *****************************
                      * MAYER POPULATION ANALYSIS *
                      *****************************

  NA   - Mulliken gross atomic population
  ZA   - Total nuclear charge
  QA   - Mulliken gross atomic charge
  VA   - Mayer's total valence
  BVA  - Mayer's bonded valence
  FA   - Mayer's free valence

  ATOM       NA         ZA         QA         VA         BVA        FA
  0 C      6.4993     6.0000    -0.4993     3.7705     3.7705    -0.0000
  1 C      6.4006     6.0000    -0.4006     3.7514     3.7514    -0.0000
  2 N      7.4570     7.0000    -0.4570     2.8709     2.8709     0.0000
  3 N      6.8311     7.0000     0.1689     3.6229     3.6229     0.0000
  4 N      7.1278     7.0000    -0.1278     2.9319     2.9319    -0.0000
  5 H      0.7600     1.0000     0.2400     0.9103     0.9103    -0.0000
  6 H      0.7565     1.0000     0.2435     0.9096     0.9096     0.0000
  7 H      0.7688     1.0000     0.2312     0.9119     0.9119    -0.0000
  8 H      0.7531     1.0000     0.2469     0.9074     0.9074     0.0000
  9 H      0.6458     1.0000     0.3542     0.8462     0.8462     0.0000

  Mayer bond orders larger than 0.100000
B(  0-C ,  1-C ) :   1.5070 B(  0-C ,  4-N ) :   0.4084 B(  0-C ,  5-H ) :   0.9184 
B(  0-C ,  6-H ) :   0.9168 B(  1-C ,  2-N ) :   0.3525 B(  1-C ,  7-H ) :   0.9204 
B(  1-C ,  8-H ) :   0.9159 B(  2-N ,  3-N ) :   1.3819 B(  2-N ,  4-N ) :   0.3250 
B(  2-N ,  9-H ) :   0.8070 B(  3-N ,  4-N ) :   2.1446 

-------
TIMINGS
-------

Total SCF time: 0 days 0 hours 1 min 33 sec 

Total time                  ....      93.327 sec
Sum of individual times     ....      83.457 sec  ( 89.4%)

Fock matrix formation       ....      72.049 sec  ( 77.2%)
  Split-RI-J                ....      10.698 sec  ( 14.8% of F)
  Chain of spheres X        ....      17.763 sec  ( 24.7% of F)
  XC integration            ....      21.716 sec  ( 30.1% of F)
    Basis function eval.    ....       2.001 sec  (  9.2% of XC)
    Density eval.           ....       1.509 sec  (  6.9% of XC)
    XC-Functional eval.     ....       1.206 sec  (  5.6% of XC)
    XC-Potential eval.      ....       0.645 sec  (  3.0% of XC)
Diagonalization             ....       1.016 sec  (  1.1%)
Density matrix formation    ....       0.067 sec  (  0.1%)
Population analysis         ....       0.950 sec  (  1.0%)
Initial guess               ....       0.009 sec  (  0.0%)
Orbital Transformation      ....       0.000 sec  (  0.0%)
Orbital Orthonormalization  ....       0.000 sec  (  0.0%)
DIIS solution               ....       1.979 sec  (  2.1%)
SOSCF solution              ....       2.020 sec  (  2.2%)
Grid generation             ....       5.366 sec  (  5.7%)

Maximum memory used throughout the entire SCF-calculation: 48.8 MB


-------------------------------------------------------------------------------
                          DFT DISPERSION CORRECTION                            
                                                                               
                              DFTD3 V3.1  Rev 1                                
                          USING Becke-Johnson damping                          
-------------------------------------------------------------------------------
The PBEh-3c composite method is recognized
Using three-body term ABC
Active option DFTDOPT                   ...         4   

molecular C6(AA) [au] = 1033.861643 


            DFT-D V3
 parameters
 s6 scaling factor         :     1.0000 
 a1 scaling factor         :     0.4860 
 s8 scaling factor         :     0.0000 
 a2 scaling factor         :     4.5000 
 Damping factor alpha9(ATM):    16.0000 
 ad hoc parameters k1-k3   :    16.0000     1.3333    -4.0000 

 Edisp/kcal,au: -2.709002992490  -0.004317070603 
 E6   /kcal   :  -2.714261684 
 E8   /kcal   :  -0.000000000 
 E6(ABC)      :   0.005258691 
 % E8         :   0.000000000 
 % E6(ABC)    :  -0.194119058 

-------------------------   ----------------
Dispersion correction           -0.004317071
-------------------------   ----------------

------------------   -----------------
gCP correction             0.014912527
------------------   -----------------

-------------------------   --------------------
FINAL SINGLE POINT ENERGY      -242.792349717789
-------------------------   --------------------


                            ***************************************
                            *     ORCA property calculations      *
                            ***************************************

                                    ---------------------
                                    Active property flags
                                    ---------------------
   (+) Dipole Moment


------------------------------------------------------------------------------
                       ORCA ELECTRIC PROPERTIES CALCULATION
------------------------------------------------------------------------------

Dipole Moment Calculation                       ... on
Quadrupole Moment Calculation                   ... off
Polarizability Calculation                      ... off
GBWName                                         ... pbeh-3c.gbw
Electron density                                ... pbeh-3c.scfp
The origin for moment calculation is the CENTER OF MASS  = (-0.914026,  0.320268 -0.086462)

-------------
DIPOLE MOMENT
-------------
                                X             Y             Z
Electronic contribution:     -4.40377       0.97435      -0.08122
Nuclear contribution   :      4.48866      -1.70964       0.45997
                        -----------------------------------------
Total Dipole Moment    :      0.08489      -0.73529       0.37875
                        -----------------------------------------
Magnitude (a.u.)       :      0.83145
Magnitude (Debye)      :      2.11338



--------------------
Rotational spectrum 
--------------------
 
Rotational constants in cm-1:     0.278579     0.182251     0.115787 
Rotational constants in MHz :  8351.581186  5463.760436  3471.220842 

 Dipole components along the rotational axes: 
x,y,z [a.u.] :     0.084890    -0.735288     0.378753 
x,y,z [Debye]:     0.215772    -1.868954     0.962712 

 

Timings for individual modules:

Sum of individual times         ...       97.172 sec (=   1.620 min)
GTO integral calculation        ...        2.804 sec (=   0.047 min)   2.9 %
SCF iterations                  ...       94.368 sec (=   1.573 min)  97.1 %
                             ****ORCA TERMINATED NORMALLY****
TOTAL RUN TIME: 0 days 0 hours 1 minutes 44 seconds 869 msec
