
                                 *****************
                                 * O   R   C   A *
                                 *****************

                                            #,                                       
                                            ###                                      
                                            ####                                     
                                            #####                                    
                                            ######                                   
                                           ########,                                 
                                     ,,################,,,,,                         
                               ,,#################################,,                 
                          ,,##########################################,,             
                       ,#########################################, ''#####,          
                    ,#############################################,,   '####,        
                  ,##################################################,,,,####,       
                ,###########''''           ''''###############################       
              ,#####''   ,,,,##########,,,,          '''####'''          '####       
            ,##' ,,,,###########################,,,                        '##       
           ' ,,###''''                  '''############,,,                           
         ,,##''                                '''############,,,,        ,,,,,,###''
      ,#''                                            '''#######################'''  
     '                                                          ''''####''''         
             ,#######,   #######,   ,#######,      ##                                
            ,#'     '#,  ##    ##  ,#'     '#,    #''#        ######   ,####,        
            ##       ##  ##   ,#'  ##            #'  '#       #        #'  '#        
            ##       ##  #######   ##           ,######,      #####,   #    #        
            '#,     ,#'  ##    ##  '#,     ,#' ,#      #,         ##   #,  ,#        
             '#######'   ##     ##  '#######'  #'      '#     #####' # '####'        



                  #######################################################
                  #                        -***-                        #
                  #          Department of theory and spectroscopy      #
                  #    Directorship and core code : Frank Neese         #
                  #        Max Planck Institute fuer Kohlenforschung    #
                  #                Kaiser Wilhelm Platz 1               #
                  #                 D-45470 Muelheim/Ruhr               #
                  #                      Germany                        #
                  #                                                     #
                  #                  All rights reserved                #
                  #                        -***-                        #
                  #######################################################


                         Program Version 5.0.3 -  RELEASE  -


 With contributions from (in alphabetic order):
   Daniel Aravena         : Magnetic Suceptibility
   Michael Atanasov       : Ab Initio Ligand Field Theory (pilot matlab implementation)
   Alexander A. Auer      : GIAO ZORA, VPT2 properties, NMR spectrum
   Ute Becker             : Parallelization
   Giovanni Bistoni       : ED, misc. LED, open-shell LED, HFLD
   Martin Brehm           : Molecular dynamics
   Dmytro Bykov           : SCF Hessian
   Vijay G. Chilkuri      : MRCI spin determinant printing, contributions to CSF-ICE
   Dipayan Datta          : RHF DLPNO-CCSD density
   Achintya Kumar Dutta   : EOM-CC, STEOM-CC
   Dmitry Ganyushin       : Spin-Orbit,Spin-Spin,Magnetic field MRCI
   Miquel Garcia          : C-PCM and meta-GGA Hessian, CC/C-PCM, Gaussian charge scheme
   Yang Guo               : DLPNO-NEVPT2, F12-NEVPT2, CIM, IAO-localization
   Andreas Hansen         : Spin unrestricted coupled pair/coupled cluster methods
   Benjamin Helmich-Paris : MC-RPA, TRAH-SCF, COSX integrals
   Lee Huntington         : MR-EOM, pCC
   Robert Izsak           : Overlap fitted RIJCOSX, COSX-SCS-MP3, EOM
   Marcus Kettner         : VPT2
   Christian Kollmar      : KDIIS, OOCD, Brueckner-CCSD(T), CCSD density, CASPT2, CASPT2-K
   Simone Kossmann        : Meta GGA functionals, TD-DFT gradient, OOMP2, MP2 Hessian
   Martin Krupicka        : Initial AUTO-CI
   Lucas Lang             : DCDCAS
   Marvin Lechner         : AUTO-CI (C++ implementation), FIC-MRCC
   Dagmar Lenk            : GEPOL surface, SMD
   Dimitrios Liakos       : Extrapolation schemes; Compound Job, initial MDCI parallelization
   Dimitrios Manganas     : Further ROCIS development; embedding schemes
   Dimitrios Pantazis     : SARC Basis sets
   Anastasios Papadopoulos: AUTO-CI, single reference methods and gradients
   Taras Petrenko         : DFT Hessian,TD-DFT gradient, ASA, ECA, R-Raman, ABS, FL, XAS/XES, NRVS
   Peter Pinski           : DLPNO-MP2, DLPNO-MP2 Gradient
   Christoph Reimann      : Effective Core Potentials
   Marius Retegan         : Local ZFS, SOC
   Christoph Riplinger    : Optimizer, TS searches, QM/MM, DLPNO-CCSD(T), (RO)-DLPNO pert. Triples
   Tobias Risthaus        : Range-separated hybrids, TD-DFT gradient, RPA, STAB
   Michael Roemelt        : Original ROCIS implementation
   Masaaki Saitow         : Open-shell DLPNO-CCSD energy and density
   Barbara Sandhoefer     : DKH picture change effects
   Avijit Sen             : IP-ROCIS
   Kantharuban Sivalingam : CASSCF convergence, NEVPT2, FIC-MRCI
   Bernardo de Souza      : ESD, SOC TD-DFT
   Georgi Stoychev        : AutoAux, RI-MP2 NMR, DLPNO-MP2 response
   Willem Van den Heuvel  : Paramagnetic NMR
   Boris Wezisla          : Elementary symmetry handling
   Frank Wennmohs         : Technical directorship


 We gratefully acknowledge several colleagues who have allowed us to
 interface, adapt or use parts of their codes:
   Stefan Grimme, W. Hujo, H. Kruse, P. Pracht,  : VdW corrections, initial TS optimization,
                  C. Bannwarth, S. Ehlert          DFT functionals, gCP, sTDA/sTD-DF
   Ed Valeev, F. Pavosevic, A. Kumar             : LibInt (2-el integral package), F12 methods
   Garnet Chan, S. Sharma, J. Yang, R. Olivares  : DMRG
   Ulf Ekstrom                                   : XCFun DFT Library
   Mihaly Kallay                                 : mrcc  (arbitrary order and MRCC methods)
   Jiri Pittner, Ondrej Demel                    : Mk-CCSD
   Frank Weinhold                                : gennbo (NPA and NBO analysis)
   Christopher J. Cramer and Donald G. Truhlar   : smd solvation model
   Lars Goerigk                                  : TD-DFT with DH, B97 family of functionals
   V. Asgeirsson, H. Jonsson                     : NEB implementation
   FAccTs GmbH                                   : IRC, NEB, NEB-TS, DLPNO-Multilevel, CI-OPT
                                                   MM, QMMM, 2- and 3-layer-ONIOM, Crystal-QMMM,
                                                   LR-CPCM, SF, NACMEs, symmetry and pop. for TD-DFT,
                                                   nearIR, NL-DFT gradient (VV10), updates on ESD,
                                                   ML-optimized integration grids
   S Lehtola, MJT Oliveira, MAL Marques          : LibXC Library
   Liviu Ungur et al                             : ANISO software


 Your calculation uses the libint2 library for the computation of 2-el integrals
 For citations please refer to: http://libint.valeyev.net

 Your ORCA version has been built with support for libXC version: 5.1.0
 For citations please refer to: https://tddft.org/programs/libxc/

 This ORCA versions uses:
   CBLAS   interface :  Fast vector & matrix operations
   LAPACKE interface :  Fast linear algebra routines
   SCALAPACK package :  Parallel linear algebra routines
   Shared memory     :  Shared parallel matrices
   BLAS/LAPACK       :  OpenBLAS 0.3.15  USE64BITINT DYNAMIC_ARCH NO_AFFINITY Haswell SINGLE_THREADED
        Core in use  :  Haswell
   Copyright (c) 2011-2014, The OpenBLAS Project




***************************************
The coordinates will be read from file: c1.xyz
***************************************


Your calculation utilizes the geometrical counterpoise correction gCP
Please cite in your paper:
H.Kruse, S. Grimme J.Chem.Phys., 136, (2012), 154101 
   

Your calculation utilizes the atom-pairwise dispersion correction
with the Becke-Johnson damping scheme (D3BJ)
Cite in your paper:
S.Grimme, S.Ehrlich, L.Goerigk, J Comput Chem, (2011), 32, 1456–1465 
S.Grimme, J.Antony, S.Ehrlich and H.Krieg, J.Chem.Phys., 132, (2010), 154104 
   

Your calculation employs the composite approach PBEh-3c.
Please cite in your paper:
S. Grimme, J. G. Brandenburg, C. Bannwarth, A. Hansen J.Chem.Phys., 143, (2015), 054107 
   

================================================================================

----- Orbital basis set information -----
Your calculation utilizes the basis: def2-mSVP

----- AuxJ basis set information -----
Your calculation utilizes the auxiliary basis: def2/J
   F. Weigend, Phys. Chem. Chem. Phys. 8, 1057 (2006).

================================================================================
                                        WARNINGS
                       Please study these warnings very carefully!
================================================================================


INFO   : the flag for use of the SHARK integral package has been found!

================================================================================
                                       INPUT FILE
================================================================================
NAME = pbeh-3c.inp
|  1> ! PBEh-3c def2/J TightSCF DefGrid3
|  2> 
|  3> %maxcore 60000
|  4> 
|  5> %pal
|  6> nprocs 4
|  7> end
|  8> 
|  9> *xyzfile 0 1 c1.xyz
| 10> 
| 11>                          ****END OF INPUT****
================================================================================

                       ****************************
                       * Single Point Calculation *
                       ****************************

---------------------------------
CARTESIAN COORDINATES (ANGSTROEM)
---------------------------------
  C      0.885293    0.885293   -0.885293
  C     -0.885293   -0.885293   -0.885293
  C     -0.885293    0.885293    0.885293
  C      0.885293   -0.885293    0.885293
  C      1.766499    0.000000    0.000000
  C      0.000000   -1.766499    0.000000
  C      0.000000    0.000000    1.766499
  C      0.000000    0.000000   -1.766499
  C     -1.766499    0.000000    0.000000
  C      0.000000    1.766499    0.000000
  H      2.414458    0.622948    0.622948
  H      0.622948   -2.414458   -0.622948
  H     -0.622948   -0.622948    2.414458
  H     -0.622948    0.622948   -2.414458
  H     -2.414458    0.622948   -0.622948
  H     -0.622948    2.414458   -0.622948
  H     -0.622948   -2.414458    0.622948
  H      0.622948    0.622948    2.414458
  H      2.414458   -0.622948   -0.622948
  H     -2.414458   -0.622948    0.622948
  H      0.622948    2.414458    0.622948
  H      0.622948   -0.622948   -2.414458
  H      1.516029    1.516029   -1.516029
  H     -1.516029   -1.516029   -1.516029
  H     -1.516029    1.516029    1.516029
  H      1.516029   -1.516029    1.516029

----------------------------
CARTESIAN COORDINATES (A.U.)
----------------------------
  NO LB      ZA    FRAG     MASS         X           Y           Z
   0 C     6.0000    0    12.011    1.672961    1.672961   -1.672961
   1 C     6.0000    0    12.011   -1.672961   -1.672961   -1.672961
   2 C     6.0000    0    12.011   -1.672961    1.672961    1.672961
   3 C     6.0000    0    12.011    1.672961   -1.672961    1.672961
   4 C     6.0000    0    12.011    3.338200    0.000000    0.000000
   5 C     6.0000    0    12.011    0.000000   -3.338200    0.000000
   6 C     6.0000    0    12.011    0.000000    0.000000    3.338200
   7 C     6.0000    0    12.011    0.000000    0.000000   -3.338200
   8 C     6.0000    0    12.011   -3.338200    0.000000    0.000000
   9 C     6.0000    0    12.011    0.000000    3.338200    0.000000
  10 H     1.0000    0     1.008    4.562665    1.177200    1.177200
  11 H     1.0000    0     1.008    1.177200   -4.562665   -1.177200
  12 H     1.0000    0     1.008   -1.177200   -1.177200    4.562665
  13 H     1.0000    0     1.008   -1.177200    1.177200   -4.562665
  14 H     1.0000    0     1.008   -4.562665    1.177200   -1.177200
  15 H     1.0000    0     1.008   -1.177200    4.562665   -1.177200
  16 H     1.0000    0     1.008   -1.177200   -4.562665    1.177200
  17 H     1.0000    0     1.008    1.177200    1.177200    4.562665
  18 H     1.0000    0     1.008    4.562665   -1.177200   -1.177200
  19 H     1.0000    0     1.008   -4.562665   -1.177200    1.177200
  20 H     1.0000    0     1.008    1.177200    4.562665    1.177200
  21 H     1.0000    0     1.008    1.177200   -1.177200   -4.562665
  22 H     1.0000    0     1.008    2.864880    2.864880   -2.864880
  23 H     1.0000    0     1.008   -2.864880   -2.864880   -2.864880
  24 H     1.0000    0     1.008   -2.864880    2.864880    2.864880
  25 H     1.0000    0     1.008    2.864880   -2.864880    2.864880

--------------------------------
INTERNAL COORDINATES (ANGSTROEM)
--------------------------------
 C      0   0   0     0.000000000000     0.00000000     0.00000000
 C      1   0   0     2.503986451705     0.00000000     0.00000000
 C      1   2   0     2.503986451705    60.00000000     0.00000000
 C      1   2   3     2.503986451705    60.00000000    70.52877937
 C      1   2   3     1.531016633882    89.89186436    89.93756777
 C      2   1   3     1.531016633882    89.89186436   270.06243223
 C      3   1   2     1.531016633882    89.89186436    89.93756777
 C      1   2   3     1.531016633882    35.13952538   215.26438968
 C      2   1   3     1.531016633882    89.89186436    19.40878841
 C      1   2   3     1.531016633882    89.89186436   340.59121159
 H      5   1   2     1.093607923514   109.93921256   208.97492922
 H      6   2   1     1.093607923514   109.93921256   268.97504705
 H      7   3   1     1.093607923514   109.93921256   208.97492922
 H      8   1   2     1.093607923514   109.93921256   121.02501186
 H      9   2   1     1.093607923514   109.93921256    91.02495295
 H     10   1   2     1.093607923514   109.93921256   268.97504705
 H      6   2   1     1.093607923514   109.93921256   151.02507078
 H      7   3   1     1.093607923514   109.93921256    91.02495295
 H      5   1   2     1.093607923514   109.93921256    91.02495295
 H      9   2   1     1.093607923514   109.93921256   208.97492922
 H     10   1   2     1.093607923514   109.93921256   151.02507078
 H      8   1   2     1.093607923514   109.93921256   238.97498814
 H      1   2   3     1.092467144573   144.73561032   215.26438968
 H      2   1   3     1.092467144573   144.73561032   144.73561032
 H      3   1   2     1.092467144573   144.73561032   215.26438968
 H      4   1   2     1.092467144573   144.73561032   144.73561032

---------------------------
INTERNAL COORDINATES (A.U.)
---------------------------
 C      0   0   0     0.000000000000     0.00000000     0.00000000
 C      1   0   0     4.731848636772     0.00000000     0.00000000
 C      1   2   0     4.731848636772    60.00000000     0.00000000
 C      1   2   3     4.731848636772    60.00000000    70.52877937
 C      1   2   3     2.893202144515    89.89186436    89.93756777
 C      2   1   3     2.893202144515    89.89186436   270.06243223
 C      3   1   2     2.893202144515    89.89186436    89.93756777
 C      1   2   3     2.893202144515    35.13952538   215.26438968
 C      2   1   3     2.893202144515    89.89186436    19.40878841
 C      1   2   3     2.893202144515    89.89186436   340.59121159
 H      5   1   2     2.066619473328   109.93921256   208.97492922
 H      6   2   1     2.066619473328   109.93921256   268.97504705
 H      7   3   1     2.066619473328   109.93921256   208.97492922
 H      8   1   2     2.066619473328   109.93921256   121.02501186
 H      9   2   1     2.066619473328   109.93921256    91.02495295
 H     10   1   2     2.066619473328   109.93921256   268.97504705
 H      6   2   1     2.066619473328   109.93921256   151.02507078
 H      7   3   1     2.066619473328   109.93921256    91.02495295
 H      5   1   2     2.066619473328   109.93921256    91.02495295
 H      9   2   1     2.066619473328   109.93921256   208.97492922
 H     10   1   2     2.066619473328   109.93921256   151.02507078
 H      8   1   2     2.066619473328   109.93921256   238.97498814
 H      1   2   3     2.064463713550   144.73561032   215.26438968
 H      2   1   3     2.064463713550   144.73561032   144.73561032
 H      3   1   2     2.064463713550   144.73561032   215.26438968
 H      4   1   2     2.064463713550   144.73561032   144.73561032

---------------------
BASIS SET INFORMATION
---------------------
There are 2 groups of distinct atoms

 Group   1 Type C   : 8s4p1d contracted to 4s2p1d pattern {5111/31/1}
 Group   2 Type H   : 4s contracted to 2s pattern {31}

Atom   0C    basis set group =>   1
Atom   1C    basis set group =>   1
Atom   2C    basis set group =>   1
Atom   3C    basis set group =>   1
Atom   4C    basis set group =>   1
Atom   5C    basis set group =>   1
Atom   6C    basis set group =>   1
Atom   7C    basis set group =>   1
Atom   8C    basis set group =>   1
Atom   9C    basis set group =>   1
Atom  10H    basis set group =>   2
Atom  11H    basis set group =>   2
Atom  12H    basis set group =>   2
Atom  13H    basis set group =>   2
Atom  14H    basis set group =>   2
Atom  15H    basis set group =>   2
Atom  16H    basis set group =>   2
Atom  17H    basis set group =>   2
Atom  18H    basis set group =>   2
Atom  19H    basis set group =>   2
Atom  20H    basis set group =>   2
Atom  21H    basis set group =>   2
Atom  22H    basis set group =>   2
Atom  23H    basis set group =>   2
Atom  24H    basis set group =>   2
Atom  25H    basis set group =>   2
---------------------------------
AUXILIARY/J BASIS SET INFORMATION
---------------------------------
There are 2 groups of distinct atoms

 Group   1 Type C   : 12s5p4d2f1g contracted to 6s4p3d1f1g pattern {711111/2111/211/2/1}
 Group   2 Type H   : 5s2p1d contracted to 3s1p1d pattern {311/2/1}

Atom   0C    basis set group =>   1
Atom   1C    basis set group =>   1
Atom   2C    basis set group =>   1
Atom   3C    basis set group =>   1
Atom   4C    basis set group =>   1
Atom   5C    basis set group =>   1
Atom   6C    basis set group =>   1
Atom   7C    basis set group =>   1
Atom   8C    basis set group =>   1
Atom   9C    basis set group =>   1
Atom  10H    basis set group =>   2
Atom  11H    basis set group =>   2
Atom  12H    basis set group =>   2
Atom  13H    basis set group =>   2
Atom  14H    basis set group =>   2
Atom  15H    basis set group =>   2
Atom  16H    basis set group =>   2
Atom  17H    basis set group =>   2
Atom  18H    basis set group =>   2
Atom  19H    basis set group =>   2
Atom  20H    basis set group =>   2
Atom  21H    basis set group =>   2
Atom  22H    basis set group =>   2
Atom  23H    basis set group =>   2
Atom  24H    basis set group =>   2
Atom  25H    basis set group =>   2


           ************************************************************
           *        Program running with 4 parallel MPI-processes     *
           *              working on a common directory               *
           ************************************************************
------------------------------------------------------------------------------
                           ORCA GTO INTEGRAL CALCULATION
                           -- RI-GTO INTEGRALS CHOSEN --
------------------------------------------------------------------------------
------------------------------------------------------------------------------
                   ___                                                        
                  /   \      - P O W E R E D   B Y -                         
                 /     \                                                     
                 |  |  |   _    _      __       _____    __    __             
                 |  |  |  | |  | |    /  \     |  _  \  |  |  /  |          
                  \  \/   | |  | |   /    \    | | | |  |  | /  /          
                 / \  \   | |__| |  /  /\  \   | |_| |  |  |/  /          
                |  |  |   |  __  | /  /__\  \  |    /   |      \           
                |  |  |   | |  | | |   __   |  |    \   |  |\   \          
                \     /   | |  | | |  |  |  |  | |\  \  |  | \   \       
                 \___/    |_|  |_| |__|  |__|  |_| \__\ |__|  \__/        
                                                                              
                      - O R C A' S   B I G   F R I E N D -                    
                                      &                                       
                       - I N T E G R A L  F E E D E R -                       
                                                                              
 v1 FN, 2020, v2 2021                                                         
------------------------------------------------------------------------------


Reading SHARK input file pbeh-3c.SHARKINP.tmp ... ok
----------------------
SHARK INTEGRAL PACKAGE
----------------------

Number of atoms                             ...     26
Number of basis functions                   ...    182
Number of shells                            ...    102
Maximum angular momentum                    ...      2
Integral batch strategy                     ... SHARK/LIBINT Hybrid
RI-J (if used) integral strategy            ... SPLIT-RIJ (Revised 2003 algorithm where possible)
Printlevel                                  ...      1
Contraction scheme used                     ... SEGMENTED contraction
Coulomb Range Separation                    ... NOT USED
Exchange Range Separation                   ... NOT USED
Finite Nucleus Model                        ... NOT USED
Auxiliary Coulomb fitting basis             ... AVAILABLE
   # of basis functions in Aux-J            ...    666
   # of shells in Aux-J                     ...    230
   Maximum angular momentum in Aux-J        ...      4
Auxiliary J/K fitting basis                 ... NOT available
Auxiliary Correlation fitting basis         ... NOT available
Auxiliary 'external' fitting basis          ... NOT available
Integral threshold                          ...     2.500000e-11
Primitive cut-off                           ...     2.500000e-12
Primitive pair pre-selection threshold      ...     2.500000e-12

Calculating pre-screening integrals         ... done (  0.1 sec) Dimension = 102
Organizing shell pair data                  ... done (  0.6 sec)
Shell pair information
Total number of shell pairs                 ...      5253
Shell pairs after pre-screening             ...      4971
Total number of primitive shell pairs       ...     19093
Primitive shell pairs kept                  ...     12809
          la=0 lb=0:   2352 shell pairs
          la=1 lb=0:   1440 shell pairs
          la=1 lb=1:    210 shell pairs
          la=2 lb=0:    714 shell pairs
          la=2 lb=1:    200 shell pairs
          la=2 lb=2:     55 shell pairs

Calculating one electron integrals          ... done (  0.0 sec)
Calculating RI/J V-Matrix + Cholesky decomp.... done (  0.4 sec)
Calculating Nuclear repulsion               ... done (  0.0 sec) ENN=    599.738844398496 Eh

SHARK setup successfully completed in   2.2 seconds

Maximum memory used throughout the entire GTOINT-calculation: 13.5 MB


           ************************************************************
           *        Program running with 4 parallel MPI-processes     *
           *              working on a common directory               *
           ************************************************************
-------------------------------------------------------------------------------
                                 ORCA SCF
-------------------------------------------------------------------------------

------------
SCF SETTINGS
------------
Hamiltonian:
 Density Functional     Method          .... DFT(GTOs)
 Exchange Functional    Exchange        .... PBE
   PBE kappa parameter   XKappa         ....  1.024500
   PBE mue parameter    XMuePBE         ....  0.123457
 Correlation Functional Correlation     .... PBE
   PBE beta parameter  CBetaPBE         ....  0.030000
 LDA part of GGA corr.  LDAOpt          .... PW91-LDA
 Gradients option       PostSCFGGA      .... off
 Hybrid DFT is turned on
   Fraction HF Exchange ScalHFX         ....  0.420000
   Scaling of DF-GGA-X  ScalDFX         ....  0.580000
   Scaling of DF-GGA-C  ScalDFC         ....  1.000000
   Scaling of DF-LDA-C  ScalLDAC        ....  1.000000
   Perturbative correction              ....  0.000000
   Density functional embedding theory  .... OFF
 RI-approximation to the Coulomb term is turned on
   Number of AuxJ basis functions       .... 666
   RIJ-ON(X) (HFX calculated with O(N)) .... on
   Number of AuxJ basis functions       .... 666
   RIJ-COSX (HFX calculated with COS-X)).... on


General Settings:
 Integral files         IntName         .... pbeh-3c
 Hartree-Fock type      HFTyp           .... RHF
 Total Charge           Charge          ....    0
 Multiplicity           Mult            ....    1
 Number of Electrons    NEL             ....   76
 Basis Dimension        Dim             ....  182
 Nuclear Repulsion      ENuc            ....    599.7388443985 Eh

Convergence Acceleration:
 DIIS                   CNVDIIS         .... on
   Start iteration      DIISMaxIt       ....    12
   Startup error        DIISStart       ....  0.200000
   # of expansion vecs  DIISMaxEq       ....     5
   Bias factor          DIISBfac        ....   1.050
   Max. coefficient     DIISMaxC        ....  10.000
 Trust-Rad. Augm. Hess. CNVTRAH         .... auto
   Auto Start mean grad. ratio tolernc. ....  1.125000
   Auto Start start iteration           ....    20
   Auto Start num. interpolation iter.  ....    10
   Max. Number of Micro iterations      ....    16
   Max. Number of Macro iterations      .... Maxiter - #DIIS iter
   Number of Davidson start vectors     ....     2
   Converg. threshold I  (grad. norm)   ....   1.000e-05
   Converg. threshold II (energy diff.) ....   1.000e-08
   Grad. Scal. Fac. for Micro threshold ....   0.100
   Minimum threshold for Micro iter.    ....   0.010
   NR start threshold (gradient norm)   ....   0.001
   Initial trust radius                 ....   0.400
   Minimum AH scaling param. (alpha)    ....   1.000
   Maximum AH scaling param. (alpha)    .... 1000.000
   Orbital update algorithm             .... Taylor
   White noise on init. David. guess    .... on
   Maximum white noise                  ....   0.010
   Quad. conv. algorithm                .... NR
   COSX micro iterations for RIJONX calc.... off
 SOSCF                  CNVSOSCF        .... on
   Start iteration      SOSCFMaxIt      ....   150
   Startup grad/error   SOSCFStart      ....  0.003300
 Level Shifting         CNVShift        .... on
   Level shift para.    LevelShift      ....    0.2500
   Turn off err/grad.   ShiftErr        ....    0.0010
 Zerner damping         CNVZerner       .... off
 Static damping         CNVDamp         .... on
   Fraction old density DampFac         ....    0.7000
   Max. Damping (<1)    DampMax         ....    0.9800
   Min. Damping (>=0)   DampMin         ....    0.0000
   Turn off err/grad.   DampErr         ....    0.1000
 Fernandez-Rico         CNVRico         .... off

SCF Procedure:
 Maximum # iterations   MaxIter         ....   125
 SCF integral mode      SCFMode         .... Direct
   Integral package                     .... SHARK and LIBINT hybrid scheme
 Reset frequency        DirectResetFreq ....    20
 Integral Threshold     Thresh          ....  2.500e-11 Eh
 Primitive CutOff       TCut            ....  2.500e-12 Eh

Convergence Tolerance:
 Convergence Check Mode ConvCheckMode   .... Total+1el-Energy
 Convergence forced     ConvForced      .... 0
 Energy Change          TolE            ....  1.000e-08 Eh
 1-El. energy change                    ....  1.000e-05 Eh
 Orbital Gradient       TolG            ....  1.000e-05
 Orbital Rotation angle TolX            ....  1.000e-05
 DIIS Error             TolErr          ....  5.000e-07


Diagonalization of the overlap matrix:
Smallest eigenvalue                        ... 4.558e-03
Time for diagonalization                   ...    0.009 sec
Threshold for overlap eigenvalues          ... 1.000e-08
Number of eigenvalues below threshold      ... 0
Time for construction of square roots      ...    0.145 sec
Total time needed                          ...    0.154 sec

--------------------------------
INITIAL GUESS: MINIMAL BASIS EHT
--------------------------------
The minimal basis has 66 functions
EHT matrix was diagonalized
Basis set overlap was calculated now projecting the orbitals
Using GuessMode=FMatrix for the initial guess
C*T matrix was formed
Effective Fockian was calculated
Effective Fockian was diagonalized
Initial density was built
                      ------------------
                      INITIAL GUESS DONE
                      ------------------
-------------------
DFT GRID GENERATION
-------------------

General Integration Accuracy     IntAcc      ... 4.959
Radial Grid Type                 RadialGrid  ... OptM3 with GC (2021)
Angular Grid (max. ang.)         AngularGrid ... 6 (Lebedev-590)
Angular grid pruning method      GridPruning ... 4 (adaptive)
Weight generation scheme         WeightScheme... Becke
Basis function cutoff            BFCut       ... 1.0000e-11
Integration weight cutoff        WCut        ... 1.0000e-14
Angular grids for H and He will be reduced by one unit
Partially contracted basis set               ... off
Rotationally invariant grid construction     ... off

Total number of grid points                  ...   276192
Total number of batches                      ...     4330
Average number of points per batch           ...       63
Average number of grid points per atom       ...    10623
Time for grid setup =    4.689 sec

--------------------
COSX GRID GENERATION
--------------------

GRIDX 1
-------
General Integration Accuracy     IntAcc      ... 4.020
Radial Grid Type                 RadialGrid  ... OptM3 with GC (2021)
Angular Grid (max. ang.)         AngularGrid ... 2 (Lebedev-110)
Angular grid pruning method      GridPruning ... 4 (adaptive)
Weight generation scheme         WeightScheme... Becke
Basis function cutoff            BFCut       ... 1.0000e-11
Integration weight cutoff        WCut        ... 1.0000e-14
Angular grids for H and He will be reduced by one unit
Partially contracted basis set               ... on
Rotationally invariant grid construction     ... off

Total number of grid points                  ...    28758
Total number of batches                      ...      465
Average number of points per batch           ...       61
Average number of grid points per atom       ...     1106
UseSFitting                                  ... on

GRIDX 2
-------
General Integration Accuracy     IntAcc      ... 4.338
Radial Grid Type                 RadialGrid  ... OptM3 with GC (2021)
Angular Grid (max. ang.)         AngularGrid ... 3 (Lebedev-194)
Angular grid pruning method      GridPruning ... 4 (adaptive)
Weight generation scheme         WeightScheme... Becke
Basis function cutoff            BFCut       ... 1.0000e-11
Integration weight cutoff        WCut        ... 1.0000e-14
Angular grids for H and He will be reduced by one unit
Partially contracted basis set               ... on
Rotationally invariant grid construction     ... off

Total number of grid points                  ...    63372
Total number of batches                      ...      999
Average number of points per batch           ...       63
Average number of grid points per atom       ...     2437
UseSFitting                                  ... on

GRIDX 3
-------
General Integration Accuracy     IntAcc      ... 4.871
Radial Grid Type                 RadialGrid  ... OptM3 with GC (2021)
Angular Grid (max. ang.)         AngularGrid ... 4 (Lebedev-302)
Angular grid pruning method      GridPruning ... 4 (adaptive)
Weight generation scheme         WeightScheme... Becke
Basis function cutoff            BFCut       ... 1.0000e-11
Integration weight cutoff        WCut        ... 1.0000e-14
Angular grids for H and He will be reduced by one unit
Partially contracted basis set               ... on
Rotationally invariant grid construction     ... off

Total number of grid points                  ...   123700
Total number of batches                      ...     1946
Average number of points per batch           ...       63
Average number of grid points per atom       ...     4758
UseSFitting                                  ... on

Time for X-Grid setup             =    6.512 sec

--------------
SCF ITERATIONS
--------------
ITER       Energy         Delta-E        Max-DP      RMS-DP      [F,P]     Damp
               ***  Starting incremental Fock matrix formation  ***
  0   -389.2200736499   0.000000000000 0.04539892  0.00215593  0.3959928 0.7000
  1   -389.4239394193  -0.203865769461 0.03182602  0.00161965  0.2802939 0.7000
                               ***Turning on DIIS***
  2   -389.5695158721  -0.145576452796 0.02387753  0.00121731  0.1973890 0.7000
  3   -389.6726277621  -0.103111890014 0.02002127  0.00097206  0.1388898 0.7000
  4   -389.7455198544  -0.072892092203 0.04925305  0.00241049  0.0973046 0.0000
                      *** Initiating the SOSCF procedure ***
                           *** Shutting down DIIS ***
                      *** Re-Reading the Fockian *** 
                      *** Removing any level shift *** 
ITER      Energy       Delta-E        Grad      Rot      Max-DP    RMS-DP
  5   -389.91827661  -0.1727567580  0.000686  0.000686  0.001765  0.000128
               *** Restarting incremental Fock matrix formation ***
  6   -389.91830141  -0.0000247929  0.000391  0.000623  0.000964  0.000062
  7   -389.91829891   0.0000024952  0.000440  0.000312  0.000502  0.000030
  8   -389.91830800  -0.0000090898  0.000012  0.000019  0.000034  0.000002
  9   -389.91830802  -0.0000000250  0.000008  0.000005  0.000012  0.000001
                  ***Gradient check signals convergence***
              ***Rediagonalizing the Fockian in SOSCF/NRSCF***

               *****************************************************
               *                     SUCCESS                       *
               *           SCF CONVERGED AFTER  10 CYCLES          *
               *****************************************************

Old exchange energy                            =    -24.237790107 Eh
New exchange energy                            =    -24.237807157 Eh
Exchange energy change after final integration =     -0.000017050 Eh
Total energy after final integration           =   -389.918325084 Eh
Final COS-X integration done in                =    11.740 sec

----------------
TOTAL SCF ENERGY
----------------

Total Energy       :         -389.91832508 Eh          -10610.21704 eV

Components:
Nuclear Repulsion  :          599.73884440 Eh           16319.72363 eV
Electronic Energy  :         -989.65716948 Eh          -26929.94067 eV
One Electron Energy:        -1715.65539406 Eh          -46685.35671 eV
Two Electron Energy:          725.99822458 Eh           19755.41604 eV
Max COSX asymmetry :            0.00000471 Eh               0.00013 eV

Virial components:
Potential Energy   :         -776.54911820 Eh          -21130.97578 eV
Kinetic Energy     :          386.63079312 Eh           10520.75875 eV
Virial Ratio       :            2.00850303


DFT components:
N(Alpha)           :       38.000251434918 electrons
N(Beta)            :       38.000251434918 electrons
N(Total)           :       76.000502869835 electrons
E(X)               :      -32.114184356252 Eh       
E(C)               :       -3.290089396924 Eh       
E(XC)              :      -35.404273753176 Eh       
DFET-embed. en.    :        0.000000000000 Eh       

---------------
SCF CONVERGENCE
---------------

  Last Energy change         ...   -8.7846e-09  Tolerance :   1.0000e-08
  Last MAX-Density change    ...    1.0220e-15  Tolerance :   1.0000e-07
  Last RMS-Density change    ...    3.3051e-17  Tolerance :   5.0000e-09
  Last Orbital Gradient      ...    3.8702e-07  Tolerance :   1.0000e-05
  Last Orbital Rotation      ...    4.5232e-07  Tolerance :   1.0000e-05

             **** THE GBW FILE WAS UPDATED (pbeh-3c.gbw) ****
             **** DENSITY pbeh-3c.scfp WAS UPDATED ****
             **** ENERGY FILE WAS UPDATED (pbeh-3c.en.tmp) ****
             **** THE GBW FILE WAS UPDATED (pbeh-3c.gbw) ****
             **** DENSITY pbeh-3c.scfp WAS UPDATED ****
----------------
ORBITAL ENERGIES
----------------

  NO   OCC          E(Eh)            E(eV) 
   0   2.0000     -10.430700      -283.8338 
   1   2.0000     -10.430700      -283.8338 
   2   2.0000     -10.430700      -283.8338 
   3   2.0000     -10.430587      -283.8307 
   4   2.0000     -10.421914      -283.5947 
   5   2.0000     -10.421914      -283.5947 
   6   2.0000     -10.421843      -283.5928 
   7   2.0000     -10.421843      -283.5928 
   8   2.0000     -10.421843      -283.5928 
   9   2.0000     -10.421740      -283.5900 
  10   2.0000      -0.965586       -26.2749 
  11   2.0000      -0.853215       -23.2172 
  12   2.0000      -0.853215       -23.2172 
  13   2.0000      -0.853215       -23.2172 
  14   2.0000      -0.740577       -20.1521 
  15   2.0000      -0.740577       -20.1521 
  16   2.0000      -0.649493       -17.6736 
  17   2.0000      -0.649493       -17.6736 
  18   2.0000      -0.649493       -17.6736 
  19   2.0000      -0.584136       -15.8951 
  20   2.0000      -0.512865       -13.9558 
  21   2.0000      -0.505015       -13.7421 
  22   2.0000      -0.505014       -13.7421 
  23   2.0000      -0.505014       -13.7421 
  24   2.0000      -0.457129       -12.4391 
  25   2.0000      -0.457129       -12.4391 
  26   2.0000      -0.457129       -12.4391 
  27   2.0000      -0.439555       -11.9609 
  28   2.0000      -0.439555       -11.9609 
  29   2.0000      -0.439555       -11.9609 
  30   2.0000      -0.371478       -10.1084 
  31   2.0000      -0.371478       -10.1084 
  32   2.0000      -0.368300       -10.0219 
  33   2.0000      -0.368300       -10.0219 
  34   2.0000      -0.368300       -10.0219 
  35   2.0000      -0.318627        -8.6703 
  36   2.0000      -0.318627        -8.6703 
  37   2.0000      -0.318627        -8.6703 
  38   0.0000       0.115989         3.1562 
  39   0.0000       0.173744         4.7278 
  40   0.0000       0.173744         4.7278 
  41   0.0000       0.173744         4.7278 
  42   0.0000       0.178150         4.8477 
  43   0.0000       0.188326         5.1246 
  44   0.0000       0.188326         5.1246 
  45   0.0000       0.188326         5.1246 
  46   0.0000       0.197652         5.3784 
  47   0.0000       0.197652         5.3784 
  48   0.0000       0.246034         6.6949 
  49   0.0000       0.246034         6.6949 
  50   0.0000       0.246034         6.6949 
  51   0.0000       0.258647         7.0381 
  52   0.0000       0.258647         7.0381 
  53   0.0000       0.258647         7.0381 
  54   0.0000       0.264544         7.1986 
  55   0.0000       0.264544         7.1986 
  56   0.0000       0.264544         7.1986 
  57   0.0000       0.289512         7.8780 
  58   0.0000       0.289512         7.8780 
  59   0.0000       0.302367         8.2278 
  60   0.0000       0.302383         8.2283 
  61   0.0000       0.302383         8.2283 
  62   0.0000       0.302383         8.2283 
  63   0.0000       0.350083         9.5262 
  64   0.0000       0.350083         9.5262 
  65   0.0000       0.350083         9.5262 
  66   0.0000       0.516660        14.0590 
  67   0.0000       0.516660        14.0590 
  68   0.0000       0.516660        14.0590 
  69   0.0000       0.560623        15.2553 
  70   0.0000       0.560623        15.2553 
  71   0.0000       0.560623        15.2553 
  72   0.0000       0.581748        15.8302 
  73   0.0000       0.581748        15.8302 
  74   0.0000       0.609062        16.5734 
  75   0.0000       0.641304        17.4508 
  76   0.0000       0.641304        17.4508 
  77   0.0000       0.641304        17.4508 
  78   0.0000       0.686137        18.6707 
  79   0.0000       0.686137        18.6707 
  80   0.0000       0.720231        19.5985 
  81   0.0000       0.753002        20.4902 
  82   0.0000       0.753002        20.4902 
  83   0.0000       0.753002        20.4902 
  84   0.0000       0.780100        21.2276 
  85   0.0000       0.780100        21.2276 
  86   0.0000       0.780100        21.2276 
  87   0.0000       0.801561        21.8116 
  88   0.0000       0.801561        21.8116 
  89   0.0000       0.801561        21.8116 
  90   0.0000       0.935482        25.4558 
  91   0.0000       0.983252        26.7556 
  92   0.0000       0.983252        26.7556 
  93   0.0000       0.983252        26.7557 
  94   0.0000       0.992894        27.0180 
  95   0.0000       0.992894        27.0180 
  96   0.0000       0.992894        27.0180 
  97   0.0000       1.012037        27.5389 
  98   0.0000       1.031048        28.0563 
  99   0.0000       1.031048        28.0563 
 100   0.0000       1.031048        28.0563 
 101   0.0000       1.086501        29.5652 
 102   0.0000       1.086501        29.5652 
 103   0.0000       1.086501        29.5652 
 104   0.0000       1.102386        29.9975 
 105   0.0000       1.102386        29.9975 
 106   0.0000       1.112512        30.2730 
 107   0.0000       1.177309        32.0362 
 108   0.0000       1.177309        32.0362 
 109   0.0000       1.177309        32.0362 
 110   0.0000       1.183261        32.1982 
 111   0.0000       1.183261        32.1982 
 112   0.0000       1.183261        32.1982 
 113   0.0000       1.371284        37.3145 
 114   0.0000       1.371284        37.3145 
 115   0.0000       1.404449        38.2170 
 116   0.0000       1.404449        38.2170 
 117   0.0000       1.404449        38.2170 
 118   0.0000       1.449859        39.4527 
 119   0.0000       1.627584        44.2888 
 120   0.0000       1.627584        44.2888 
 121   0.0000       1.648477        44.8573 
 122   0.0000       1.648478        44.8574 
 123   0.0000       1.648478        44.8574 
 124   0.0000       1.695603        46.1397 
 125   0.0000       1.695603        46.1397 
 126   0.0000       1.695603        46.1397 
 127   0.0000       1.763092        47.9762 
 128   0.0000       1.830912        49.8217 
 129   0.0000       1.830912        49.8217 
 130   0.0000       1.830912        49.8217 
 131   0.0000       1.910187        51.9788 
 132   0.0000       1.910187        51.9788 
 133   0.0000       1.910187        51.9788 
 134   0.0000       1.951008        53.0896 
 135   0.0000       1.951008        53.0896 
 136   0.0000       2.048185        55.7339 
 137   0.0000       2.048185        55.7340 
 138   0.0000       2.048186        55.7340 
 139   0.0000       2.101683        57.1897 
 140   0.0000       2.147293        58.4308 
 141   0.0000       2.147293        58.4308 
 142   0.0000       2.156055        58.6692 
 143   0.0000       2.156055        58.6692 
 144   0.0000       2.156055        58.6692 
 145   0.0000       2.238943        60.9247 
 146   0.0000       2.238943        60.9247 
 147   0.0000       2.238944        60.9248 
 148   0.0000       2.288224        62.2657 
 149   0.0000       2.326406        63.3047 
 150   0.0000       2.326406        63.3047 
 151   0.0000       2.326406        63.3047 
 152   0.0000       2.443191        66.4826 
 153   0.0000       2.443191        66.4826 
 154   0.0000       2.452292        66.7303 
 155   0.0000       2.452292        66.7303 
 156   0.0000       2.452292        66.7303 
 157   0.0000       2.478188        67.4349 
 158   0.0000       2.478188        67.4349 
 159   0.0000       2.478188        67.4349 
 160   0.0000       2.738629        74.5219 
 161   0.0000       2.738629        74.5219 
 162   0.0000       2.738629        74.5219 
 163   0.0000       2.752596        74.9020 
 164   0.0000       2.763492        75.1984 
 165   0.0000       2.763492        75.1984 
 166   0.0000       2.763492        75.1984 
 167   0.0000       2.811319        76.4999 
 168   0.0000       2.811319        76.4999 
 169   0.0000       2.853747        77.6544 
 170   0.0000       2.853747        77.6544 
 171   0.0000       2.853747        77.6544 
 172   0.0000      13.457893       366.2079 
 173   0.0000      13.799886       375.5140 
 174   0.0000      13.799886       375.5140 
 175   0.0000      13.799886       375.5140 
 176   0.0000      14.051909       382.3719 
 177   0.0000      14.099446       383.6654 
 178   0.0000      14.099446       383.6654 
 179   0.0000      14.272486       388.3741 
 180   0.0000      14.272486       388.3741 
 181   0.0000      14.272486       388.3741 

                    ********************************
                    * MULLIKEN POPULATION ANALYSIS *
                    ********************************

-----------------------
MULLIKEN ATOMIC CHARGES
-----------------------
   0 C :   -0.240200
   1 C :   -0.240200
   2 C :   -0.240200
   3 C :   -0.240200
   4 C :   -0.407690
   5 C :   -0.407690
   6 C :   -0.407691
   7 C :   -0.407691
   8 C :   -0.407690
   9 C :   -0.407691
  10 H :    0.212275
  11 H :    0.212275
  12 H :    0.212275
  13 H :    0.212275
  14 H :    0.212275
  15 H :    0.212275
  16 H :    0.212275
  17 H :    0.212275
  18 H :    0.212275
  19 H :    0.212275
  20 H :    0.212275
  21 H :    0.212275
  22 H :    0.214911
  23 H :    0.214911
  24 H :    0.214911
  25 H :    0.214911
Sum of atomic charges:   -0.0000000

--------------------------------
MULLIKEN REDUCED ORBITAL CHARGES
--------------------------------
  0 C s       :     3.274318  s :     3.274318
      pz      :     0.972256  p :     2.916769
      px      :     0.972256
      py      :     0.972256
      dz2     :     0.004457  d :     0.049113
      dxz     :     0.013400
      dyz     :     0.013400
      dx2y2   :     0.004457
      dxy     :     0.013400
  1 C s       :     3.274318  s :     3.274318
      pz      :     0.972256  p :     2.916769
      px      :     0.972256
      py      :     0.972256
      dz2     :     0.004457  d :     0.049113
      dxz     :     0.013400
      dyz     :     0.013400
      dx2y2   :     0.004457
      dxy     :     0.013400
  2 C s       :     3.274318  s :     3.274318
      pz      :     0.972256  p :     2.916769
      px      :     0.972256
      py      :     0.972256
      dz2     :     0.004457  d :     0.049113
      dxz     :     0.013400
      dyz     :     0.013400
      dx2y2   :     0.004457
      dxy     :     0.013400
  3 C s       :     3.274318  s :     3.274318
      pz      :     0.972256  p :     2.916769
      px      :     0.972256
      py      :     0.972256
      dz2     :     0.004457  d :     0.049113
      dxz     :     0.013400
      dyz     :     0.013400
      dx2y2   :     0.004457
      dxy     :     0.013400
  4 C s       :     3.313907  s :     3.313907
      pz      :     1.029125  p :     3.050594
      px      :     0.992345
      py      :     1.029124
      dz2     :     0.003001  d :     0.043189
      dxz     :     0.012512
      dyz     :     0.012365
      dx2y2   :     0.002799
      dxy     :     0.012512
  5 C s       :     3.313907  s :     3.313907
      pz      :     1.029125  p :     3.050594
      px      :     1.029125
      py      :     0.992345
      dz2     :     0.003001  d :     0.043189
      dxz     :     0.012365
      dyz     :     0.012512
      dx2y2   :     0.002799
      dxy     :     0.012512
  6 C s       :     3.313907  s :     3.313907
      pz      :     0.992345  p :     3.050594
      px      :     1.029125
      py      :     1.029125
      dz2     :     0.002697  d :     0.043189
      dxz     :     0.012512
      dyz     :     0.012512
      dx2y2   :     0.003103
      dxy     :     0.012365
  7 C s       :     3.313907  s :     3.313907
      pz      :     0.992345  p :     3.050594
      px      :     1.029125
      py      :     1.029125
      dz2     :     0.002697  d :     0.043189
      dxz     :     0.012512
      dyz     :     0.012512
      dx2y2   :     0.003103
      dxy     :     0.012365
  8 C s       :     3.313907  s :     3.313907
      pz      :     1.029125  p :     3.050594
      px      :     0.992345
      py      :     1.029125
      dz2     :     0.003001  d :     0.043189
      dxz     :     0.012512
      dyz     :     0.012365
      dx2y2   :     0.002799
      dxy     :     0.012512
  9 C s       :     3.313907  s :     3.313907
      pz      :     1.029125  p :     3.050594
      px      :     1.029125
      py      :     0.992345
      dz2     :     0.003001  d :     0.043189
      dxz     :     0.012365
      dyz     :     0.012512
      dx2y2   :     0.002799
      dxy     :     0.012512
 10 H s       :     0.787725  s :     0.787725
 11 H s       :     0.787725  s :     0.787725
 12 H s       :     0.787725  s :     0.787725
 13 H s       :     0.787725  s :     0.787725
 14 H s       :     0.787725  s :     0.787725
 15 H s       :     0.787725  s :     0.787725
 16 H s       :     0.787725  s :     0.787725
 17 H s       :     0.787725  s :     0.787725
 18 H s       :     0.787725  s :     0.787725
 19 H s       :     0.787725  s :     0.787725
 20 H s       :     0.787725  s :     0.787725
 21 H s       :     0.787725  s :     0.787725
 22 H s       :     0.785089  s :     0.785089
 23 H s       :     0.785089  s :     0.785089
 24 H s       :     0.785089  s :     0.785089
 25 H s       :     0.785089  s :     0.785089


                     *******************************
                     * LOEWDIN POPULATION ANALYSIS *
                     *******************************

----------------------
LOEWDIN ATOMIC CHARGES
----------------------
   0 C :   -0.147050
   1 C :   -0.147050
   2 C :   -0.147049
   3 C :   -0.147049
   4 C :   -0.223685
   5 C :   -0.223685
   6 C :   -0.223685
   7 C :   -0.223685
   8 C :   -0.223685
   9 C :   -0.223685
  10 H :    0.120585
  11 H :    0.120585
  12 H :    0.120585
  13 H :    0.120585
  14 H :    0.120585
  15 H :    0.120585
  16 H :    0.120585
  17 H :    0.120585
  18 H :    0.120585
  19 H :    0.120585
  20 H :    0.120585
  21 H :    0.120585
  22 H :    0.120822
  23 H :    0.120822
  24 H :    0.120822
  25 H :    0.120822

-------------------------------
LOEWDIN REDUCED ORBITAL CHARGES
-------------------------------
  0 C s       :     2.867838  s :     2.867838
      pz      :     1.056940  p :     3.170821
      px      :     1.056940
      py      :     1.056940
      dz2     :     0.009636  d :     0.108391
      dxz     :     0.029706
      dyz     :     0.029706
      dx2y2   :     0.009636
      dxy     :     0.029706
  1 C s       :     2.867838  s :     2.867838
      pz      :     1.056940  p :     3.170821
      px      :     1.056940
      py      :     1.056940
      dz2     :     0.009636  d :     0.108391
      dxz     :     0.029706
      dyz     :     0.029706
      dx2y2   :     0.009636
      dxy     :     0.029706
  2 C s       :     2.867838  s :     2.867838
      pz      :     1.056940  p :     3.170821
      px      :     1.056940
      py      :     1.056940
      dz2     :     0.009636  d :     0.108391
      dxz     :     0.029706
      dyz     :     0.029706
      dx2y2   :     0.009636
      dxy     :     0.029706
  3 C s       :     2.867838  s :     2.867838
      pz      :     1.056940  p :     3.170821
      px      :     1.056940
      py      :     1.056940
      dz2     :     0.009636  d :     0.108391
      dxz     :     0.029706
      dyz     :     0.029706
      dx2y2   :     0.009636
      dxy     :     0.029706
  4 C s       :     2.907459  s :     2.907459
      pz      :     1.080893  p :     3.227228
      px      :     1.065442
      py      :     1.080893
      dz2     :     0.006528  d :     0.088998
      dxz     :     0.025510
      dyz     :     0.025055
      dx2y2   :     0.006395
      dxy     :     0.025510
  5 C s       :     2.907459  s :     2.907459
      pz      :     1.080893  p :     3.227228
      px      :     1.080893
      py      :     1.065442
      dz2     :     0.006528  d :     0.088998
      dxz     :     0.025054
      dyz     :     0.025510
      dx2y2   :     0.006395
      dxy     :     0.025510
  6 C s       :     2.907459  s :     2.907459
      pz      :     1.065442  p :     3.227228
      px      :     1.080893
      py      :     1.080893
      dz2     :     0.006329  d :     0.088998
      dxz     :     0.025510
      dyz     :     0.025510
      dx2y2   :     0.006594
      dxy     :     0.025055
  7 C s       :     2.907459  s :     2.907459
      pz      :     1.065442  p :     3.227228
      px      :     1.080893
      py      :     1.080893
      dz2     :     0.006329  d :     0.088998
      dxz     :     0.025511
      dyz     :     0.025510
      dx2y2   :     0.006594
      dxy     :     0.025055
  8 C s       :     2.907459  s :     2.907459
      pz      :     1.080893  p :     3.227228
      px      :     1.065442
      py      :     1.080893
      dz2     :     0.006528  d :     0.088998
      dxz     :     0.025510
      dyz     :     0.025055
      dx2y2   :     0.006395
      dxy     :     0.025510
  9 C s       :     2.907459  s :     2.907459
      pz      :     1.080893  p :     3.227228
      px      :     1.080893
      py      :     1.065442
      dz2     :     0.006528  d :     0.088998
      dxz     :     0.025055
      dyz     :     0.025510
      dx2y2   :     0.006395
      dxy     :     0.025510
 10 H s       :     0.879415  s :     0.879415
 11 H s       :     0.879415  s :     0.879415
 12 H s       :     0.879415  s :     0.879415
 13 H s       :     0.879415  s :     0.879415
 14 H s       :     0.879415  s :     0.879415
 15 H s       :     0.879415  s :     0.879415
 16 H s       :     0.879415  s :     0.879415
 17 H s       :     0.879415  s :     0.879415
 18 H s       :     0.879415  s :     0.879415
 19 H s       :     0.879415  s :     0.879415
 20 H s       :     0.879415  s :     0.879415
 21 H s       :     0.879415  s :     0.879415
 22 H s       :     0.879178  s :     0.879178
 23 H s       :     0.879178  s :     0.879178
 24 H s       :     0.879178  s :     0.879178
 25 H s       :     0.879178  s :     0.879178


                      *****************************
                      * MAYER POPULATION ANALYSIS *
                      *****************************

  NA   - Mulliken gross atomic population
  ZA   - Total nuclear charge
  QA   - Mulliken gross atomic charge
  VA   - Mayer's total valence
  BVA  - Mayer's bonded valence
  FA   - Mayer's free valence

  ATOM       NA         ZA         QA         VA         BVA        FA
  0 C      6.2402     6.0000    -0.2402     3.7436     3.7436     0.0000
  1 C      6.2402     6.0000    -0.2402     3.7436     3.7436     0.0000
  2 C      6.2402     6.0000    -0.2402     3.7436     3.7436     0.0000
  3 C      6.2402     6.0000    -0.2402     3.7436     3.7436    -0.0000
  4 C      6.4077     6.0000    -0.4077     3.6905     3.6905    -0.0000
  5 C      6.4077     6.0000    -0.4077     3.6905     3.6905    -0.0000
  6 C      6.4077     6.0000    -0.4077     3.6905     3.6905    -0.0000
  7 C      6.4077     6.0000    -0.4077     3.6905     3.6905    -0.0000
  8 C      6.4077     6.0000    -0.4077     3.6905     3.6905    -0.0000
  9 C      6.4077     6.0000    -0.4077     3.6905     3.6905     0.0000
 10 H      0.7877     1.0000     0.2123     0.9139     0.9139    -0.0000
 11 H      0.7877     1.0000     0.2123     0.9139     0.9139     0.0000
 12 H      0.7877     1.0000     0.2123     0.9139     0.9139     0.0000
 13 H      0.7877     1.0000     0.2123     0.9139     0.9139    -0.0000
 14 H      0.7877     1.0000     0.2123     0.9139     0.9139    -0.0000
 15 H      0.7877     1.0000     0.2123     0.9139     0.9139     0.0000
 16 H      0.7877     1.0000     0.2123     0.9139     0.9139     0.0000
 17 H      0.7877     1.0000     0.2123     0.9139     0.9139    -0.0000
 18 H      0.7877     1.0000     0.2123     0.9139     0.9139     0.0000
 19 H      0.7877     1.0000     0.2123     0.9139     0.9139     0.0000
 20 H      0.7877     1.0000     0.2123     0.9139     0.9139     0.0000
 21 H      0.7877     1.0000     0.2123     0.9139     0.9139    -0.0000
 22 H      0.7851     1.0000     0.2149     0.9074     0.9074     0.0000
 23 H      0.7851     1.0000     0.2149     0.9074     0.9074     0.0000
 24 H      0.7851     1.0000     0.2149     0.9074     0.9074    -0.0000
 25 H      0.7851     1.0000     0.2149     0.9074     0.9074    -0.0000

  Mayer bond orders larger than 0.100000
B(  0-C ,  4-C ) :   0.9731 B(  0-C ,  7-C ) :   0.9731 B(  0-C ,  9-C ) :   0.9731 
B(  0-C , 22-H ) :   0.9206 B(  1-C ,  5-C ) :   0.9731 B(  1-C ,  7-C ) :   0.9731 
B(  1-C ,  8-C ) :   0.9731 B(  1-C , 23-H ) :   0.9206 B(  2-C ,  6-C ) :   0.9731 
B(  2-C ,  8-C ) :   0.9731 B(  2-C ,  9-C ) :   0.9731 B(  2-C , 24-H ) :   0.9206 
B(  3-C ,  4-C ) :   0.9731 B(  3-C ,  5-C ) :   0.9731 B(  3-C ,  6-C ) :   0.9731 
B(  3-C , 25-H ) :   0.9206 B(  4-C , 10-H ) :   0.9244 B(  4-C , 18-H ) :   0.9244 
B(  5-C , 11-H ) :   0.9244 B(  5-C , 16-H ) :   0.9244 B(  6-C , 12-H ) :   0.9244 
B(  6-C , 17-H ) :   0.9244 B(  7-C , 13-H ) :   0.9244 B(  7-C , 21-H ) :   0.9244 
B(  8-C , 14-H ) :   0.9244 B(  8-C , 19-H ) :   0.9244 B(  9-C , 15-H ) :   0.9244 
B(  9-C , 20-H ) :   0.9244 

-------
TIMINGS
-------

Total SCF time: 0 days 0 hours 2 min 19 sec 

Total time                  ....     139.824 sec
Sum of individual times     ....     134.244 sec  ( 96.0%)

Fock matrix formation       ....     116.287 sec  ( 83.2%)
  Split-RI-J                ....       9.627 sec  (  8.3% of F)
  Chain of spheres X        ....      67.417 sec  ( 58.0% of F)
  XC integration            ....      26.896 sec  ( 23.1% of F)
    Basis function eval.    ....       6.242 sec  ( 23.2% of XC)
    Density eval.           ....       4.176 sec  ( 15.5% of XC)
    XC-Functional eval.     ....       1.804 sec  (  6.7% of XC)
    XC-Potential eval.      ....       2.665 sec  (  9.9% of XC)
Diagonalization             ....       1.243 sec  (  0.9%)
Density matrix formation    ....       0.188 sec  (  0.1%)
Population analysis         ....       1.273 sec  (  0.9%)
Initial guess               ....       0.035 sec  (  0.0%)
Orbital Transformation      ....       0.000 sec  (  0.0%)
Orbital Orthonormalization  ....       0.000 sec  (  0.0%)
DIIS solution               ....       3.011 sec  (  2.2%)
SOSCF solution              ....       1.006 sec  (  0.7%)
Grid generation             ....      11.201 sec  (  8.0%)

Maximum memory used throughout the entire SCF-calculation: 65.9 MB


-------------------------------------------------------------------------------
                          DFT DISPERSION CORRECTION                            
                                                                               
                              DFTD3 V3.1  Rev 1                                
                          USING Becke-Johnson damping                          
-------------------------------------------------------------------------------
The PBEh-3c composite method is recognized
Using three-body term ABC
Active option DFTDOPT                   ...         4   

molecular C6(AA) [au] = 4998.203132 


            DFT-D V3
 parameters
 s6 scaling factor         :     1.0000 
 a1 scaling factor         :     0.4860 
 s8 scaling factor         :     0.0000 
 a2 scaling factor         :     4.5000 
 Damping factor alpha9(ATM):    16.0000 
 ad hoc parameters k1-k3   :    16.0000     1.3333    -4.0000 

 Edisp/kcal,au: -11.099779844912  -0.017688623231 
 E6   /kcal   : -11.256486537 
 E8   /kcal   :  -0.000000000 
 E6(ABC)      :   0.156706692 
 % E8         :   0.000000000 
 % E6(ABC)    :  -1.411800006 

-------------------------   ----------------
Dispersion correction           -0.017688623
-------------------------   ----------------

------------------   -----------------
gCP correction             0.047663294
------------------   -----------------

-------------------------   --------------------
FINAL SINGLE POINT ENERGY      -389.888350412685
-------------------------   --------------------


                            ***************************************
                            *     ORCA property calculations      *
                            ***************************************

                                    ---------------------
                                    Active property flags
                                    ---------------------
   (+) Dipole Moment


------------------------------------------------------------------------------
                       ORCA ELECTRIC PROPERTIES CALCULATION
------------------------------------------------------------------------------

Dipole Moment Calculation                       ... on
Quadrupole Moment Calculation                   ... off
Polarizability Calculation                      ... off
GBWName                                         ... pbeh-3c.gbw
Electron density                                ... pbeh-3c.scfp
The origin for moment calculation is the CENTER OF MASS  = ( 0.000000,  0.000000  0.000000)

-------------
DIPOLE MOMENT
-------------
                                X             Y             Z
Electronic contribution:     -0.00000       0.00000       0.00000
Nuclear contribution   :      0.00000       0.00000       0.00000
                        -----------------------------------------
Total Dipole Moment    :     -0.00000       0.00000       0.00000
                        -----------------------------------------
Magnitude (a.u.)       :      0.00000
Magnitude (Debye)      :      0.00000



--------------------
Rotational spectrum 
--------------------
 
Rotational constants in cm-1:     0.056753     0.056753     0.056753 
Rotational constants in MHz :  1701.424642  1701.424642  1701.424642 

 Dipole components along the rotational axes: 
x,y,z [a.u.] :    -0.000000     0.000000     0.000000 
x,y,z [Debye]:    -0.000000     0.000000     0.000000 

 

Timings for individual modules:

Sum of individual times         ...      143.747 sec (=   2.396 min)
GTO integral calculation        ...        2.939 sec (=   0.049 min)   2.0 %
SCF iterations                  ...      140.808 sec (=   2.347 min)  98.0 %
                             ****ORCA TERMINATED NORMALLY****
TOTAL RUN TIME: 0 days 0 hours 2 minutes 25 seconds 597 msec
