
                                 *****************
                                 * O   R   C   A *
                                 *****************

                                            #,                                       
                                            ###                                      
                                            ####                                     
                                            #####                                    
                                            ######                                   
                                           ########,                                 
                                     ,,################,,,,,                         
                               ,,#################################,,                 
                          ,,##########################################,,             
                       ,#########################################, ''#####,          
                    ,#############################################,,   '####,        
                  ,##################################################,,,,####,       
                ,###########''''           ''''###############################       
              ,#####''   ,,,,##########,,,,          '''####'''          '####       
            ,##' ,,,,###########################,,,                        '##       
           ' ,,###''''                  '''############,,,                           
         ,,##''                                '''############,,,,        ,,,,,,###''
      ,#''                                            '''#######################'''  
     '                                                          ''''####''''         
             ,#######,   #######,   ,#######,      ##                                
            ,#'     '#,  ##    ##  ,#'     '#,    #''#        ######   ,####,        
            ##       ##  ##   ,#'  ##            #'  '#       #        #'  '#        
            ##       ##  #######   ##           ,######,      #####,   #    #        
            '#,     ,#'  ##    ##  '#,     ,#' ,#      #,         ##   #,  ,#        
             '#######'   ##     ##  '#######'  #'      '#     #####' # '####'        



                  #######################################################
                  #                        -***-                        #
                  #          Department of theory and spectroscopy      #
                  #    Directorship and core code : Frank Neese         #
                  #        Max Planck Institute fuer Kohlenforschung    #
                  #                Kaiser Wilhelm Platz 1               #
                  #                 D-45470 Muelheim/Ruhr               #
                  #                      Germany                        #
                  #                                                     #
                  #                  All rights reserved                #
                  #                        -***-                        #
                  #######################################################


                         Program Version 5.0.3 -  RELEASE  -


 With contributions from (in alphabetic order):
   Daniel Aravena         : Magnetic Suceptibility
   Michael Atanasov       : Ab Initio Ligand Field Theory (pilot matlab implementation)
   Alexander A. Auer      : GIAO ZORA, VPT2 properties, NMR spectrum
   Ute Becker             : Parallelization
   Giovanni Bistoni       : ED, misc. LED, open-shell LED, HFLD
   Martin Brehm           : Molecular dynamics
   Dmytro Bykov           : SCF Hessian
   Vijay G. Chilkuri      : MRCI spin determinant printing, contributions to CSF-ICE
   Dipayan Datta          : RHF DLPNO-CCSD density
   Achintya Kumar Dutta   : EOM-CC, STEOM-CC
   Dmitry Ganyushin       : Spin-Orbit,Spin-Spin,Magnetic field MRCI
   Miquel Garcia          : C-PCM and meta-GGA Hessian, CC/C-PCM, Gaussian charge scheme
   Yang Guo               : DLPNO-NEVPT2, F12-NEVPT2, CIM, IAO-localization
   Andreas Hansen         : Spin unrestricted coupled pair/coupled cluster methods
   Benjamin Helmich-Paris : MC-RPA, TRAH-SCF, COSX integrals
   Lee Huntington         : MR-EOM, pCC
   Robert Izsak           : Overlap fitted RIJCOSX, COSX-SCS-MP3, EOM
   Marcus Kettner         : VPT2
   Christian Kollmar      : KDIIS, OOCD, Brueckner-CCSD(T), CCSD density, CASPT2, CASPT2-K
   Simone Kossmann        : Meta GGA functionals, TD-DFT gradient, OOMP2, MP2 Hessian
   Martin Krupicka        : Initial AUTO-CI
   Lucas Lang             : DCDCAS
   Marvin Lechner         : AUTO-CI (C++ implementation), FIC-MRCC
   Dagmar Lenk            : GEPOL surface, SMD
   Dimitrios Liakos       : Extrapolation schemes; Compound Job, initial MDCI parallelization
   Dimitrios Manganas     : Further ROCIS development; embedding schemes
   Dimitrios Pantazis     : SARC Basis sets
   Anastasios Papadopoulos: AUTO-CI, single reference methods and gradients
   Taras Petrenko         : DFT Hessian,TD-DFT gradient, ASA, ECA, R-Raman, ABS, FL, XAS/XES, NRVS
   Peter Pinski           : DLPNO-MP2, DLPNO-MP2 Gradient
   Christoph Reimann      : Effective Core Potentials
   Marius Retegan         : Local ZFS, SOC
   Christoph Riplinger    : Optimizer, TS searches, QM/MM, DLPNO-CCSD(T), (RO)-DLPNO pert. Triples
   Tobias Risthaus        : Range-separated hybrids, TD-DFT gradient, RPA, STAB
   Michael Roemelt        : Original ROCIS implementation
   Masaaki Saitow         : Open-shell DLPNO-CCSD energy and density
   Barbara Sandhoefer     : DKH picture change effects
   Avijit Sen             : IP-ROCIS
   Kantharuban Sivalingam : CASSCF convergence, NEVPT2, FIC-MRCI
   Bernardo de Souza      : ESD, SOC TD-DFT
   Georgi Stoychev        : AutoAux, RI-MP2 NMR, DLPNO-MP2 response
   Willem Van den Heuvel  : Paramagnetic NMR
   Boris Wezisla          : Elementary symmetry handling
   Frank Wennmohs         : Technical directorship


 We gratefully acknowledge several colleagues who have allowed us to
 interface, adapt or use parts of their codes:
   Stefan Grimme, W. Hujo, H. Kruse, P. Pracht,  : VdW corrections, initial TS optimization,
                  C. Bannwarth, S. Ehlert          DFT functionals, gCP, sTDA/sTD-DF
   Ed Valeev, F. Pavosevic, A. Kumar             : LibInt (2-el integral package), F12 methods
   Garnet Chan, S. Sharma, J. Yang, R. Olivares  : DMRG
   Ulf Ekstrom                                   : XCFun DFT Library
   Mihaly Kallay                                 : mrcc  (arbitrary order and MRCC methods)
   Jiri Pittner, Ondrej Demel                    : Mk-CCSD
   Frank Weinhold                                : gennbo (NPA and NBO analysis)
   Christopher J. Cramer and Donald G. Truhlar   : smd solvation model
   Lars Goerigk                                  : TD-DFT with DH, B97 family of functionals
   V. Asgeirsson, H. Jonsson                     : NEB implementation
   FAccTs GmbH                                   : IRC, NEB, NEB-TS, DLPNO-Multilevel, CI-OPT
                                                   MM, QMMM, 2- and 3-layer-ONIOM, Crystal-QMMM,
                                                   LR-CPCM, SF, NACMEs, symmetry and pop. for TD-DFT,
                                                   nearIR, NL-DFT gradient (VV10), updates on ESD,
                                                   ML-optimized integration grids
   S Lehtola, MJT Oliveira, MAL Marques          : LibXC Library
   Liviu Ungur et al                             : ANISO software


 Your calculation uses the libint2 library for the computation of 2-el integrals
 For citations please refer to: http://libint.valeyev.net

 Your ORCA version has been built with support for libXC version: 5.1.0
 For citations please refer to: https://tddft.org/programs/libxc/

 This ORCA versions uses:
   CBLAS   interface :  Fast vector & matrix operations
   LAPACKE interface :  Fast linear algebra routines
   SCALAPACK package :  Parallel linear algebra routines
   Shared memory     :  Shared parallel matrices
   BLAS/LAPACK       :  OpenBLAS 0.3.15  USE64BITINT DYNAMIC_ARCH NO_AFFINITY Haswell SINGLE_THREADED
        Core in use  :  Haswell
   Copyright (c) 2011-2014, The OpenBLAS Project




***************************************
The coordinates will be read from file: PH2Ph.xyz
***************************************


Your calculation utilizes the geometrical counterpoise correction gCP
Please cite in your paper:
H.Kruse, S. Grimme J.Chem.Phys., 136, (2012), 154101 
   

Your calculation utilizes the atom-pairwise dispersion correction
with the Becke-Johnson damping scheme (D3BJ)
Cite in your paper:
S.Grimme, S.Ehrlich, L.Goerigk, J Comput Chem, (2011), 32, 1456–1465 
S.Grimme, J.Antony, S.Ehrlich and H.Krieg, J.Chem.Phys., 132, (2010), 154104 
   

Your calculation employs the composite approach PBEh-3c.
Please cite in your paper:
S. Grimme, J. G. Brandenburg, C. Bannwarth, A. Hansen J.Chem.Phys., 143, (2015), 054107 
   

================================================================================

----- Orbital basis set information -----
Your calculation utilizes the basis: def2-mSVP

----- AuxJ basis set information -----
Your calculation utilizes the auxiliary basis: def2/J
   F. Weigend, Phys. Chem. Chem. Phys. 8, 1057 (2006).

================================================================================
                                        WARNINGS
                       Please study these warnings very carefully!
================================================================================


INFO   : the flag for use of the SHARK integral package has been found!

================================================================================
                                       INPUT FILE
================================================================================
NAME = pbeh-3c.inp
|  1> ! PBEh-3c def2/J TightSCF DefGrid3
|  2> 
|  3> %maxcore 60000
|  4> 
|  5> %pal
|  6> nprocs 4
|  7> end
|  8> 
|  9> *xyzfile 0 1 PH2Ph.xyz
| 10> 
| 11>                          ****END OF INPUT****
================================================================================

                       ****************************
                       * Single Point Calculation *
                       ****************************

---------------------------------
CARTESIAN COORDINATES (ANGSTROEM)
---------------------------------
  P      0.079150    0.265864    0.182132
  H      0.040318   -0.929372    0.946996
  C      1.764675    0.066665   -0.518662
  H     -0.631656   -0.306284   -0.901657
  C      1.982628   -0.075593   -1.890051
  C      3.274397   -0.118154   -2.401523
  C      4.367653   -0.028671   -1.548589
  C      4.161149    0.109266   -0.180198
  C      2.871060    0.167593    0.329073
  H      1.140305   -0.161077   -2.563980
  H      3.425366   -0.230772   -3.467127
  H      5.372909   -0.064232   -1.946381
  H      5.005940    0.184237    0.491472
  H      2.723055    0.297501    1.394298

----------------------------
CARTESIAN COORDINATES (A.U.)
----------------------------
  NO LB      ZA    FRAG     MASS         X           Y           Z
   0 P    15.0000    0    30.974    0.149573    0.502410    0.344180
   1 H     1.0000    0     1.008    0.076191   -1.756258    1.789563
   2 C     6.0000    0    12.011    3.334753    0.125979   -0.980129
   3 H     1.0000    0     1.008   -1.193656   -0.578793   -1.703884
   4 C     6.0000    0    12.011    3.746624   -0.142850   -3.571678
   5 C     6.0000    0    12.011    6.187713   -0.223279   -4.538221
   6 C     6.0000    0    12.011    8.253667   -0.054181   -2.926410
   7 C     6.0000    0    12.011    7.863432    0.206483   -0.340525
   8 C     6.0000    0    12.011    5.425517    0.316704    0.621858
   9 H     1.0000    0     1.008    2.154864   -0.304391   -4.845219
  10 H     1.0000    0     1.008    6.473003   -0.436095   -6.551920
  11 H     1.0000    0     1.008   10.153327   -0.121382   -3.678127
  12 H     1.0000    0     1.008    9.459855    0.348158    0.928747
  13 H     1.0000    0     1.008    5.145828    0.562195    2.634842

--------------------------------
INTERNAL COORDINATES (ANGSTROEM)
--------------------------------
 P      0   0   0     0.000000000000     0.00000000     0.00000000
 H      1   0   0     1.419546705556     0.00000000     0.00000000
 C      1   2   0     1.836242538598    98.01335233     0.00000000
 H      1   2   3     1.416755981429    93.34928338    97.72725000
 C      3   1   2     1.395868365574   121.96045913   116.43647316
 C      5   3   1     1.389993432975   120.64667789   174.86709287
 C      6   5   3     1.389500327325   120.22205005     0.45788939
 C      7   6   5     1.390742722923   119.57331047   359.73837128
 C      8   7   6     1.388196542130   120.20663363   359.50246828
 H      5   3   1     1.082125708857   119.89232122   354.42106048
 H      6   5   3     1.082120687356   119.68234281   179.88361189
 H      7   6   5     1.081685444569   120.22163326   179.84971233
 H      8   7   6     1.081864872313   120.11871222   180.27725104
 H      9   8   7     1.083275492761   119.52185924   181.36726581

---------------------------
INTERNAL COORDINATES (A.U.)
---------------------------
 P      0   0   0     0.000000000000     0.00000000     0.00000000
 H      1   0   0     2.682554507811     0.00000000     0.00000000
 C      1   2   0     3.469995513407    98.01335233     0.00000000
 H      1   2   3     2.677280803495    93.34928338    97.72725000
 C      3   1   2     2.637808929939   121.96045913   116.43647316
 C      5   3   1     2.626706916271   120.64667789   174.86709287
 C      6   5   3     2.625775081637   120.22205005     0.45788939
 C      7   6   5     2.628122869067   119.57331047   359.73837128
 C      8   7   6     2.623311284681   120.20663363   359.50246828
 H      5   3   1     2.044921232215   119.89232122   354.42106048
 H      6   5   3     2.044911742953   119.68234281   179.88361189
 H      7   6   5     2.044089253285   120.22163326   179.84971233
 H      8   7   6     2.044428322581   120.11871222   180.27725104
 H      9   8   7     2.047094008906   119.52185924   181.36726581

---------------------
BASIS SET INFORMATION
---------------------
There are 3 groups of distinct atoms

 Group   1 Type P   : 10s7p1d contracted to 4s3p1d pattern {5311/511/1}
 Group   2 Type H   : 4s contracted to 2s pattern {31}
 Group   3 Type C   : 8s4p1d contracted to 4s2p1d pattern {5111/31/1}

Atom   0P    basis set group =>   1
Atom   1H    basis set group =>   2
Atom   2C    basis set group =>   3
Atom   3H    basis set group =>   2
Atom   4C    basis set group =>   3
Atom   5C    basis set group =>   3
Atom   6C    basis set group =>   3
Atom   7C    basis set group =>   3
Atom   8C    basis set group =>   3
Atom   9H    basis set group =>   2
Atom  10H    basis set group =>   2
Atom  11H    basis set group =>   2
Atom  12H    basis set group =>   2
Atom  13H    basis set group =>   2
---------------------------------
AUXILIARY/J BASIS SET INFORMATION
---------------------------------
There are 3 groups of distinct atoms

 Group   1 Type P   : 14s5p5d2f1g contracted to 8s4p3d1f1g pattern {71111111/2111/311/2/1}
 Group   2 Type H   : 5s2p1d contracted to 3s1p1d pattern {311/2/1}
 Group   3 Type C   : 12s5p4d2f1g contracted to 6s4p3d1f1g pattern {711111/2111/211/2/1}

Atom   0P    basis set group =>   1
Atom   1H    basis set group =>   2
Atom   2C    basis set group =>   3
Atom   3H    basis set group =>   2
Atom   4C    basis set group =>   3
Atom   5C    basis set group =>   3
Atom   6C    basis set group =>   3
Atom   7C    basis set group =>   3
Atom   8C    basis set group =>   3
Atom   9H    basis set group =>   2
Atom  10H    basis set group =>   2
Atom  11H    basis set group =>   2
Atom  12H    basis set group =>   2
Atom  13H    basis set group =>   2


           ************************************************************
           *        Program running with 4 parallel MPI-processes     *
           *              working on a common directory               *
           ************************************************************
------------------------------------------------------------------------------
                           ORCA GTO INTEGRAL CALCULATION
                           -- RI-GTO INTEGRALS CHOSEN --
------------------------------------------------------------------------------
------------------------------------------------------------------------------
                   ___                                                        
                  /   \      - P O W E R E D   B Y -                         
                 /     \                                                     
                 |  |  |   _    _      __       _____    __    __             
                 |  |  |  | |  | |    /  \     |  _  \  |  |  /  |          
                  \  \/   | |  | |   /    \    | | | |  |  | /  /          
                 / \  \   | |__| |  /  /\  \   | |_| |  |  |/  /          
                |  |  |   |  __  | /  /__\  \  |    /   |      \           
                |  |  |   | |  | | |   __   |  |    \   |  |\   \          
                \     /   | |  | | |  |  |  |  | |\  \  |  | \   \       
                 \___/    |_|  |_| |__|  |__|  |_| \__\ |__|  \__/        
                                                                              
                      - O R C A' S   B I G   F R I E N D -                    
                                      &                                       
                       - I N T E G R A L  F E E D E R -                       
                                                                              
 v1 FN, 2020, v2 2021                                                         
------------------------------------------------------------------------------


Reading SHARK input file pbeh-3c.SHARKINP.tmp ... ok
----------------------
SHARK INTEGRAL PACKAGE
----------------------

Number of atoms                             ...     14
Number of basis functions                   ...    122
Number of shells                            ...     64
Maximum angular momentum                    ...      2
Integral batch strategy                     ... SHARK/LIBINT Hybrid
RI-J (if used) integral strategy            ... SPLIT-RIJ (Revised 2003 algorithm where possible)
Printlevel                                  ...      1
Contraction scheme used                     ... SEGMENTED contraction
Coulomb Range Separation                    ... NOT USED
Exchange Range Separation                   ... NOT USED
Finite Nucleus Model                        ... NOT USED
Auxiliary Coulomb fitting basis             ... AVAILABLE
   # of basis functions in Aux-J            ...    422
   # of shells in Aux-J                     ...    142
   Maximum angular momentum in Aux-J        ...      4
Auxiliary J/K fitting basis                 ... NOT available
Auxiliary Correlation fitting basis         ... NOT available
Auxiliary 'external' fitting basis          ... NOT available
Integral threshold                          ...     2.500000e-11
Primitive cut-off                           ...     2.500000e-12
Primitive pair pre-selection threshold      ...     2.500000e-12

Calculating pre-screening integrals         ... done (  0.1 sec) Dimension = 64
Organizing shell pair data                  ... done (  0.5 sec)
Shell pair information
Total number of shell pairs                 ...      2080
Shell pairs after pre-screening             ...      1931
Total number of primitive shell pairs       ...      7872
Primitive shell pairs kept                  ...      5265
          la=0 lb=0:    793 shell pairs
          la=1 lb=0:    607 shell pairs
          la=1 lb=1:    119 shell pairs
          la=2 lb=0:    282 shell pairs
          la=2 lb=1:    102 shell pairs
          la=2 lb=2:     28 shell pairs

Calculating one electron integrals          ... done (  0.0 sec)
Calculating RI/J V-Matrix + Cholesky decomp.... done (  0.3 sec)
Calculating Nuclear repulsion               ... done (  0.0 sec) ENN=    320.976092054305 Eh

SHARK setup successfully completed in   1.5 seconds

Maximum memory used throughout the entire GTOINT-calculation: 10.7 MB


           ************************************************************
           *        Program running with 4 parallel MPI-processes     *
           *              working on a common directory               *
           ************************************************************
-------------------------------------------------------------------------------
                                 ORCA SCF
-------------------------------------------------------------------------------

------------
SCF SETTINGS
------------
Hamiltonian:
 Density Functional     Method          .... DFT(GTOs)
 Exchange Functional    Exchange        .... PBE
   PBE kappa parameter   XKappa         ....  1.024500
   PBE mue parameter    XMuePBE         ....  0.123457
 Correlation Functional Correlation     .... PBE
   PBE beta parameter  CBetaPBE         ....  0.030000
 LDA part of GGA corr.  LDAOpt          .... PW91-LDA
 Gradients option       PostSCFGGA      .... off
 Hybrid DFT is turned on
   Fraction HF Exchange ScalHFX         ....  0.420000
   Scaling of DF-GGA-X  ScalDFX         ....  0.580000
   Scaling of DF-GGA-C  ScalDFC         ....  1.000000
   Scaling of DF-LDA-C  ScalLDAC        ....  1.000000
   Perturbative correction              ....  0.000000
   Density functional embedding theory  .... OFF
 RI-approximation to the Coulomb term is turned on
   Number of AuxJ basis functions       .... 422
   RIJ-ON(X) (HFX calculated with O(N)) .... on
   Number of AuxJ basis functions       .... 422
   RIJ-COSX (HFX calculated with COS-X)).... on


General Settings:
 Integral files         IntName         .... pbeh-3c
 Hartree-Fock type      HFTyp           .... RHF
 Total Charge           Charge          ....    0
 Multiplicity           Mult            ....    1
 Number of Electrons    NEL             ....   58
 Basis Dimension        Dim             ....  122
 Nuclear Repulsion      ENuc            ....    320.9760920543 Eh

Convergence Acceleration:
 DIIS                   CNVDIIS         .... on
   Start iteration      DIISMaxIt       ....    12
   Startup error        DIISStart       ....  0.200000
   # of expansion vecs  DIISMaxEq       ....     5
   Bias factor          DIISBfac        ....   1.050
   Max. coefficient     DIISMaxC        ....  10.000
 Trust-Rad. Augm. Hess. CNVTRAH         .... auto
   Auto Start mean grad. ratio tolernc. ....  1.125000
   Auto Start start iteration           ....    20
   Auto Start num. interpolation iter.  ....    10
   Max. Number of Micro iterations      ....    16
   Max. Number of Macro iterations      .... Maxiter - #DIIS iter
   Number of Davidson start vectors     ....     2
   Converg. threshold I  (grad. norm)   ....   1.000e-05
   Converg. threshold II (energy diff.) ....   1.000e-08
   Grad. Scal. Fac. for Micro threshold ....   0.100
   Minimum threshold for Micro iter.    ....   0.010
   NR start threshold (gradient norm)   ....   0.001
   Initial trust radius                 ....   0.400
   Minimum AH scaling param. (alpha)    ....   1.000
   Maximum AH scaling param. (alpha)    .... 1000.000
   Orbital update algorithm             .... Taylor
   White noise on init. David. guess    .... on
   Maximum white noise                  ....   0.010
   Quad. conv. algorithm                .... NR
   COSX micro iterations for RIJONX calc.... off
 SOSCF                  CNVSOSCF        .... on
   Start iteration      SOSCFMaxIt      ....   150
   Startup grad/error   SOSCFStart      ....  0.003300
 Level Shifting         CNVShift        .... on
   Level shift para.    LevelShift      ....    0.2500
   Turn off err/grad.   ShiftErr        ....    0.0010
 Zerner damping         CNVZerner       .... off
 Static damping         CNVDamp         .... on
   Fraction old density DampFac         ....    0.7000
   Max. Damping (<1)    DampMax         ....    0.9800
   Min. Damping (>=0)   DampMin         ....    0.0000
   Turn off err/grad.   DampErr         ....    0.1000
 Fernandez-Rico         CNVRico         .... off

SCF Procedure:
 Maximum # iterations   MaxIter         ....   125
 SCF integral mode      SCFMode         .... Direct
   Integral package                     .... SHARK and LIBINT hybrid scheme
 Reset frequency        DirectResetFreq ....    20
 Integral Threshold     Thresh          ....  2.500e-11 Eh
 Primitive CutOff       TCut            ....  2.500e-12 Eh

Convergence Tolerance:
 Convergence Check Mode ConvCheckMode   .... Total+1el-Energy
 Convergence forced     ConvForced      .... 0
 Energy Change          TolE            ....  1.000e-08 Eh
 1-El. energy change                    ....  1.000e-05 Eh
 Orbital Gradient       TolG            ....  1.000e-05
 Orbital Rotation angle TolX            ....  1.000e-05
 DIIS Error             TolErr          ....  5.000e-07


Diagonalization of the overlap matrix:
Smallest eigenvalue                        ... 4.853e-04
Time for diagonalization                   ...    0.003 sec
Threshold for overlap eigenvalues          ... 1.000e-08
Number of eigenvalues below threshold      ... 0
Time for construction of square roots      ...    0.079 sec
Total time needed                          ...    0.143 sec

--------------------------------
INITIAL GUESS: MINIMAL BASIS EHT
--------------------------------
The minimal basis has 46 functions
EHT matrix was diagonalized
Basis set overlap was calculated now projecting the orbitals
Using GuessMode=FMatrix for the initial guess
C*T matrix was formed
Effective Fockian was calculated
Effective Fockian was diagonalized
Initial density was built
                      ------------------
                      INITIAL GUESS DONE
                      ------------------
-------------------
DFT GRID GENERATION
-------------------

General Integration Accuracy     IntAcc      ... 4.959
Radial Grid Type                 RadialGrid  ... OptM3 with GC (2021)
Angular Grid (max. ang.)         AngularGrid ... 6 (Lebedev-590)
Angular grid pruning method      GridPruning ... 4 (adaptive)
Weight generation scheme         WeightScheme... Becke
Basis function cutoff            BFCut       ... 1.0000e-11
Integration weight cutoff        WCut        ... 1.0000e-14
Angular grids for H and He will be reduced by one unit
Partially contracted basis set               ... off
Rotationally invariant grid construction     ... off

Total number of grid points                  ...   163264
Total number of batches                      ...     2557
Average number of points per batch           ...       63
Average number of grid points per atom       ...    11662
Time for grid setup =    3.295 sec

--------------------
COSX GRID GENERATION
--------------------

GRIDX 1
-------
General Integration Accuracy     IntAcc      ... 4.020
Radial Grid Type                 RadialGrid  ... OptM3 with GC (2021)
Angular Grid (max. ang.)         AngularGrid ... 2 (Lebedev-110)
Angular grid pruning method      GridPruning ... 4 (adaptive)
Weight generation scheme         WeightScheme... Becke
Basis function cutoff            BFCut       ... 1.0000e-11
Integration weight cutoff        WCut        ... 1.0000e-14
Angular grids for H and He will be reduced by one unit
Partially contracted basis set               ... on
Rotationally invariant grid construction     ... off

Total number of grid points                  ...    18160
Total number of batches                      ...      291
Average number of points per batch           ...       62
Average number of grid points per atom       ...     1297
UseSFitting                                  ... on

GRIDX 2
-------
General Integration Accuracy     IntAcc      ... 4.338
Radial Grid Type                 RadialGrid  ... OptM3 with GC (2021)
Angular Grid (max. ang.)         AngularGrid ... 3 (Lebedev-194)
Angular grid pruning method      GridPruning ... 4 (adaptive)
Weight generation scheme         WeightScheme... Becke
Basis function cutoff            BFCut       ... 1.0000e-11
Integration weight cutoff        WCut        ... 1.0000e-14
Angular grids for H and He will be reduced by one unit
Partially contracted basis set               ... on
Rotationally invariant grid construction     ... off

Total number of grid points                  ...    40422
Total number of batches                      ...      639
Average number of points per batch           ...       63
Average number of grid points per atom       ...     2887
UseSFitting                                  ... on

GRIDX 3
-------
General Integration Accuracy     IntAcc      ... 4.871
Radial Grid Type                 RadialGrid  ... OptM3 with GC (2021)
Angular Grid (max. ang.)         AngularGrid ... 4 (Lebedev-302)
Angular grid pruning method      GridPruning ... 4 (adaptive)
Weight generation scheme         WeightScheme... Becke
Basis function cutoff            BFCut       ... 1.0000e-11
Integration weight cutoff        WCut        ... 1.0000e-14
Angular grids for H and He will be reduced by one unit
Partially contracted basis set               ... on
Rotationally invariant grid construction     ... off

Total number of grid points                  ...    76975
Total number of batches                      ...     1211
Average number of points per batch           ...       63
Average number of grid points per atom       ...     5498
UseSFitting                                  ... on

Time for X-Grid setup             =    4.249 sec

--------------
SCF ITERATIONS
--------------
ITER       Energy         Delta-E        Max-DP      RMS-DP      [F,P]     Damp
               ***  Starting incremental Fock matrix formation  ***
  0   -572.4114323266   0.000000000000 0.12497442  0.00463325  0.4135982 0.7000
  1   -572.6612039548  -0.249771628250 0.08906256  0.00336430  0.2910611 0.7000
  2   -572.8401760130  -0.178972058155 0.06239308  0.00245445  0.2038774 0.7000
                               ***Turning on DIIS***
  3   -572.9677495730  -0.127573560070 0.04393033  0.00179966  0.1430818 0.7000
  4   -573.0584732495  -0.090723676421 0.03185189  0.00139964  0.1004542 0.7000
  5   -573.1228833458  -0.064410096347 0.08954602  0.00352323  0.0704580 0.0000
                      *** Initiating the SOSCF procedure ***
                           *** Shutting down DIIS ***
                      *** Re-Reading the Fockian *** 
                      *** Removing any level shift *** 
ITER      Energy       Delta-E        Grad      Rot      Max-DP    RMS-DP
  6   -573.27689145  -0.1540081035  0.002342  0.002342  0.007280  0.000234
               *** Restarting incremental Fock matrix formation ***
  7   -573.27703960  -0.0001481481  0.001344  0.004813  0.005632  0.000191
  8   -573.27708891  -0.0000493092  0.000311  0.001572  0.002212  0.000068
  9   -573.27709214  -0.0000032382  0.000145  0.000412  0.000462  0.000013
 10   -573.27709227  -0.0000001244  0.000122  0.000194  0.000183  0.000008
 11   -573.27709246  -0.0000001877  0.000020  0.000064  0.000150  0.000003
                 **** Energy Check signals convergence ****
              ***Rediagonalizing the Fockian in SOSCF/NRSCF***

               *****************************************************
               *                     SUCCESS                       *
               *           SCF CONVERGED AFTER  12 CYCLES          *
               *****************************************************

Old exchange energy                            =    -23.600333814 Eh
New exchange energy                            =    -23.600337287 Eh
Exchange energy change after final integration =     -0.000003473 Eh
Total energy after final integration           =   -573.277095935 Eh
Final COS-X integration done in                =     4.724 sec

----------------
TOTAL SCF ENERGY
----------------

Total Energy       :         -573.27709593 Eh          -15599.66285 eV

Components:
Nuclear Repulsion  :          320.97609205 Eh            8734.20350 eV
Electronic Energy  :         -894.25318799 Eh          -24333.86636 eV
One Electron Energy:        -1420.86754337 Eh          -38663.77148 eV
Two Electron Energy:          526.61435538 Eh           14329.90513 eV
Max COSX asymmetry :            0.00000189 Eh               0.00005 eV

Virial components:
Potential Energy   :        -1144.14505594 Eh          -31133.76978 eV
Kinetic Energy     :          570.86796001 Eh           15534.10693 eV
Virial Ratio       :            2.00422013


DFT components:
N(Alpha)           :       29.000002830015 electrons
N(Beta)            :       29.000002830015 electrons
N(Total)           :       58.000005660031 electrons
E(X)               :      -31.386688066615 Eh       
E(C)               :       -2.605013463285 Eh       
E(XC)              :      -33.991701529900 Eh       
DFET-embed. en.    :        0.000000000000 Eh       

---------------
SCF CONVERGENCE
---------------

  Last Energy change         ...   -4.8101e-09  Tolerance :   1.0000e-08
  Last MAX-Density change    ...    1.7764e-15  Tolerance :   1.0000e-07
  Last RMS-Density change    ...    4.5887e-17  Tolerance :   5.0000e-09
  Last Orbital Gradient      ...    1.8227e-05  Tolerance :   1.0000e-05
  Last Orbital Rotation      ...    4.1209e-05  Tolerance :   1.0000e-05

             **** THE GBW FILE WAS UPDATED (pbeh-3c.gbw) ****
             **** DENSITY pbeh-3c.scfp WAS UPDATED ****
             **** ENERGY FILE WAS UPDATED (pbeh-3c.en.tmp) ****
             **** THE GBW FILE WAS UPDATED (pbeh-3c.gbw) ****
             **** DENSITY pbeh-3c.scfp WAS UPDATED ****
----------------
ORBITAL ENERGIES
----------------

  NO   OCC          E(Eh)            E(eV) 
   0   2.0000     -77.735496     -2115.2904 
   1   2.0000     -10.466511      -284.8082 
   2   2.0000     -10.454942      -284.4934 
   3   2.0000     -10.454748      -284.4882 
   4   2.0000     -10.453270      -284.4479 
   5   2.0000     -10.453082      -284.4428 
   6   2.0000     -10.451780      -284.4074 
   7   2.0000      -6.812745      -185.3842 
   8   2.0000      -4.903274      -133.4249 
   9   2.0000      -4.903153      -133.4216 
  10   2.0000      -4.901077      -133.3651 
  11   2.0000      -0.961406       -26.1612 
  12   2.0000      -0.851132       -23.1605 
  13   2.0000      -0.842755       -22.9325 
  14   2.0000      -0.727758       -19.8033 
  15   2.0000      -0.688165       -18.7259 
  16   2.0000      -0.656677       -17.8691 
  17   2.0000      -0.582646       -15.8546 
  18   2.0000      -0.523777       -14.2527 
  19   2.0000      -0.519670       -14.1409 
  20   2.0000      -0.487546       -13.2668 
  21   2.0000      -0.464819       -12.6484 
  22   2.0000      -0.439671       -11.9641 
  23   2.0000      -0.424580       -11.5534 
  24   2.0000      -0.402978       -10.9656 
  25   2.0000      -0.391733       -10.6596 
  26   2.0000      -0.331129        -9.0105 
  27   2.0000      -0.299193        -8.1414 
  28   2.0000      -0.273598        -7.4450 
  29   0.0000       0.005915         0.1610 
  30   0.0000       0.012435         0.3384 
  31   0.0000       0.063648         1.7320 
  32   0.0000       0.082024         2.2320 
  33   0.0000       0.149575         4.0701 
  34   0.0000       0.178010         4.8439 
  35   0.0000       0.191780         5.2186 
  36   0.0000       0.197278         5.3682 
  37   0.0000       0.210599         5.7307 
  38   0.0000       0.225798         6.1443 
  39   0.0000       0.246825         6.7165 
  40   0.0000       0.292974         7.9722 
  41   0.0000       0.314209         8.5501 
  42   0.0000       0.322570         8.7776 
  43   0.0000       0.340247         9.2586 
  44   0.0000       0.383454        10.4343 
  45   0.0000       0.427784        11.6406 
  46   0.0000       0.479004        13.0344 
  47   0.0000       0.510226        13.8839 
  48   0.0000       0.536849        14.6084 
  49   0.0000       0.554407        15.0862 
  50   0.0000       0.566764        15.4224 
  51   0.0000       0.569405        15.4943 
  52   0.0000       0.593142        16.1402 
  53   0.0000       0.602696        16.4002 
  54   0.0000       0.608477        16.5575 
  55   0.0000       0.619773        16.8649 
  56   0.0000       0.624049        16.9812 
  57   0.0000       0.628612        17.1054 
  58   0.0000       0.634308        17.2604 
  59   0.0000       0.655992        17.8505 
  60   0.0000       0.661262        17.9938 
  61   0.0000       0.688789        18.7429 
  62   0.0000       0.714458        19.4414 
  63   0.0000       0.766251        20.8508 
  64   0.0000       0.780666        21.2430 
  65   0.0000       0.800703        21.7882 
  66   0.0000       0.844680        22.9849 
  67   0.0000       0.882626        24.0175 
  68   0.0000       0.900034        24.4912 
  69   0.0000       0.948169        25.8010 
  70   0.0000       0.963558        26.2198 
  71   0.0000       0.967144        26.3173 
  72   0.0000       0.984369        26.7861 
  73   0.0000       1.025395        27.9024 
  74   0.0000       1.050950        28.5978 
  75   0.0000       1.051857        28.6225 
  76   0.0000       1.087452        29.5911 
  77   0.0000       1.096671        29.8419 
  78   0.0000       1.123328        30.5673 
  79   0.0000       1.147793        31.2330 
  80   0.0000       1.179110        32.0852 
  81   0.0000       1.266546        34.4645 
  82   0.0000       1.282975        34.9115 
  83   0.0000       1.302009        35.4295 
  84   0.0000       1.309365        35.6296 
  85   0.0000       1.326784        36.1036 
  86   0.0000       1.460676        39.7470 
  87   0.0000       1.533746        41.7353 
  88   0.0000       1.541260        41.9398 
  89   0.0000       1.562343        42.5135 
  90   0.0000       1.571986        42.7759 
  91   0.0000       1.629811        44.3494 
  92   0.0000       1.827009        49.7154 
  93   0.0000       1.832485        49.8645 
  94   0.0000       1.908717        51.9388 
  95   0.0000       2.024772        55.0968 
  96   0.0000       2.061439        56.0946 
  97   0.0000       2.130382        57.9706 
  98   0.0000       2.140449        58.2446 
  99   0.0000       2.189636        59.5830 
 100   0.0000       2.195988        59.7559 
 101   0.0000       2.209315        60.1185 
 102   0.0000       2.212905        60.2162 
 103   0.0000       2.360994        64.2459 
 104   0.0000       2.370263        64.4981 
 105   0.0000       2.379088        64.7383 
 106   0.0000       2.563746        69.7631 
 107   0.0000       2.615086        71.1601 
 108   0.0000       2.726735        74.1982 
 109   0.0000       2.744260        74.6751 
 110   0.0000       2.750812        74.8534 
 111   0.0000       2.763435        75.1969 
 112   0.0000       2.795404        76.0668 
 113   0.0000       2.831641        77.0529 
 114   0.0000       3.066925        83.4553 
 115   0.0000       3.436742        93.5185 
 116   0.0000      13.241214       360.3118 
 117   0.0000      13.642532       371.2322 
 118   0.0000      13.651559       371.4778 
 119   0.0000      14.098495       383.6396 
 120   0.0000      14.121626       384.2690 
 121   0.0000      14.531537       395.4232 

                    ********************************
                    * MULLIKEN POPULATION ANALYSIS *
                    ********************************

-----------------------
MULLIKEN ATOMIC CHARGES
-----------------------
   0 P :    0.013653
   1 H :    0.095241
   2 C :   -0.155336
   3 H :    0.074013
   4 C :   -0.244916
   5 C :   -0.198248
   6 C :   -0.237898
   7 C :   -0.198802
   8 C :   -0.255589
   9 H :    0.217584
  10 H :    0.221887
  11 H :    0.222886
  12 H :    0.222245
  13 H :    0.223282
Sum of atomic charges:   -0.0000000

--------------------------------
MULLIKEN REDUCED ORBITAL CHARGES
--------------------------------
  0 P s       :     5.719119  s :     5.719119
      pz      :     2.980980  p :     9.120722
      px      :     2.790360
      py      :     3.349382
      dz2     :     0.011614  d :     0.146505
      dxz     :     0.036718
      dyz     :     0.042578
      dx2y2   :     0.037075
      dxy     :     0.018520
  1 H s       :     0.904759  s :     0.904759
  2 C s       :     3.208564  s :     3.208564
      pz      :     0.936933  p :     2.907257
      px      :     0.973776
      py      :     0.996548
      dz2     :     0.010262  d :     0.039516
      dxz     :     0.012216
      dyz     :     0.006735
      dx2y2   :     0.005029
      dxy     :     0.005274
  3 H s       :     0.925987  s :     0.925987
  4 C s       :     3.259332  s :     3.259332
      pz      :     0.952076  p :     2.945405
      px      :     0.998589
      py      :     0.994739
      dz2     :     0.009330  d :     0.040179
      dxz     :     0.015695
      dyz     :     0.005063
      dx2y2   :     0.005897
      dxy     :     0.004195
  5 C s       :     3.239690  s :     3.239690
      pz      :     1.031473  p :     2.918585
      px      :     0.901666
      py      :     0.985446
      dz2     :     0.012802  d :     0.039973
      dxz     :     0.011362
      dyz     :     0.002611
      dx2y2   :     0.006168
      dxy     :     0.007030
  6 C s       :     3.252538  s :     3.252538
      pz      :     0.922480  p :     2.945561
      px      :     1.031742
      py      :     0.991339
      dz2     :     0.010608  d :     0.039799
      dxz     :     0.013163
      dyz     :     0.006150
      dx2y2   :     0.006823
      dxy     :     0.003055
  7 C s       :     3.240189  s :     3.240189
      pz      :     0.952135  p :     2.918554
      px      :     0.981687
      py      :     0.984732
      dz2     :     0.009272  d :     0.040059
      dxz     :     0.015339
      dyz     :     0.005234
      dx2y2   :     0.005885
      dxy     :     0.004329
  8 C s       :     3.264562  s :     3.264562
      pz      :     1.067559  p :     2.950938
      px      :     0.888074
      py      :     0.995305
      dz2     :     0.012949  d :     0.040089
      dxz     :     0.011413
      dyz     :     0.002556
      dx2y2   :     0.006333
      dxy     :     0.006838
  9 H s       :     0.782416  s :     0.782416
 10 H s       :     0.778113  s :     0.778113
 11 H s       :     0.777114  s :     0.777114
 12 H s       :     0.777755  s :     0.777755
 13 H s       :     0.776718  s :     0.776718


                     *******************************
                     * LOEWDIN POPULATION ANALYSIS *
                     *******************************

----------------------
LOEWDIN ATOMIC CHARGES
----------------------
   0 P :    0.126468
   1 H :    0.032882
   2 C :   -0.193000
   3 H :    0.026894
   4 C :   -0.141836
   5 C :   -0.130506
   6 C :   -0.135889
   7 C :   -0.129684
   8 C :   -0.138911
   9 H :    0.134761
  10 H :    0.137548
  11 H :    0.137241
  12 H :    0.137696
  13 H :    0.136337

-------------------------------
LOEWDIN REDUCED ORBITAL CHARGES
-------------------------------
  0 P s       :     5.445668  s :     5.445668
      pz      :     3.013381  p :     9.248300
      px      :     2.891927
      py      :     3.342993
      dz2     :     0.014102  d :     0.179564
      dxz     :     0.048028
      dyz     :     0.048239
      dx2y2   :     0.046711
      dxy     :     0.022484
  1 H s       :     0.967118  s :     0.967118
  2 C s       :     2.899809  s :     2.899809
      pz      :     1.108512  p :     3.199780
      px      :     1.098678
      py      :     0.992591
      dz2     :     0.027063  d :     0.093410
      dxz     :     0.032207
      dyz     :     0.013694
      dx2y2   :     0.010532
      dxy     :     0.009914
  3 H s       :     0.973106  s :     0.973106
  4 C s       :     2.891971  s :     2.891971
      pz      :     1.078056  p :     3.158401
      px      :     1.087474
      py      :     0.992871
      dz2     :     0.023900  d :     0.091464
      dxz     :     0.037600
      dyz     :     0.010205
      dx2y2   :     0.011853
      dxy     :     0.007906
  5 C s       :     2.892380  s :     2.892380
      pz      :     1.078643  p :     3.147429
      px      :     1.090406
      py      :     0.978380
      dz2     :     0.026721  d :     0.090697
      dxz     :     0.029542
      dyz     :     0.003985
      dx2y2   :     0.015781
      dxy     :     0.014669
  6 C s       :     2.892437  s :     2.892437
      pz      :     1.087782  p :     3.153396
      px      :     1.081281
      py      :     0.984333
      dz2     :     0.027613  d :     0.090056
      dxz     :     0.032570
      dyz     :     0.012671
      dx2y2   :     0.012015
      dxy     :     0.005187
  7 C s       :     2.891983  s :     2.891983
      pz      :     1.085806  p :     3.146857
      px      :     1.083126
      py      :     0.977925
      dz2     :     0.023879  d :     0.090843
      dxz     :     0.036440
      dyz     :     0.010386
      dx2y2   :     0.011915
      dxy     :     0.008223
  8 C s       :     2.890706  s :     2.890706
      pz      :     1.078428  p :     3.157121
      px      :     1.086802
      py      :     0.991891
      dz2     :     0.027206  d :     0.091084
      dxz     :     0.029427
      dyz     :     0.003996
      dx2y2   :     0.016224
      dxy     :     0.014230
  9 H s       :     0.865239  s :     0.865239
 10 H s       :     0.862452  s :     0.862452
 11 H s       :     0.862759  s :     0.862759
 12 H s       :     0.862304  s :     0.862304
 13 H s       :     0.863663  s :     0.863663


                      *****************************
                      * MAYER POPULATION ANALYSIS *
                      *****************************

  NA   - Mulliken gross atomic population
  ZA   - Total nuclear charge
  QA   - Mulliken gross atomic charge
  VA   - Mayer's total valence
  BVA  - Mayer's bonded valence
  FA   - Mayer's free valence

  ATOM       NA         ZA         QA         VA         BVA        FA
  0 P     14.9863    15.0000     0.0137     2.8875     2.8875     0.0000
  1 H      0.9048     1.0000     0.0952     0.9591     0.9591    -0.0000
  2 C      6.1553     6.0000    -0.1553     3.7416     3.7416    -0.0000
  3 H      0.9260     1.0000     0.0740     0.9669     0.9669     0.0000
  4 C      6.2449     6.0000    -0.2449     3.8366     3.8366     0.0000
  5 C      6.1982     6.0000    -0.1982     3.8212     3.8212    -0.0000
  6 C      6.2379     6.0000    -0.2379     3.8225     3.8225    -0.0000
  7 C      6.1988     6.0000    -0.1988     3.8273     3.8273     0.0000
  8 C      6.2556     6.0000    -0.2556     3.8219     3.8219    -0.0000
  9 H      0.7824     1.0000     0.2176     0.9171     0.9171     0.0000
 10 H      0.7781     1.0000     0.2219     0.9103     0.9103    -0.0000
 11 H      0.7771     1.0000     0.2229     0.9108     0.9108     0.0000
 12 H      0.7778     1.0000     0.2222     0.9102     0.9102     0.0000
 13 H      0.7767     1.0000     0.2233     0.9138     0.9138    -0.0000

  Mayer bond orders larger than 0.100000
B(  0-P ,  1-H ) :   0.9483 B(  0-P ,  2-C ) :   0.9565 B(  0-P ,  3-H ) :   0.9555 
B(  2-C ,  4-C ) :   1.3965 B(  2-C ,  8-C ) :   1.3763 B(  4-C ,  5-C ) :   1.4381 
B(  4-C ,  9-H ) :   0.9191 B(  5-C ,  6-C ) :   1.4266 B(  5-C , 10-H ) :   0.9180 
B(  6-C ,  7-C ) :   1.4166 B(  6-C , 11-H ) :   0.9181 B(  7-C ,  8-C ) :   1.4522 
B(  7-C , 12-H ) :   0.9182 B(  8-C , 13-H ) :   0.9189 

-------
TIMINGS
-------

Total SCF time: 0 days 0 hours 1 min 2 sec 

Total time                  ....      62.691 sec
Sum of individual times     ....      57.933 sec  ( 92.4%)

Fock matrix formation       ....      47.005 sec  ( 75.0%)
  Split-RI-J                ....       4.643 sec  (  9.9% of F)
  Chain of spheres X        ....      22.873 sec  ( 48.7% of F)
  XC integration            ....      11.933 sec  ( 25.4% of F)
    Basis function eval.    ....       2.748 sec  ( 23.0% of XC)
    Density eval.           ....       1.676 sec  ( 14.0% of XC)
    XC-Functional eval.     ....       1.364 sec  ( 11.4% of XC)
    XC-Potential eval.      ....       1.136 sec  (  9.5% of XC)
Diagonalization             ....       0.751 sec  (  1.2%)
Density matrix formation    ....       0.097 sec  (  0.2%)
Population analysis         ....       0.342 sec  (  0.5%)
Initial guess               ....       0.011 sec  (  0.0%)
Orbital Transformation      ....       0.000 sec  (  0.0%)
Orbital Orthonormalization  ....       0.000 sec  (  0.0%)
DIIS solution               ....       1.966 sec  (  3.1%)
SOSCF solution              ....       0.217 sec  (  0.3%)
Grid generation             ....       7.543 sec  ( 12.0%)

Maximum memory used throughout the entire SCF-calculation: 53.2 MB


-------------------------------------------------------------------------------
                          DFT DISPERSION CORRECTION                            
                                                                               
                              DFTD3 V3.1  Rev 1                                
                          USING Becke-Johnson damping                          
-------------------------------------------------------------------------------
The PBEh-3c composite method is recognized
Using three-body term ABC
Active option DFTDOPT                   ...         4   

molecular C6(AA) [au] = 2978.965448 


            DFT-D V3
 parameters
 s6 scaling factor         :     1.0000 
 a1 scaling factor         :     0.4860 
 s8 scaling factor         :     0.0000 
 a2 scaling factor         :     4.5000 
 Damping factor alpha9(ATM):    16.0000 
 ad hoc parameters k1-k3   :    16.0000     1.3333    -4.0000 

 Edisp/kcal,au: -5.024550931641  -0.008007130734 
 E6   /kcal   :  -5.032255372 
 E8   /kcal   :  -0.000000000 
 E6(ABC)      :   0.007704440 
 % E8         :   0.000000000 
 % E6(ABC)    :  -0.153335892 

-------------------------   ----------------
Dispersion correction           -0.008007131
-------------------------   ----------------

------------------   -----------------
gCP correction             0.016930104
------------------   -----------------

-------------------------   --------------------
FINAL SINGLE POINT ENERGY      -573.268172961554
-------------------------   --------------------


                            ***************************************
                            *     ORCA property calculations      *
                            ***************************************

                                    ---------------------
                                    Active property flags
                                    ---------------------
   (+) Dipole Moment


------------------------------------------------------------------------------
                       ORCA ELECTRIC PROPERTIES CALCULATION
------------------------------------------------------------------------------

Dipole Moment Calculation                       ... on
Quadrupole Moment Calculation                   ... off
Polarizability Calculation                      ... off
GBWName                                         ... pbeh-3c.gbw
Electron density                                ... pbeh-3c.scfp
The origin for moment calculation is the CENTER OF MASS  = ( 4.135335,  0.145378 -1.288031)

-------------
DIPOLE MOMENT
-------------
                                X             Y             Z
Electronic contribution:     -3.26594       1.48811       1.76688
Nuclear contribution   :      3.53381      -1.80923      -1.96810
                        -----------------------------------------
Total Dipole Moment    :      0.26787      -0.32112      -0.20122
                        -----------------------------------------
Magnitude (a.u.)       :      0.46407
Magnitude (Debye)      :      1.17956



--------------------
Rotational spectrum 
--------------------
 
Rotational constants in cm-1:     0.183826     0.050519     0.039964 
Rotational constants in MHz :  5510.962883  1514.519294  1198.089413 

 Dipole components along the rotational axes: 
x,y,z [a.u.] :     0.339649    -0.116147    -0.294119 
x,y,z [Debye]:     0.863320    -0.295223    -0.747591 

 

Timings for individual modules:

Sum of individual times         ...       65.444 sec (=   1.091 min)
GTO integral calculation        ...        2.220 sec (=   0.037 min)   3.4 %
SCF iterations                  ...       63.224 sec (=   1.054 min)  96.6 %
                             ****ORCA TERMINATED NORMALLY****
TOTAL RUN TIME: 0 days 0 hours 1 minutes 6 seconds 401 msec
