
                                 *****************
                                 * O   R   C   A *
                                 *****************

                                            #,                                       
                                            ###                                      
                                            ####                                     
                                            #####                                    
                                            ######                                   
                                           ########,                                 
                                     ,,################,,,,,                         
                               ,,#################################,,                 
                          ,,##########################################,,             
                       ,#########################################, ''#####,          
                    ,#############################################,,   '####,        
                  ,##################################################,,,,####,       
                ,###########''''           ''''###############################       
              ,#####''   ,,,,##########,,,,          '''####'''          '####       
            ,##' ,,,,###########################,,,                        '##       
           ' ,,###''''                  '''############,,,                           
         ,,##''                                '''############,,,,        ,,,,,,###''
      ,#''                                            '''#######################'''  
     '                                                          ''''####''''         
             ,#######,   #######,   ,#######,      ##                                
            ,#'     '#,  ##    ##  ,#'     '#,    #''#        ######   ,####,        
            ##       ##  ##   ,#'  ##            #'  '#       #        #'  '#        
            ##       ##  #######   ##           ,######,      #####,   #    #        
            '#,     ,#'  ##    ##  '#,     ,#' ,#      #,         ##   #,  ,#        
             '#######'   ##     ##  '#######'  #'      '#     #####' # '####'        



                  #######################################################
                  #                        -***-                        #
                  #          Department of theory and spectroscopy      #
                  #    Directorship and core code : Frank Neese         #
                  #        Max Planck Institute fuer Kohlenforschung    #
                  #                Kaiser Wilhelm Platz 1               #
                  #                 D-45470 Muelheim/Ruhr               #
                  #                      Germany                        #
                  #                                                     #
                  #                  All rights reserved                #
                  #                        -***-                        #
                  #######################################################


                         Program Version 5.0.3 -  RELEASE  -


 With contributions from (in alphabetic order):
   Daniel Aravena         : Magnetic Suceptibility
   Michael Atanasov       : Ab Initio Ligand Field Theory (pilot matlab implementation)
   Alexander A. Auer      : GIAO ZORA, VPT2 properties, NMR spectrum
   Ute Becker             : Parallelization
   Giovanni Bistoni       : ED, misc. LED, open-shell LED, HFLD
   Martin Brehm           : Molecular dynamics
   Dmytro Bykov           : SCF Hessian
   Vijay G. Chilkuri      : MRCI spin determinant printing, contributions to CSF-ICE
   Dipayan Datta          : RHF DLPNO-CCSD density
   Achintya Kumar Dutta   : EOM-CC, STEOM-CC
   Dmitry Ganyushin       : Spin-Orbit,Spin-Spin,Magnetic field MRCI
   Miquel Garcia          : C-PCM and meta-GGA Hessian, CC/C-PCM, Gaussian charge scheme
   Yang Guo               : DLPNO-NEVPT2, F12-NEVPT2, CIM, IAO-localization
   Andreas Hansen         : Spin unrestricted coupled pair/coupled cluster methods
   Benjamin Helmich-Paris : MC-RPA, TRAH-SCF, COSX integrals
   Lee Huntington         : MR-EOM, pCC
   Robert Izsak           : Overlap fitted RIJCOSX, COSX-SCS-MP3, EOM
   Marcus Kettner         : VPT2
   Christian Kollmar      : KDIIS, OOCD, Brueckner-CCSD(T), CCSD density, CASPT2, CASPT2-K
   Simone Kossmann        : Meta GGA functionals, TD-DFT gradient, OOMP2, MP2 Hessian
   Martin Krupicka        : Initial AUTO-CI
   Lucas Lang             : DCDCAS
   Marvin Lechner         : AUTO-CI (C++ implementation), FIC-MRCC
   Dagmar Lenk            : GEPOL surface, SMD
   Dimitrios Liakos       : Extrapolation schemes; Compound Job, initial MDCI parallelization
   Dimitrios Manganas     : Further ROCIS development; embedding schemes
   Dimitrios Pantazis     : SARC Basis sets
   Anastasios Papadopoulos: AUTO-CI, single reference methods and gradients
   Taras Petrenko         : DFT Hessian,TD-DFT gradient, ASA, ECA, R-Raman, ABS, FL, XAS/XES, NRVS
   Peter Pinski           : DLPNO-MP2, DLPNO-MP2 Gradient
   Christoph Reimann      : Effective Core Potentials
   Marius Retegan         : Local ZFS, SOC
   Christoph Riplinger    : Optimizer, TS searches, QM/MM, DLPNO-CCSD(T), (RO)-DLPNO pert. Triples
   Tobias Risthaus        : Range-separated hybrids, TD-DFT gradient, RPA, STAB
   Michael Roemelt        : Original ROCIS implementation
   Masaaki Saitow         : Open-shell DLPNO-CCSD energy and density
   Barbara Sandhoefer     : DKH picture change effects
   Avijit Sen             : IP-ROCIS
   Kantharuban Sivalingam : CASSCF convergence, NEVPT2, FIC-MRCI
   Bernardo de Souza      : ESD, SOC TD-DFT
   Georgi Stoychev        : AutoAux, RI-MP2 NMR, DLPNO-MP2 response
   Willem Van den Heuvel  : Paramagnetic NMR
   Boris Wezisla          : Elementary symmetry handling
   Frank Wennmohs         : Technical directorship


 We gratefully acknowledge several colleagues who have allowed us to
 interface, adapt or use parts of their codes:
   Stefan Grimme, W. Hujo, H. Kruse, P. Pracht,  : VdW corrections, initial TS optimization,
                  C. Bannwarth, S. Ehlert          DFT functionals, gCP, sTDA/sTD-DF
   Ed Valeev, F. Pavosevic, A. Kumar             : LibInt (2-el integral package), F12 methods
   Garnet Chan, S. Sharma, J. Yang, R. Olivares  : DMRG
   Ulf Ekstrom                                   : XCFun DFT Library
   Mihaly Kallay                                 : mrcc  (arbitrary order and MRCC methods)
   Jiri Pittner, Ondrej Demel                    : Mk-CCSD
   Frank Weinhold                                : gennbo (NPA and NBO analysis)
   Christopher J. Cramer and Donald G. Truhlar   : smd solvation model
   Lars Goerigk                                  : TD-DFT with DH, B97 family of functionals
   V. Asgeirsson, H. Jonsson                     : NEB implementation
   FAccTs GmbH                                   : IRC, NEB, NEB-TS, DLPNO-Multilevel, CI-OPT
                                                   MM, QMMM, 2- and 3-layer-ONIOM, Crystal-QMMM,
                                                   LR-CPCM, SF, NACMEs, symmetry and pop. for TD-DFT,
                                                   nearIR, NL-DFT gradient (VV10), updates on ESD,
                                                   ML-optimized integration grids
   S Lehtola, MJT Oliveira, MAL Marques          : LibXC Library
   Liviu Ungur et al                             : ANISO software


 Your calculation uses the libint2 library for the computation of 2-el integrals
 For citations please refer to: http://libint.valeyev.net

 Your ORCA version has been built with support for libXC version: 5.1.0
 For citations please refer to: https://tddft.org/programs/libxc/

 This ORCA versions uses:
   CBLAS   interface :  Fast vector & matrix operations
   LAPACKE interface :  Fast linear algebra routines
   SCALAPACK package :  Parallel linear algebra routines
   Shared memory     :  Shared parallel matrices
   BLAS/LAPACK       :  OpenBLAS 0.3.15  USE64BITINT DYNAMIC_ARCH NO_AFFINITY Haswell SINGLE_THREADED
        Core in use  :  Haswell
   Copyright (c) 2011-2014, The OpenBLAS Project




***************************************
The coordinates will be read from file: MeI_NH3.xyz
***************************************


Your calculation utilizes the geometrical counterpoise correction gCP
Please cite in your paper:
H.Kruse, S. Grimme J.Chem.Phys., 136, (2012), 154101 
   

Your calculation utilizes the atom-pairwise dispersion correction
with the Becke-Johnson damping scheme (D3BJ)
Cite in your paper:
S.Grimme, S.Ehrlich, L.Goerigk, J Comput Chem, (2011), 32, 1456–1465 
S.Grimme, J.Antony, S.Ehrlich and H.Krieg, J.Chem.Phys., 132, (2010), 154104 
   

Your calculation employs the composite approach PBEh-3c.
Please cite in your paper:
S. Grimme, J. G. Brandenburg, C. Bannwarth, A. Hansen J.Chem.Phys., 143, (2015), 054107 
   

================================================================================

cite the ECPs for I  [Def2-ECP] as follows:
Ce-Yb(ecp-28): M. Dolg, H. Stoll, H.Preuss, J. Chem. Phys., 1989, 90, 1730-1734.
Y-Cd(ecp-28), Hf-Hg(ecp-46): D. Andrae,U. Haeussermann, M. Dolg, H. Stoll, H. Preuss, Theor. Chim. Acta, 1990, 77, 123-141.
In-Sb(ecp-28), Tl-Bi(ecp-46): B. Metz, H. Stoll, M. Dolg, J. Chem. Phys., 2000, 113, 2563-2569.
Te-Xe(ecp-28), Po-Rn(ecp-46): K. A. Peterson, D. Figgen, E. Goll, H. Stoll, M. Dolg, J. Chem. Phys., 2003, 119, 11113-11123.
Rb(ecp-28), Cs(ecp-46): T. Leininger, A. Nicklass, W. Kuechle, H. Stoll, M. Dolg, A. Bergner, Chem. Phys. Lett., 1996, 255, 274-280.
Sr(ecp-28), Ba(ecp-46): M. Kaupp, P. V. Schleyer, H. Stoll and H. Preuss, J. Chem. Phys., 1991, 94, 1360-1366.
La(ecp-46): M. Dolg, H. Stoll, A. Savin, H. Preuss, Theor. Chim. Acta, 1989, 75, 173-194.
Lu(ecp-28): X. Cao, M. Dolg, J. Chem. Phys., 2001, 115, 7348-7355.

ECP parameters for I  [Def2-ECP] have been obtained from:
TURBOMOLE (7.0.2)

----- Orbital basis set information -----
Your calculation utilizes the basis: def2-mSVP

----- AuxJ basis set information -----
Your calculation utilizes the auxiliary basis: def2/J
   F. Weigend, Phys. Chem. Chem. Phys. 8, 1057 (2006).

================================================================================
                                        WARNINGS
                       Please study these warnings very carefully!
================================================================================


INFO   : the flag for use of the SHARK integral package has been found!

================================================================================
                                       INPUT FILE
================================================================================
NAME = pbeh-3c.inp
|  1> ! PBEh-3c def2/J TightSCF DefGrid3
|  2> 
|  3> %maxcore 60000
|  4> 
|  5> %pal
|  6> nprocs 4
|  7> end
|  8> 
|  9> *xyzfile 0 1 MeI_NH3.xyz
| 10> 
| 11>                          ****END OF INPUT****
================================================================================

                       ****************************
                       * Single Point Calculation *
                       ****************************

---------------------------------
CARTESIAN COORDINATES (ANGSTROEM)
---------------------------------
  C      0.000000    0.000000    2.313014
  I      0.000000    0.000000    0.180166
  H      0.000000    1.028303    2.657744
  H      0.890536   -0.514151    2.657744
  H     -0.890536   -0.514151    2.657744
  H      0.000000   -0.942243   -3.396054
  H      0.816006    0.471121   -3.396054
  H     -0.816006    0.471121   -3.396054
  N      0.000000    0.000000   -3.030275

----------------------------
CARTESIAN COORDINATES (A.U.)
----------------------------
  NO LB      ZA    FRAG     MASS         X           Y           Z
   0 C     6.0000    0    12.011    0.000000    0.000000    4.370963
   1 I    25.0000*   0   126.900    0.000000    0.000000    0.340464
   2 H     1.0000    0     1.008    0.000000    1.943211    5.022408
   3 H     1.0000    0     1.008    1.682869   -0.971605    5.022408
   4 H     1.0000    0     1.008   -1.682869   -0.971605    5.022408
   5 H     1.0000    0     1.008    0.000000   -1.780581   -6.417612
   6 H     1.0000    0     1.008    1.542028    0.890290   -6.417612
   7 H     1.0000    0     1.008   -1.542028    0.890290   -6.417612
   8 N     7.0000    0    14.007    0.000000    0.000000   -5.726389
* core charge reduced due to ECP

--------------------------------
INTERNAL COORDINATES (ANGSTROEM)
--------------------------------
 C      0   0   0     0.000000000000     0.00000000     0.00000000
 I      1   0   0     2.132847800000     0.00000000     0.00000000
 H      1   2   0     1.084548582152   108.53329902     0.00000000
 H      1   2   3     1.084547930195   108.53331057   240.00000683
 H      1   2   3     1.084547930195   108.53331057   119.99999317
 H      2   1   3     3.698265774726   165.23947058   180.00000000
 H      6   2   1     1.632011992192    77.25304104   210.83945963
 H      7   6   2     1.632011800000    60.00000390   277.50477369
 N      7   6   2     1.010749673419    36.16439542   315.33056477

---------------------------
INTERNAL COORDINATES (A.U.)
---------------------------
 C      0   0   0     0.000000000000     0.00000000     0.00000000
 I      1   0   0     4.030498227336     0.00000000     0.00000000
 H      1   2   0     2.049499799200   108.53329902     0.00000000
 H      1   2   3     2.049498567179   108.53331057   240.00000683
 H      1   2   3     2.049498567179   108.53331057   119.99999317
 H      2   1   3     6.988709484687   165.23947058   180.00000000
 H      6   2   1     3.084055712518    77.25304104   210.83945963
 H      7   6   2     3.084055349328    60.00000390   277.50477369
 N      7   6   2     1.910040072712    36.16439542   315.33056477

---------------------
BASIS SET INFORMATION
---------------------
There are 4 groups of distinct atoms

 Group   1 Type C   : 8s4p1d contracted to 4s2p1d pattern {5111/31/1}
 Group   2 Type I   : 10s7p6d contracted to 4s4p2d pattern {6211/4111/51}
 Group   3 Type H   : 4s contracted to 2s pattern {31}
 Group   4 Type N   : 8s4p1d contracted to 4s2p1d pattern {5111/31/1}

Atom   0C    basis set group =>   1
Atom   1I    basis set group =>   2
Atom   2H    basis set group =>   3
Atom   3H    basis set group =>   3
Atom   4H    basis set group =>   3
Atom   5H    basis set group =>   3
Atom   6H    basis set group =>   3
Atom   7H    basis set group =>   3
Atom   8N    basis set group =>   4
---------------------------------
AUXILIARY/J BASIS SET INFORMATION
---------------------------------
There are 4 groups of distinct atoms

 Group   1 Type C   : 12s5p4d2f1g contracted to 6s4p3d1f1g pattern {711111/2111/211/2/1}
 Group   2 Type I   : 11s5p5d3f1g contracted to 8s4p3d2f1g pattern {41111111/2111/311/21/1}
 Group   3 Type H   : 5s2p1d contracted to 3s1p1d pattern {311/2/1}
 Group   4 Type N   : 12s5p4d2f1g contracted to 6s4p3d1f1g pattern {711111/2111/211/2/1}

Atom   0C    basis set group =>   1
Atom   1I    basis set group =>   2
Atom   2H    basis set group =>   3
Atom   3H    basis set group =>   3
Atom   4H    basis set group =>   3
Atom   5H    basis set group =>   3
Atom   6H    basis set group =>   3
Atom   7H    basis set group =>   3
Atom   8N    basis set group =>   4
-------------------------
ECP PARAMETER INFORMATION
-------------------------

 Group 1, Type I  ECP Def2-ECP (replacing 28 core electrons, lmax=3)

Atom   1I    ECP group =>   1



           ************************************************************
           *        Program running with 4 parallel MPI-processes     *
           *              working on a common directory               *
           ************************************************************
------------------------------------------------------------------------------
                           ORCA GTO INTEGRAL CALCULATION
                           -- RI-GTO INTEGRALS CHOSEN --
------------------------------------------------------------------------------
------------------------------------------------------------------------------
                   ___                                                        
                  /   \      - P O W E R E D   B Y -                         
                 /     \                                                     
                 |  |  |   _    _      __       _____    __    __             
                 |  |  |  | |  | |    /  \     |  _  \  |  |  /  |          
                  \  \/   | |  | |   /    \    | | | |  |  | /  /          
                 / \  \   | |__| |  /  /\  \   | |_| |  |  |/  /          
                |  |  |   |  __  | /  /__\  \  |    /   |      \           
                |  |  |   | |  | | |   __   |  |    \   |  |\   \          
                \     /   | |  | | |  |  |  |  | |\  \  |  | \   \       
                 \___/    |_|  |_| |__|  |__|  |_| \__\ |__|  \__/        
                                                                              
                      - O R C A' S   B I G   F R I E N D -                    
                                      &                                       
                       - I N T E G R A L  F E E D E R -                       
                                                                              
 v1 FN, 2020, v2 2021                                                         
------------------------------------------------------------------------------


Reading SHARK input file pbeh-3c.SHARKINP.tmp ... ok
----------------------
SHARK INTEGRAL PACKAGE
----------------------

Number of atoms                             ...      9
Number of basis functions                   ...     68
Number of shells                            ...     36
Maximum angular momentum                    ...      2
Integral batch strategy                     ... SHARK/LIBINT Hybrid
RI-J (if used) integral strategy            ... SPLIT-RIJ (Revised 2003 algorithm where possible)
Printlevel                                  ...      1
Contraction scheme used                     ... SEGMENTED contraction
Coulomb Range Separation                    ... NOT USED
Exchange Range Separation                   ... NOT USED
Finite Nucleus Model                        ... NOT USED
Auxiliary Coulomb fitting basis             ... AVAILABLE
   # of basis functions in Aux-J            ...    222
   # of shells in Aux-J                     ...     78
   Maximum angular momentum in Aux-J        ...      4
Auxiliary J/K fitting basis                 ... NOT available
Auxiliary Correlation fitting basis         ... NOT available
Auxiliary 'external' fitting basis          ... NOT available
Integral threshold                          ...     2.500000e-11
Primitive cut-off                           ...     2.500000e-12
Primitive pair pre-selection threshold      ...     2.500000e-12

Calculating pre-screening integrals         ... done (  0.1 sec) Dimension = 36
Organizing shell pair data                  ... done (  0.7 sec)
Shell pair information
Total number of shell pairs                 ...       666
Shell pairs after pre-screening             ...       594
Total number of primitive shell pairs       ...      2777
Primitive shell pairs kept                  ...      1890
          la=0 lb=0:    260 shell pairs
          la=1 lb=0:    177 shell pairs
          la=1 lb=1:     35 shell pairs
          la=2 lb=0:     83 shell pairs
          la=2 lb=1:     30 shell pairs
          la=2 lb=2:      9 shell pairs

Calculating one electron integrals          ... done (  0.0 sec)
Calculating ECP integrals                   ... done (  0.1 sec)
Calculating RI/J V-Matrix + Cholesky decomp.... done (  0.3 sec)
Calculating Nuclear repulsion               ... done (  0.1 sec) ENN=    121.724814455838 Eh

SHARK setup successfully completed in   2.2 seconds

Maximum memory used throughout the entire GTOINT-calculation: 10.2 MB


           ************************************************************
           *        Program running with 4 parallel MPI-processes     *
           *              working on a common directory               *
           ************************************************************
-------------------------------------------------------------------------------
                                 ORCA SCF
-------------------------------------------------------------------------------

------------
SCF SETTINGS
------------
Hamiltonian:
 Density Functional     Method          .... DFT(GTOs)
 Exchange Functional    Exchange        .... PBE
   PBE kappa parameter   XKappa         ....  1.024500
   PBE mue parameter    XMuePBE         ....  0.123457
 Correlation Functional Correlation     .... PBE
   PBE beta parameter  CBetaPBE         ....  0.030000
 LDA part of GGA corr.  LDAOpt          .... PW91-LDA
 Gradients option       PostSCFGGA      .... off
 Hybrid DFT is turned on
   Fraction HF Exchange ScalHFX         ....  0.420000
   Scaling of DF-GGA-X  ScalDFX         ....  0.580000
   Scaling of DF-GGA-C  ScalDFC         ....  1.000000
   Scaling of DF-LDA-C  ScalLDAC        ....  1.000000
   Perturbative correction              ....  0.000000
   Density functional embedding theory  .... OFF
 RI-approximation to the Coulomb term is turned on
   Number of AuxJ basis functions       .... 222
   RIJ-ON(X) (HFX calculated with O(N)) .... on
   Number of AuxJ basis functions       .... 222
   RIJ-COSX (HFX calculated with COS-X)).... on


General Settings:
 Integral files         IntName         .... pbeh-3c
 Hartree-Fock type      HFTyp           .... RHF
 Total Charge           Charge          ....    0
 Multiplicity           Mult            ....    1
 Number of Electrons    NEL             ....   44
 Basis Dimension        Dim             ....   68
 Nuclear Repulsion      ENuc            ....    121.7248144558 Eh

Convergence Acceleration:
 DIIS                   CNVDIIS         .... on
   Start iteration      DIISMaxIt       ....    12
   Startup error        DIISStart       ....  0.200000
   # of expansion vecs  DIISMaxEq       ....     5
   Bias factor          DIISBfac        ....   1.050
   Max. coefficient     DIISMaxC        ....  10.000
 Trust-Rad. Augm. Hess. CNVTRAH         .... auto
   Auto Start mean grad. ratio tolernc. ....  1.125000
   Auto Start start iteration           ....    20
   Auto Start num. interpolation iter.  ....    10
   Max. Number of Micro iterations      ....    16
   Max. Number of Macro iterations      .... Maxiter - #DIIS iter
   Number of Davidson start vectors     ....     2
   Converg. threshold I  (grad. norm)   ....   1.000e-05
   Converg. threshold II (energy diff.) ....   1.000e-08
   Grad. Scal. Fac. for Micro threshold ....   0.100
   Minimum threshold for Micro iter.    ....   0.010
   NR start threshold (gradient norm)   ....   0.001
   Initial trust radius                 ....   0.400
   Minimum AH scaling param. (alpha)    ....   1.000
   Maximum AH scaling param. (alpha)    .... 1000.000
   Orbital update algorithm             .... Taylor
   White noise on init. David. guess    .... on
   Maximum white noise                  ....   0.010
   Quad. conv. algorithm                .... NR
   COSX micro iterations for RIJONX calc.... off
 SOSCF                  CNVSOSCF        .... on
   Start iteration      SOSCFMaxIt      ....   150
   Startup grad/error   SOSCFStart      ....  0.003300
 Level Shifting         CNVShift        .... on
   Level shift para.    LevelShift      ....    0.2500
   Turn off err/grad.   ShiftErr        ....    0.0010
 Zerner damping         CNVZerner       .... off
 Static damping         CNVDamp         .... on
   Fraction old density DampFac         ....    0.7000
   Max. Damping (<1)    DampMax         ....    0.9800
   Min. Damping (>=0)   DampMin         ....    0.0000
   Turn off err/grad.   DampErr         ....    0.1000
 Fernandez-Rico         CNVRico         .... off

SCF Procedure:
 Maximum # iterations   MaxIter         ....   125
 SCF integral mode      SCFMode         .... Direct
   Integral package                     .... SHARK and LIBINT hybrid scheme
 Reset frequency        DirectResetFreq ....    20
 Integral Threshold     Thresh          ....  2.500e-11 Eh
 Primitive CutOff       TCut            ....  2.500e-12 Eh

Convergence Tolerance:
 Convergence Check Mode ConvCheckMode   .... Total+1el-Energy
 Convergence forced     ConvForced      .... 0
 Energy Change          TolE            ....  1.000e-08 Eh
 1-El. energy change                    ....  1.000e-05 Eh
 Orbital Gradient       TolG            ....  1.000e-05
 Orbital Rotation angle TolX            ....  1.000e-05
 DIIS Error             TolErr          ....  5.000e-07


Diagonalization of the overlap matrix:
Smallest eigenvalue                        ... 1.999e-02
Time for diagonalization                   ...    0.002 sec
Threshold for overlap eigenvalues          ... 1.000e-08
Number of eigenvalues below threshold      ... 0
Time for construction of square roots      ...    0.246 sec
Total time needed                          ...    0.248 sec

--------------------------------
INITIAL GUESS: MINIMAL BASIS EHT
--------------------------------
The minimal basis has 29 functions
EHT matrix was diagonalized
Basis set overlap was calculated now projecting the orbitals
Using GuessMode=FMatrix for the initial guess
C*T matrix was formed
Effective Fockian was calculated
Effective Fockian was diagonalized
Initial density was built
                      ------------------
                      INITIAL GUESS DONE
                      ------------------
-------------------
DFT GRID GENERATION
-------------------

General Integration Accuracy     IntAcc      ... 4.959
Radial Grid Type                 RadialGrid  ... OptM3 with GC (2021)
Angular Grid (max. ang.)         AngularGrid ... 6 (Lebedev-590)
Angular grid pruning method      GridPruning ... 4 (adaptive)
Weight generation scheme         WeightScheme... Becke
Basis function cutoff            BFCut       ... 1.0000e-11
Integration weight cutoff        WCut        ... 1.0000e-14
Angular grids for H and He will be reduced by one unit
Partially contracted basis set               ... off
Rotationally invariant grid construction     ... off

Total number of grid points                  ...   107298
Total number of batches                      ...     1680
Average number of points per batch           ...       63
Average number of grid points per atom       ...    11922
Time for grid setup =    2.146 sec

--------------------
COSX GRID GENERATION
--------------------

GRIDX 1
-------
General Integration Accuracy     IntAcc      ... 4.020
Radial Grid Type                 RadialGrid  ... OptM3 with GC (2021)
Angular Grid (max. ang.)         AngularGrid ... 2 (Lebedev-110)
Angular grid pruning method      GridPruning ... 4 (adaptive)
Weight generation scheme         WeightScheme... Becke
Basis function cutoff            BFCut       ... 1.0000e-11
Integration weight cutoff        WCut        ... 1.0000e-14
Angular grids for H and He will be reduced by one unit
Partially contracted basis set               ... on
Rotationally invariant grid construction     ... off

Total number of grid points                  ...    11482
Total number of batches                      ...      186
Average number of points per batch           ...       61
Average number of grid points per atom       ...     1276
UseSFitting                                  ... on

GRIDX 2
-------
General Integration Accuracy     IntAcc      ... 4.338
Radial Grid Type                 RadialGrid  ... OptM3 with GC (2021)
Angular Grid (max. ang.)         AngularGrid ... 3 (Lebedev-194)
Angular grid pruning method      GridPruning ... 4 (adaptive)
Weight generation scheme         WeightScheme... Becke
Basis function cutoff            BFCut       ... 1.0000e-11
Integration weight cutoff        WCut        ... 1.0000e-14
Angular grids for H and He will be reduced by one unit
Partially contracted basis set               ... on
Rotationally invariant grid construction     ... off

Total number of grid points                  ...    24578
Total number of batches                      ...      389
Average number of points per batch           ...       63
Average number of grid points per atom       ...     2731
UseSFitting                                  ... on

GRIDX 3
-------
General Integration Accuracy     IntAcc      ... 4.871
Radial Grid Type                 RadialGrid  ... OptM3 with GC (2021)
Angular Grid (max. ang.)         AngularGrid ... 4 (Lebedev-302)
Angular grid pruning method      GridPruning ... 4 (adaptive)
Weight generation scheme         WeightScheme... Becke
Basis function cutoff            BFCut       ... 1.0000e-11
Integration weight cutoff        WCut        ... 1.0000e-14
Angular grids for H and He will be reduced by one unit
Partially contracted basis set               ... on
Rotationally invariant grid construction     ... off

Total number of grid points                  ...    48908
Total number of batches                      ...      770
Average number of points per batch           ...       63
Average number of grid points per atom       ...     5434
UseSFitting                                  ... on

Time for X-Grid setup             =    3.854 sec

--------------
SCF ITERATIONS
--------------
ITER       Energy         Delta-E        Max-DP      RMS-DP      [F,P]     Damp
               ***  Starting incremental Fock matrix formation  ***
  0   -392.1460461080   0.000000000000 0.26865770  0.01128354  1.4549815 0.7000
  1   -392.7062932145  -0.560247106465 0.21509946  0.00813087  1.0068324 0.7000
  2   -393.0920276998  -0.385734485356 0.18134630  0.00594290  0.6978526 0.7000
  3   -393.3625890301  -0.270561330254 0.14776385  0.00439497  0.4843592 0.7000
  4   -393.5533310698  -0.190742039742 0.11713450  0.00326681  0.3411393 0.7000
  5   -393.6877170380  -0.134385968150 0.09117936  0.00243125  0.2417954 0.7000
                               ***Turning on DIIS***
  6   -393.7822797788  -0.094562740821 0.07016874  0.00180988  0.1713514 0.7000
  7   -393.8487537051  -0.066473926336 0.05849569  0.00143603  0.1214193 0.7000
  8   -393.8954513062  -0.046697601095 0.15077215  0.00363123  0.0853855 0.0000
                      *** Initiating the SOSCF procedure ***
                           *** Shutting down DIIS ***
                      *** Re-Reading the Fockian *** 
                      *** Removing any level shift *** 
ITER      Energy       Delta-E        Grad      Rot      Max-DP    RMS-DP
  9   -394.00507556  -0.1096242528  0.001361  0.001361  0.007217  0.000181
               *** Restarting incremental Fock matrix formation ***
 10   -394.00509476  -0.0000192030  0.000738  0.001629  0.002941  0.000113
 11   -394.00509958  -0.0000048186  0.000177  0.000625  0.001134  0.000042
 12   -394.00509984  -0.0000002592  0.000092  0.000116  0.000233  0.000010
 13   -394.00509999  -0.0000001465  0.000021  0.000066  0.000115  0.000004
 14   -394.00509999  -0.0000000080  0.000006  0.000008  0.000013  0.000001
 15   -394.00509999   0.0000000000  0.000005  0.000006  0.000011  0.000000
                  ***Gradient check signals convergence***
              ***Rediagonalizing the Fockian in SOSCF/NRSCF***

               *****************************************************
               *                     SUCCESS                       *
               *           SCF CONVERGED AFTER  16 CYCLES          *
               *****************************************************

Old exchange energy                            =    -14.734941555 Eh
New exchange energy                            =    -14.734947085 Eh
Exchange energy change after final integration =     -0.000005530 Eh
Total energy after final integration           =   -394.005105523 Eh
Final COS-X integration done in                =     0.967 sec

----------------
TOTAL SCF ENERGY
----------------

Total Energy       :         -394.00510552 Eh          -10721.42399 eV

Components:
Nuclear Repulsion  :          121.72481446 Eh            3312.30060 eV
Electronic Energy  :         -515.72991998 Eh          -14033.72458 eV
One Electron Energy:         -890.24550774 Eh          -24224.81183 eV
Two Electron Energy:          374.51558776 Eh           10191.08725 eV
Max COSX asymmetry :            0.00000077 Eh               0.00002 eV

Virial components:
Potential Energy   :         -603.13023540 Eh          -16412.00808 eV
Kinetic Energy     :          209.12512988 Eh            5690.58409 eV
Virial Ratio       :            2.88406389


DFT components:
N(Alpha)           :       22.000000536437 electrons
N(Beta)            :       22.000000536437 electrons
N(Total)           :       44.000001072874 electrons
E(X)               :      -19.742685070429 Eh       
E(C)               :       -2.176742565732 Eh       
E(XC)              :      -21.919427636161 Eh       
DFET-embed. en.    :        0.000000000000 Eh       

---------------
SCF CONVERGENCE
---------------

  Last Energy change         ...    1.3973e-09  Tolerance :   1.0000e-08
  Last MAX-Density change    ...    4.8850e-15  Tolerance :   1.0000e-07
  Last RMS-Density change    ...    1.2843e-16  Tolerance :   5.0000e-09
  Last Orbital Gradient      ...    7.7970e-07  Tolerance :   1.0000e-05
  Last Orbital Rotation      ...    2.0028e-06  Tolerance :   1.0000e-05

             **** THE GBW FILE WAS UPDATED (pbeh-3c.gbw) ****
             **** DENSITY pbeh-3c.scfp WAS UPDATED ****
             **** ENERGY FILE WAS UPDATED (pbeh-3c.en.tmp) ****
             **** THE GBW FILE WAS UPDATED (pbeh-3c.gbw) ****
             **** DENSITY pbeh-3c.scfp WAS UPDATED ****
----------------
ORBITAL ENERGIES
----------------

  NO   OCC          E(Eh)            E(eV) 
   0   2.0000     -14.613785      -397.6613 
   1   2.0000     -10.461175      -284.6630 
   2   2.0000      -7.064225      -192.2273 
   3   2.0000      -5.047575      -137.3515 
   4   2.0000      -5.031018      -136.9010 
   5   2.0000      -5.031018      -136.9010 
   6   2.0000      -2.001277       -54.4575 
   7   2.0000      -1.996140       -54.3177 
   8   2.0000      -1.996140       -54.3177 
   9   2.0000      -1.981836       -53.9285 
  10   2.0000      -1.981834       -53.9284 
  11   2.0000      -0.949718       -25.8431 
  12   2.0000      -0.817105       -22.2346 
  13   2.0000      -0.691044       -18.8043 
  14   2.0000      -0.527333       -14.3495 
  15   2.0000      -0.527332       -14.3494 
  16   2.0000      -0.477943       -13.0055 
  17   2.0000      -0.477943       -13.0055 
  18   2.0000      -0.388772       -10.5790 
  19   2.0000      -0.315256        -8.5786 
  20   2.0000      -0.276371        -7.5204 
  21   2.0000      -0.276371        -7.5204 
  22   0.0000       0.034939         0.9507 
  23   0.0000       0.137462         3.7405 
  24   0.0000       0.174812         4.7569 
  25   0.0000       0.200104         5.4451 
  26   0.0000       0.200105         5.4451 
  27   0.0000       0.216989         5.9046 
  28   0.0000       0.216989         5.9046 
  29   0.0000       0.353422         9.6171 
  30   0.0000       0.440761        11.9937 
  31   0.0000       0.440761        11.9937 
  32   0.0000       0.462087        12.5740 
  33   0.0000       0.462093        12.5742 
  34   0.0000       0.469800        12.7839 
  35   0.0000       0.499090        13.5809 
  36   0.0000       0.499095        13.5811 
  37   0.0000       0.552771        15.0417 
  38   0.0000       0.649331        17.6692 
  39   0.0000       0.649338        17.6694 
  40   0.0000       0.745165        20.2770 
  41   0.0000       0.766158        20.8482 
  42   0.0000       0.766159        20.8483 
  43   0.0000       0.923629        25.1332 
  44   0.0000       1.025952        27.9176 
  45   0.0000       1.025953        27.9176 
  46   0.0000       1.038674        28.2638 
  47   0.0000       1.038675        28.2638 
  48   0.0000       1.044357        28.4184 
  49   0.0000       1.080003        29.3884 
  50   0.0000       1.237976        33.6870 
  51   0.0000       1.444290        39.3011 
  52   0.0000       1.721575        46.8464 
  53   0.0000       1.721575        46.8464 
  54   0.0000       1.745859        47.5072 
  55   0.0000       1.745859        47.5072 
  56   0.0000       2.045547        55.6622 
  57   0.0000       2.081977        56.6535 
  58   0.0000       2.303010        62.6681 
  59   0.0000       2.303016        62.6683 
  60   0.0000       2.493968        67.8643 
  61   0.0000       2.493972        67.8644 
  62   0.0000      13.682769       372.3271 
  63   0.0000      18.728116       509.6179 
  64   0.0000      18.728116       509.6179 
  65   0.0000      18.959238       515.9071 
  66   0.0000      19.132652       520.6259 
  67   0.0000      56.003177      1523.9239 

                    ********************************
                    * MULLIKEN POPULATION ANALYSIS *
                    ********************************

-----------------------
MULLIKEN ATOMIC CHARGES
-----------------------
   0 C :   -0.833170
   1 I :    0.011695
   2 H :    0.258213
   3 H :    0.258212
   4 H :    0.258212
   5 H :    0.330039
   6 H :    0.330044
   7 H :    0.330044
   8 N :   -0.943288
Sum of atomic charges:    0.0000000

--------------------------------
MULLIKEN REDUCED ORBITAL CHARGES
--------------------------------
  0 C s       :     3.469447  s :     3.469447
      pz      :     0.979234  p :     3.332069
      px      :     1.176420
      py      :     1.176415
      dz2     :     0.006284  d :     0.031655
      dxz     :     0.005485
      dyz     :     0.005485
      dx2y2   :     0.007201
      dxy     :     0.007200
  1 I s       :     3.967966  s :     3.967966
      pz      :     3.000623  p :    10.968564
      px      :     3.983969
      py      :     3.983972
      dz2     :     2.038883  d :    10.051775
      dxz     :     2.006395
      dyz     :     2.006395
      dx2y2   :     2.000051
      dxy     :     2.000051
  2 H s       :     0.741787  s :     0.741787
  3 H s       :     0.741788  s :     0.741788
  4 H s       :     0.741788  s :     0.741788
  5 H s       :     0.669961  s :     0.669961
  6 H s       :     0.669956  s :     0.669956
  7 H s       :     0.669956  s :     0.669956
  8 N s       :     3.661840  s :     3.661840
      pz      :     1.793752  p :     4.250039
      px      :     1.228144
      py      :     1.228143
      dz2     :     0.001492  d :     0.031409
      dxz     :     0.009451
      dyz     :     0.009451
      dx2y2   :     0.005508
      dxy     :     0.005508


                     *******************************
                     * LOEWDIN POPULATION ANALYSIS *
                     *******************************

----------------------
LOEWDIN ATOMIC CHARGES
----------------------
   0 C :   -0.511988
   1 I :    0.041480
   2 H :    0.140961
   3 H :    0.140961
   4 H :    0.140961
   5 H :    0.224722
   6 H :    0.224724
   7 H :    0.224724
   8 N :   -0.626545

-------------------------------
LOEWDIN REDUCED ORBITAL CHARGES
-------------------------------
  0 C s       :     3.042072  s :     3.042072
      pz      :     1.061662  p :     3.415685
      px      :     1.177013
      py      :     1.177011
      dz2     :     0.012511  d :     0.054230
      dxz     :     0.009569
      dyz     :     0.009569
      dx2y2   :     0.011291
      dxy     :     0.011291
  1 I s       :     3.875016  s :     3.875016
      pz      :     3.064480  p :    11.008525
      px      :     3.972021
      py      :     3.972023
      dz2     :     2.057432  d :    10.074979
      dxz     :     2.008723
      dyz     :     2.008723
      dx2y2   :     2.000051
      dxy     :     2.000051
  2 H s       :     0.859039  s :     0.859039
  3 H s       :     0.859039  s :     0.859039
  4 H s       :     0.859039  s :     0.859039
  5 H s       :     0.775278  s :     0.775278
  6 H s       :     0.775276  s :     0.775276
  7 H s       :     0.775276  s :     0.775276
  8 N s       :     3.304906  s :     3.304906
      pz      :     1.793616  p :     4.276264
      px      :     1.241325
      py      :     1.241324
      dz2     :     0.001782  d :     0.045375
      dxz     :     0.011567
      dyz     :     0.011567
      dx2y2   :     0.010230
      dxy     :     0.010230


                      *****************************
                      * MAYER POPULATION ANALYSIS *
                      *****************************

  NA   - Mulliken gross atomic population
  ZA   - Total nuclear charge
  QA   - Mulliken gross atomic charge
  VA   - Mayer's total valence
  BVA  - Mayer's bonded valence
  FA   - Mayer's free valence

  ATOM       NA         ZA         QA         VA         BVA        FA
  0 C      6.8332     6.0000    -0.8332     3.7179     3.7179     0.0000
  1 I     24.9883    25.0000     0.0117     1.0640     1.0640     0.0000
  2 H      0.7418     1.0000     0.2582     0.8878     0.8878     0.0000
  3 H      0.7418     1.0000     0.2582     0.8878     0.8878     0.0000
  4 H      0.7418     1.0000     0.2582     0.8878     0.8878     0.0000
  5 H      0.6700     1.0000     0.3300     0.8606     0.8606     0.0000
  6 H      0.6700     1.0000     0.3300     0.8606     0.8606     0.0000
  7 H      0.6700     1.0000     0.3300     0.8606     0.8606     0.0000
  8 N      7.9433     7.0000    -0.9433     2.6985     2.6985     0.0000

  Mayer bond orders larger than 0.100000
B(  0-C ,  1-I ) :   0.9949 B(  0-C ,  2-H ) :   0.9018 B(  0-C ,  3-H ) :   0.9018 
B(  0-C ,  4-H ) :   0.9018 B(  5-H ,  8-N ) :   0.8699 B(  6-H ,  8-N ) :   0.8699 
B(  7-H ,  8-N ) :   0.8699 

-------
TIMINGS
-------

Total SCF time: 0 days 0 hours 1 min 35 sec 

Total time                  ....      95.796 sec
Sum of individual times     ....      82.406 sec  ( 86.0%)

Fock matrix formation       ....      68.116 sec  ( 71.1%)
  Split-RI-J                ....       8.886 sec  ( 13.0% of F)
  Chain of spheres X        ....      12.418 sec  ( 18.2% of F)
  XC integration            ....      20.871 sec  ( 30.6% of F)
    Basis function eval.    ....       1.183 sec  (  5.7% of XC)
    Density eval.           ....       0.882 sec  (  4.2% of XC)
    XC-Functional eval.     ....       1.277 sec  (  6.1% of XC)
    XC-Potential eval.      ....       0.339 sec  (  1.6% of XC)
Diagonalization             ....       1.428 sec  (  1.5%)
Density matrix formation    ....       0.062 sec  (  0.1%)
Population analysis         ....       1.324 sec  (  1.4%)
Initial guess               ....       0.006 sec  (  0.0%)
Orbital Transformation      ....       0.000 sec  (  0.0%)
Orbital Orthonormalization  ....       0.000 sec  (  0.0%)
DIIS solution               ....       3.185 sec  (  3.3%)
SOSCF solution              ....       2.284 sec  (  2.4%)
Grid generation             ....       6.000 sec  (  6.3%)

Maximum memory used throughout the entire SCF-calculation: 47.5 MB


-------------------------------------------------------------------------------
                          DFT DISPERSION CORRECTION                            
                                                                               
                              DFTD3 V3.1  Rev 1                                
                          USING Becke-Johnson damping                          
-------------------------------------------------------------------------------
The PBEh-3c composite method is recognized
Using three-body term ABC
Active option DFTDOPT                   ...         4   

molecular C6(AA) [au] = 1412.273596 


            DFT-D V3
 parameters
 s6 scaling factor         :     1.0000 
 a1 scaling factor         :     0.4860 
 s8 scaling factor         :     0.0000 
 a2 scaling factor         :     4.5000 
 Damping factor alpha9(ATM):    16.0000 
 ad hoc parameters k1-k3   :    16.0000     1.3333    -4.0000 

 Edisp/kcal,au: -1.544522463040  -0.002461352955 
 E6   /kcal   :  -1.540541519 
 E8   /kcal   :  -0.000000000 
 E6(ABC)      :  -0.003980944 
 % E8         :   0.000000000 
 % E6(ABC)    :   0.257745933 

-------------------------   ----------------
Dispersion correction           -0.002461353
-------------------------   ----------------

 ** NOTE ** -> element i  will be treated as br
NOTIFICATION: Different basis set in ORCA and otool_gcp:
ORCA: 68  gCP: 74 
If you are NOT using ECPs, check your basis set inputs!
------------------   -----------------
gCP correction             0.008875968
------------------   -----------------

-------------------------   --------------------
FINAL SINGLE POINT ENERGY      -393.998690907683
-------------------------   --------------------


                            ***************************************
                            *     ORCA property calculations      *
                            ***************************************

                                    ---------------------
                                    Active property flags
                                    ---------------------
   (+) Dipole Moment


------------------------------------------------------------------------------
                       ORCA ELECTRIC PROPERTIES CALCULATION
------------------------------------------------------------------------------

Dipole Moment Calculation                       ... on
Quadrupole Moment Calculation                   ... off
Polarizability Calculation                      ... off
GBWName                                         ... pbeh-3c.gbw
Electron density                                ... pbeh-3c.scfp
The origin for moment calculation is the CENTER OF MASS  = ( 0.000000, -0.000000  0.070933)

-------------
DIPOLE MOMENT
-------------
                                X             Y             Z
Electronic contribution:      0.00000       0.00000      12.05091
Nuclear contribution   :      0.00000      -0.00000     -12.65400
                        -----------------------------------------
Total Dipole Moment    :      0.00000       0.00000      -0.60309
                        -----------------------------------------
Magnitude (a.u.)       :      0.60309
Magnitude (Debye)      :      1.53293



--------------------
Rotational spectrum 
--------------------
 
Rotational constants in cm-1:     2.865793     0.065862     0.065862 
Rotational constants in MHz : 85914.319167  1974.505237  1974.505226 

 Dipole components along the rotational axes: 
x,y,z [a.u.] :     0.603090    -0.000003     0.000000 
x,y,z [Debye]:     1.532933    -0.000007     0.000000 

 

Timings for individual modules:

Sum of individual times         ...       99.667 sec (=   1.661 min)
GTO integral calculation        ...        3.223 sec (=   0.054 min)   3.2 %
SCF iterations                  ...       96.444 sec (=   1.607 min)  96.8 %
                             ****ORCA TERMINATED NORMALLY****
TOTAL RUN TIME: 0 days 0 hours 1 minutes 46 seconds 767 msec
