
                                 *****************
                                 * O   R   C   A *
                                 *****************

                                            #,                                       
                                            ###                                      
                                            ####                                     
                                            #####                                    
                                            ######                                   
                                           ########,                                 
                                     ,,################,,,,,                         
                               ,,#################################,,                 
                          ,,##########################################,,             
                       ,#########################################, ''#####,          
                    ,#############################################,,   '####,        
                  ,##################################################,,,,####,       
                ,###########''''           ''''###############################       
              ,#####''   ,,,,##########,,,,          '''####'''          '####       
            ,##' ,,,,###########################,,,                        '##       
           ' ,,###''''                  '''############,,,                           
         ,,##''                                '''############,,,,        ,,,,,,###''
      ,#''                                            '''#######################'''  
     '                                                          ''''####''''         
             ,#######,   #######,   ,#######,      ##                                
            ,#'     '#,  ##    ##  ,#'     '#,    #''#        ######   ,####,        
            ##       ##  ##   ,#'  ##            #'  '#       #        #'  '#        
            ##       ##  #######   ##           ,######,      #####,   #    #        
            '#,     ,#'  ##    ##  '#,     ,#' ,#      #,         ##   #,  ,#        
             '#######'   ##     ##  '#######'  #'      '#     #####' # '####'        



                  #######################################################
                  #                        -***-                        #
                  #          Department of theory and spectroscopy      #
                  #    Directorship and core code : Frank Neese         #
                  #        Max Planck Institute fuer Kohlenforschung    #
                  #                Kaiser Wilhelm Platz 1               #
                  #                 D-45470 Muelheim/Ruhr               #
                  #                      Germany                        #
                  #                                                     #
                  #                  All rights reserved                #
                  #                        -***-                        #
                  #######################################################


                         Program Version 5.0.3 -  RELEASE  -


 With contributions from (in alphabetic order):
   Daniel Aravena         : Magnetic Suceptibility
   Michael Atanasov       : Ab Initio Ligand Field Theory (pilot matlab implementation)
   Alexander A. Auer      : GIAO ZORA, VPT2 properties, NMR spectrum
   Ute Becker             : Parallelization
   Giovanni Bistoni       : ED, misc. LED, open-shell LED, HFLD
   Martin Brehm           : Molecular dynamics
   Dmytro Bykov           : SCF Hessian
   Vijay G. Chilkuri      : MRCI spin determinant printing, contributions to CSF-ICE
   Dipayan Datta          : RHF DLPNO-CCSD density
   Achintya Kumar Dutta   : EOM-CC, STEOM-CC
   Dmitry Ganyushin       : Spin-Orbit,Spin-Spin,Magnetic field MRCI
   Miquel Garcia          : C-PCM and meta-GGA Hessian, CC/C-PCM, Gaussian charge scheme
   Yang Guo               : DLPNO-NEVPT2, F12-NEVPT2, CIM, IAO-localization
   Andreas Hansen         : Spin unrestricted coupled pair/coupled cluster methods
   Benjamin Helmich-Paris : MC-RPA, TRAH-SCF, COSX integrals
   Lee Huntington         : MR-EOM, pCC
   Robert Izsak           : Overlap fitted RIJCOSX, COSX-SCS-MP3, EOM
   Marcus Kettner         : VPT2
   Christian Kollmar      : KDIIS, OOCD, Brueckner-CCSD(T), CCSD density, CASPT2, CASPT2-K
   Simone Kossmann        : Meta GGA functionals, TD-DFT gradient, OOMP2, MP2 Hessian
   Martin Krupicka        : Initial AUTO-CI
   Lucas Lang             : DCDCAS
   Marvin Lechner         : AUTO-CI (C++ implementation), FIC-MRCC
   Dagmar Lenk            : GEPOL surface, SMD
   Dimitrios Liakos       : Extrapolation schemes; Compound Job, initial MDCI parallelization
   Dimitrios Manganas     : Further ROCIS development; embedding schemes
   Dimitrios Pantazis     : SARC Basis sets
   Anastasios Papadopoulos: AUTO-CI, single reference methods and gradients
   Taras Petrenko         : DFT Hessian,TD-DFT gradient, ASA, ECA, R-Raman, ABS, FL, XAS/XES, NRVS
   Peter Pinski           : DLPNO-MP2, DLPNO-MP2 Gradient
   Christoph Reimann      : Effective Core Potentials
   Marius Retegan         : Local ZFS, SOC
   Christoph Riplinger    : Optimizer, TS searches, QM/MM, DLPNO-CCSD(T), (RO)-DLPNO pert. Triples
   Tobias Risthaus        : Range-separated hybrids, TD-DFT gradient, RPA, STAB
   Michael Roemelt        : Original ROCIS implementation
   Masaaki Saitow         : Open-shell DLPNO-CCSD energy and density
   Barbara Sandhoefer     : DKH picture change effects
   Avijit Sen             : IP-ROCIS
   Kantharuban Sivalingam : CASSCF convergence, NEVPT2, FIC-MRCI
   Bernardo de Souza      : ESD, SOC TD-DFT
   Georgi Stoychev        : AutoAux, RI-MP2 NMR, DLPNO-MP2 response
   Willem Van den Heuvel  : Paramagnetic NMR
   Boris Wezisla          : Elementary symmetry handling
   Frank Wennmohs         : Technical directorship


 We gratefully acknowledge several colleagues who have allowed us to
 interface, adapt or use parts of their codes:
   Stefan Grimme, W. Hujo, H. Kruse, P. Pracht,  : VdW corrections, initial TS optimization,
                  C. Bannwarth, S. Ehlert          DFT functionals, gCP, sTDA/sTD-DF
   Ed Valeev, F. Pavosevic, A. Kumar             : LibInt (2-el integral package), F12 methods
   Garnet Chan, S. Sharma, J. Yang, R. Olivares  : DMRG
   Ulf Ekstrom                                   : XCFun DFT Library
   Mihaly Kallay                                 : mrcc  (arbitrary order and MRCC methods)
   Jiri Pittner, Ondrej Demel                    : Mk-CCSD
   Frank Weinhold                                : gennbo (NPA and NBO analysis)
   Christopher J. Cramer and Donald G. Truhlar   : smd solvation model
   Lars Goerigk                                  : TD-DFT with DH, B97 family of functionals
   V. Asgeirsson, H. Jonsson                     : NEB implementation
   FAccTs GmbH                                   : IRC, NEB, NEB-TS, DLPNO-Multilevel, CI-OPT
                                                   MM, QMMM, 2- and 3-layer-ONIOM, Crystal-QMMM,
                                                   LR-CPCM, SF, NACMEs, symmetry and pop. for TD-DFT,
                                                   nearIR, NL-DFT gradient (VV10), updates on ESD,
                                                   ML-optimized integration grids
   S Lehtola, MJT Oliveira, MAL Marques          : LibXC Library
   Liviu Ungur et al                             : ANISO software


 Your calculation uses the libint2 library for the computation of 2-el integrals
 For citations please refer to: http://libint.valeyev.net

 Your ORCA version has been built with support for libXC version: 5.1.0
 For citations please refer to: https://tddft.org/programs/libxc/

 This ORCA versions uses:
   CBLAS   interface :  Fast vector & matrix operations
   LAPACKE interface :  Fast linear algebra routines
   SCALAPACK package :  Parallel linear algebra routines
   Shared memory     :  Shared parallel matrices
   BLAS/LAPACK       :  OpenBLAS 0.3.15  USE64BITINT DYNAMIC_ARCH NO_AFFINITY Haswell SINGLE_THREADED
        Core in use  :  Haswell
   Copyright (c) 2011-2014, The OpenBLAS Project




***************************************
The coordinates will be read from file: 23.xyz
***************************************


Your calculation utilizes the geometrical counterpoise correction gCP
Please cite in your paper:
H.Kruse, S. Grimme J.Chem.Phys., 136, (2012), 154101 
   

Your calculation utilizes the atom-pairwise dispersion correction
with the Becke-Johnson damping scheme (D3BJ)
Cite in your paper:
S.Grimme, S.Ehrlich, L.Goerigk, J Comput Chem, (2011), 32, 1456–1465 
S.Grimme, J.Antony, S.Ehrlich and H.Krieg, J.Chem.Phys., 132, (2010), 154104 
   

Your calculation employs the composite approach PBEh-3c.
Please cite in your paper:
S. Grimme, J. G. Brandenburg, C. Bannwarth, A. Hansen J.Chem.Phys., 143, (2015), 054107 
   

================================================================================

----- Orbital basis set information -----
Your calculation utilizes the basis: def2-mSVP

----- AuxJ basis set information -----
Your calculation utilizes the auxiliary basis: def2/J
   F. Weigend, Phys. Chem. Chem. Phys. 8, 1057 (2006).

================================================================================
                                        WARNINGS
                       Please study these warnings very carefully!
================================================================================


INFO   : the flag for use of the SHARK integral package has been found!

================================================================================
                                       INPUT FILE
================================================================================
NAME = pbeh-3c.inp
|  1> ! PBEh-3c def2/J TightSCF DefGrid3
|  2> 
|  3> %maxcore 60000
|  4> 
|  5> %pal
|  6> nprocs 4
|  7> end
|  8> 
|  9> *xyzfile 0 1 23.xyz
| 10> 
| 11>                          ****END OF INPUT****
================================================================================

                       ****************************
                       * Single Point Calculation *
                       ****************************

---------------------------------
CARTESIAN COORDINATES (ANGSTROEM)
---------------------------------
  N      0.525205    2.518245   -0.254578
  C      1.443650    1.758082   -0.945212
  C      0.877215    0.557514   -1.311867
  C     -0.467490    0.577365   -0.809708
  C     -1.527072   -0.349665   -0.843201
  C     -2.726610   -0.005052   -0.244992
  C     -2.902637    1.244553    0.390970
  C     -1.872698    2.170349    0.444299
  C     -0.656027    1.820837   -0.154491
  H      0.699768    3.431929    0.122596
  H      2.444264    2.124043   -1.108682
  H     -1.435922   -1.309704   -1.334761
  H     -3.867917    1.475982    0.820659
  H     -2.013226    3.129388    0.925951
  O     -3.790049   -0.887733   -0.312586
  C     -4.030884   -1.550136    0.925844
  H     -4.265645   -0.837534    1.719415
  H     -3.160808   -2.140187    1.224414
  H     -4.881338   -2.208248    0.768242
  C      1.566245   -0.599988   -1.959728
  C      2.165758   -1.563108   -0.916809
  N      3.220542   -0.949620   -0.131659
  C      3.074516   -0.248604    1.040902
  C      1.822768   -0.513768    1.850345
  H      2.369363   -0.248473   -2.612053
  H      0.865866   -1.154489   -2.589587
  H      2.575887   -2.440788   -1.420316
  H      1.384675   -1.912144   -0.244168
  H      4.054990   -0.679586   -0.631698
  O      3.950705    0.512307    1.429118
  H      1.686922   -1.581201    2.024799
  H      0.938261   -0.137742    1.336765
  H      1.931720   -0.002825    2.801784

----------------------------
CARTESIAN COORDINATES (A.U.)
----------------------------
  NO LB      ZA    FRAG     MASS         X           Y           Z
   0 N     7.0000    0    14.007    0.992495    4.758793   -0.481083
   1 C     6.0000    0    12.011    2.728104    3.322293   -1.786192
   2 C     6.0000    0    12.011    1.657697    1.053549   -2.479070
   3 C     6.0000    0    12.011   -0.883429    1.091062   -1.530127
   4 C     6.0000    0    12.011   -2.885748   -0.660771   -1.593419
   5 C     6.0000    0    12.011   -5.152547   -0.009547   -0.462968
   6 C     6.0000    0    12.011   -5.485189    2.351864    0.738826
   7 C     6.0000    0    12.011   -3.538887    4.101365    0.839603
   8 C     6.0000    0    12.011   -1.239712    3.440883   -0.291946
   9 H     1.0000    0     1.008    1.322371    6.485406    0.231672
  10 H     1.0000    0     1.008    4.618990    4.013859   -2.095106
  11 H     1.0000    0     1.008   -2.713500   -2.474982   -2.522333
  12 H     1.0000    0     1.008   -7.309304    2.789202    1.550820
  13 H     1.0000    0     1.008   -3.804446    5.913686    1.749793
  14 O     8.0000    0    15.999   -7.162155   -1.677572   -0.590702
  15 C     6.0000    0    12.011   -7.617267   -2.929332    1.749591
  16 H     1.0000    0     1.008   -8.060901   -1.582710    3.249223
  17 H     1.0000    0     1.008   -5.973062   -4.044367    2.313807
  18 H     1.0000    0     1.008   -9.224392   -4.172984    1.451766
  19 C     6.0000    0    12.011    2.959775   -1.133813   -3.703349
  20 C     6.0000    0    12.011    4.092690   -2.953846   -1.732518
  21 N     7.0000    0    14.007    6.085943   -1.794522   -0.248800
  22 C     6.0000    0    12.011    5.809994   -0.469793    1.967019
  23 C     6.0000    0    12.011    3.444533   -0.970881    3.496645
  24 H     1.0000    0     1.008    4.477448   -0.469546   -4.936065
  25 H     1.0000    0     1.008    1.636251   -2.181668   -4.893610
  26 H     1.0000    0     1.008    4.867722   -4.612420   -2.684008
  27 H     1.0000    0     1.008    2.616657   -3.613428   -0.461411
  28 H     1.0000    0     1.008    7.662821   -1.284231   -1.193737
  29 O     8.0000    0    15.999    7.465751    0.968120    2.700641
  30 H     1.0000    0     1.008    3.187821   -2.988037    3.826315
  31 H     1.0000    0     1.008    1.773055   -0.260295    2.526119
  32 H     1.0000    0     1.008    3.650423   -0.005338    5.294604

--------------------------------
INTERNAL COORDINATES (ANGSTROEM)
--------------------------------
 N      0   0   0     0.000000000000     0.00000000     0.00000000
 C      1   0   0     1.377811309554     0.00000000     0.00000000
 C      2   1   0     1.377188319539   109.89166075     0.00000000
 C      3   2   1     1.435545743104   106.26540006   359.64337066
 C      4   3   2     1.408268447190   133.42205984   181.03952591
 C      5   4   3     1.384017150172   118.54991123   179.94188324
 C      6   5   4     1.413133235428   121.51086104   359.95667096
 C      7   6   5     1.385899113785   121.02785333   359.64934023
 C      1   2   3     1.375393212894   109.22126368     0.27059730
 H      1   2   3     1.003768268259   125.07353150   179.63781754
 H      2   1   3     1.077904574356   120.49760850   181.16634922
 H      5   4   3     1.082411345598   122.09304973   358.86446556
 H      7   6   5     1.081645695791   118.62949841   178.40069346
 H      8   7   6     1.082354971010   120.83304654   179.55319932
 O      6   5   4     1.383689565652   119.08836541   177.71995236
 C     15   6   5     1.424951875976   112.58053984   105.80095405
 H     16  15   6     1.092093983852   111.37930236    60.26058046
 H     16  15   6     1.092856969263   110.72397359   298.84869702
 H     16  15   6     1.086840144341   106.72091908   179.61347798
 C      3   2   1     1.494756410563   126.93163782   186.15398497
 C     20   3   2     1.541004870898   111.71457602    88.63728205
 N     21  20   3     1.450998610376   112.62939830   295.50255384
 C     22  21  20     1.373916281633   126.88946791    88.94323399
 C     23  22  21     1.514061646455   117.05060174    22.36000147
 H     20   3   2     1.092743804378   110.39088268   327.67292827
 H     20   3   2     1.093034398578   110.31811728   209.78818770
 H     21  20   3     1.091809096204   109.66074541   174.64546325
 H     21  20   3     1.088284196674   109.84805314    56.99541513
 H     22  21  20     1.009584482538   116.48171795   295.24805005
 O     23  22  21     1.223684753643   120.79222724   199.46360356
 H     24  23  22     1.090092431141   111.10510629    51.82267506
 H     24  23  22     1.089731214123   111.01786100   291.37471591
 H     24  23  22     1.085435012241   107.64946244   171.66207766

---------------------------
INTERNAL COORDINATES (A.U.)
---------------------------
 N      0   0   0     0.000000000000     0.00000000     0.00000000
 C      1   0   0     2.603686039276     0.00000000     0.00000000
 C      2   1   0     2.602508758763   109.89166075     0.00000000
 C      3   2   1     2.712788307184   106.26540006   359.64337066
 C      4   3   2     2.661241688231   133.42205984   181.03952591
 C      5   4   3     2.615413378476   118.54991123   179.94188324
 C      6   5   4     2.670434805701   121.51086104   359.95667096
 C      7   6   5     2.618969774298   121.02785333   359.64934023
 C      1   2   3     2.599116498824   109.22126368     0.27059730
 H      1   2   3     1.896847128930   125.07353150   179.63781754
 H      2   1   3     2.036944444033   120.49760850   181.16634922
 H      5   4   3     2.045461007429   122.09304973   358.86446556
 H      7   6   5     2.044014138981   118.62949841   178.40069346
 H      8   7   6     2.045354474898   120.83304654   179.55319932
 O      6   5   4     2.614794333447   119.08836541   177.71995236
 C     15   6   5     2.692768799612   112.58053984   105.80095405
 H     16  15   6     2.063758541984   111.37930236    60.26058046
 H     16  15   6     2.065200375454   110.72397359   298.84869702
 H     16  15   6     2.053830224156   106.72091908   179.61347798
 C      3   2   1     2.824680252887   126.93163782   186.15398497
 C     20   3   2     2.912077177035   111.71457602    88.63728205
 N     21  20   3     2.741989994311   112.62939830   295.50255384
 C     22  21  20     2.596325503223   126.88946791    88.94323399
 C     23  22  21     2.861161861674   117.05060174    22.36000147
 H     20   3   2     2.064986524813   110.39088268   327.67292827
 H     20   3   2     2.065535668268   110.31811728   209.78818770
 H     21  20   3     2.063220182350   109.66074541   174.64546325
 H     21  20   3     2.056559087589   109.84805314    56.99541513
 H     22  21  20     1.907838181053   116.48171795   295.24805005
 O     23  22  21     2.312429058640   120.79222724   199.46360356
 H     24  23  22     2.059976155516   111.10510629    51.82267506
 H     24  23  22     2.059293554277   111.01786100   291.37471591
 H     24  23  22     2.051174909304   107.64946244   171.66207766

---------------------
BASIS SET INFORMATION
---------------------
There are 4 groups of distinct atoms

 Group   1 Type N   : 8s4p1d contracted to 4s2p1d pattern {5111/31/1}
 Group   2 Type C   : 8s4p1d contracted to 4s2p1d pattern {5111/31/1}
 Group   3 Type H   : 4s contracted to 2s pattern {31}
 Group   4 Type O   : 8s4p1d contracted to 4s2p1d pattern {5111/31/1}

Atom   0N    basis set group =>   1
Atom   1C    basis set group =>   2
Atom   2C    basis set group =>   2
Atom   3C    basis set group =>   2
Atom   4C    basis set group =>   2
Atom   5C    basis set group =>   2
Atom   6C    basis set group =>   2
Atom   7C    basis set group =>   2
Atom   8C    basis set group =>   2
Atom   9H    basis set group =>   3
Atom  10H    basis set group =>   3
Atom  11H    basis set group =>   3
Atom  12H    basis set group =>   3
Atom  13H    basis set group =>   3
Atom  14O    basis set group =>   4
Atom  15C    basis set group =>   2
Atom  16H    basis set group =>   3
Atom  17H    basis set group =>   3
Atom  18H    basis set group =>   3
Atom  19C    basis set group =>   2
Atom  20C    basis set group =>   2
Atom  21N    basis set group =>   1
Atom  22C    basis set group =>   2
Atom  23C    basis set group =>   2
Atom  24H    basis set group =>   3
Atom  25H    basis set group =>   3
Atom  26H    basis set group =>   3
Atom  27H    basis set group =>   3
Atom  28H    basis set group =>   3
Atom  29O    basis set group =>   4
Atom  30H    basis set group =>   3
Atom  31H    basis set group =>   3
Atom  32H    basis set group =>   3
---------------------------------
AUXILIARY/J BASIS SET INFORMATION
---------------------------------
There are 4 groups of distinct atoms

 Group   1 Type N   : 12s5p4d2f1g contracted to 6s4p3d1f1g pattern {711111/2111/211/2/1}
 Group   2 Type C   : 12s5p4d2f1g contracted to 6s4p3d1f1g pattern {711111/2111/211/2/1}
 Group   3 Type H   : 5s2p1d contracted to 3s1p1d pattern {311/2/1}
 Group   4 Type O   : 12s5p4d2f1g contracted to 6s4p3d1f1g pattern {711111/2111/211/2/1}

Atom   0N    basis set group =>   1
Atom   1C    basis set group =>   2
Atom   2C    basis set group =>   2
Atom   3C    basis set group =>   2
Atom   4C    basis set group =>   2
Atom   5C    basis set group =>   2
Atom   6C    basis set group =>   2
Atom   7C    basis set group =>   2
Atom   8C    basis set group =>   2
Atom   9H    basis set group =>   3
Atom  10H    basis set group =>   3
Atom  11H    basis set group =>   3
Atom  12H    basis set group =>   3
Atom  13H    basis set group =>   3
Atom  14O    basis set group =>   4
Atom  15C    basis set group =>   2
Atom  16H    basis set group =>   3
Atom  17H    basis set group =>   3
Atom  18H    basis set group =>   3
Atom  19C    basis set group =>   2
Atom  20C    basis set group =>   2
Atom  21N    basis set group =>   1
Atom  22C    basis set group =>   2
Atom  23C    basis set group =>   2
Atom  24H    basis set group =>   3
Atom  25H    basis set group =>   3
Atom  26H    basis set group =>   3
Atom  27H    basis set group =>   3
Atom  28H    basis set group =>   3
Atom  29O    basis set group =>   4
Atom  30H    basis set group =>   3
Atom  31H    basis set group =>   3
Atom  32H    basis set group =>   3


           ************************************************************
           *        Program running with 4 parallel MPI-processes     *
           *              working on a common directory               *
           ************************************************************
------------------------------------------------------------------------------
                           ORCA GTO INTEGRAL CALCULATION
                           -- RI-GTO INTEGRALS CHOSEN --
------------------------------------------------------------------------------
------------------------------------------------------------------------------
                   ___                                                        
                  /   \      - P O W E R E D   B Y -                         
                 /     \                                                     
                 |  |  |   _    _      __       _____    __    __             
                 |  |  |  | |  | |    /  \     |  _  \  |  |  /  |          
                  \  \/   | |  | |   /    \    | | | |  |  | /  /          
                 / \  \   | |__| |  /  /\  \   | |_| |  |  |/  /          
                |  |  |   |  __  | /  /__\  \  |    /   |      \           
                |  |  |   | |  | | |   __   |  |    \   |  |\   \          
                \     /   | |  | | |  |  |  |  | |\  \  |  | \   \       
                 \___/    |_|  |_| |__|  |__|  |_| \__\ |__|  \__/        
                                                                              
                      - O R C A' S   B I G   F R I E N D -                    
                                      &                                       
                       - I N T E G R A L  F E E D E R -                       
                                                                              
 v1 FN, 2020, v2 2021                                                         
------------------------------------------------------------------------------


Reading SHARK input file pbeh-3c.SHARKINP.tmp ... ok
----------------------
SHARK INTEGRAL PACKAGE
----------------------

Number of atoms                             ...     33
Number of basis functions                   ...    287
Number of shells                            ...    151
Maximum angular momentum                    ...      2
Integral batch strategy                     ... SHARK/LIBINT Hybrid
RI-J (if used) integral strategy            ... SPLIT-RIJ (Revised 2003 algorithm where possible)
Printlevel                                  ...      1
Contraction scheme used                     ... SEGMENTED contraction
Coulomb Range Separation                    ... NOT USED
Exchange Range Separation                   ... NOT USED
Finite Nucleus Model                        ... NOT USED
Auxiliary Coulomb fitting basis             ... AVAILABLE
   # of basis functions in Aux-J            ...   1009
   # of shells in Aux-J                     ...    335
   Maximum angular momentum in Aux-J        ...      4
Auxiliary J/K fitting basis                 ... NOT available
Auxiliary Correlation fitting basis         ... NOT available
Auxiliary 'external' fitting basis          ... NOT available
Integral threshold                          ...     2.500000e-11
Primitive cut-off                           ...     2.500000e-12
Primitive pair pre-selection threshold      ...     2.500000e-12

Calculating pre-screening integrals         ... done (  0.1 sec) Dimension = 151
Organizing shell pair data                  ... done (  0.2 sec)
Shell pair information
Total number of shell pairs                 ...     11476
Shell pairs after pre-screening             ...      8684
Total number of primitive shell pairs       ...     41024
Primitive shell pairs kept                  ...     20052
          la=0 lb=0:   3471 shell pairs
          la=1 lb=0:   2875 shell pairs
          la=1 lb=1:    551 shell pairs
          la=2 lb=0:   1171 shell pairs
          la=2 lb=1:    502 shell pairs
          la=2 lb=2:    114 shell pairs

Calculating one electron integrals          ... done (  0.0 sec)
Calculating RI/J V-Matrix + Cholesky decomp.... done (  0.3 sec)
Calculating Nuclear repulsion               ... done (  0.0 sec) ENN=   1208.135623162858 Eh

SHARK setup successfully completed in   0.9 seconds

Maximum memory used throughout the entire GTOINT-calculation: 18.4 MB


           ************************************************************
           *        Program running with 4 parallel MPI-processes     *
           *              working on a common directory               *
           ************************************************************
-------------------------------------------------------------------------------
                                 ORCA SCF
-------------------------------------------------------------------------------

------------
SCF SETTINGS
------------
Hamiltonian:
 Density Functional     Method          .... DFT(GTOs)
 Exchange Functional    Exchange        .... PBE
   PBE kappa parameter   XKappa         ....  1.024500
   PBE mue parameter    XMuePBE         ....  0.123457
 Correlation Functional Correlation     .... PBE
   PBE beta parameter  CBetaPBE         ....  0.030000
 LDA part of GGA corr.  LDAOpt          .... PW91-LDA
 Gradients option       PostSCFGGA      .... off
 Hybrid DFT is turned on
   Fraction HF Exchange ScalHFX         ....  0.420000
   Scaling of DF-GGA-X  ScalDFX         ....  0.580000
   Scaling of DF-GGA-C  ScalDFC         ....  1.000000
   Scaling of DF-LDA-C  ScalLDAC        ....  1.000000
   Perturbative correction              ....  0.000000
   Density functional embedding theory  .... OFF
 RI-approximation to the Coulomb term is turned on
   Number of AuxJ basis functions       .... 1009
   RIJ-ON(X) (HFX calculated with O(N)) .... on
   Number of AuxJ basis functions       .... 1009
   RIJ-COSX (HFX calculated with COS-X)).... on


General Settings:
 Integral files         IntName         .... pbeh-3c
 Hartree-Fock type      HFTyp           .... RHF
 Total Charge           Charge          ....    0
 Multiplicity           Mult            ....    1
 Number of Electrons    NEL             ....  124
 Basis Dimension        Dim             ....  287
 Nuclear Repulsion      ENuc            ....   1208.1356231629 Eh

Convergence Acceleration:
 DIIS                   CNVDIIS         .... on
   Start iteration      DIISMaxIt       ....    12
   Startup error        DIISStart       ....  0.200000
   # of expansion vecs  DIISMaxEq       ....     5
   Bias factor          DIISBfac        ....   1.050
   Max. coefficient     DIISMaxC        ....  10.000
 Trust-Rad. Augm. Hess. CNVTRAH         .... auto
   Auto Start mean grad. ratio tolernc. ....  1.125000
   Auto Start start iteration           ....    20
   Auto Start num. interpolation iter.  ....    10
   Max. Number of Micro iterations      ....    16
   Max. Number of Macro iterations      .... Maxiter - #DIIS iter
   Number of Davidson start vectors     ....     2
   Converg. threshold I  (grad. norm)   ....   1.000e-05
   Converg. threshold II (energy diff.) ....   1.000e-08
   Grad. Scal. Fac. for Micro threshold ....   0.100
   Minimum threshold for Micro iter.    ....   0.010
   NR start threshold (gradient norm)   ....   0.001
   Initial trust radius                 ....   0.400
   Minimum AH scaling param. (alpha)    ....   1.000
   Maximum AH scaling param. (alpha)    .... 1000.000
   Orbital update algorithm             .... Taylor
   White noise on init. David. guess    .... on
   Maximum white noise                  ....   0.010
   Quad. conv. algorithm                .... NR
   COSX micro iterations for RIJONX calc.... off
 SOSCF                  CNVSOSCF        .... on
   Start iteration      SOSCFMaxIt      ....   150
   Startup grad/error   SOSCFStart      ....  0.003300
 Level Shifting         CNVShift        .... on
   Level shift para.    LevelShift      ....    0.2500
   Turn off err/grad.   ShiftErr        ....    0.0010
 Zerner damping         CNVZerner       .... off
 Static damping         CNVDamp         .... on
   Fraction old density DampFac         ....    0.7000
   Max. Damping (<1)    DampMax         ....    0.9800
   Min. Damping (>=0)   DampMin         ....    0.0000
   Turn off err/grad.   DampErr         ....    0.1000
 Fernandez-Rico         CNVRico         .... off

SCF Procedure:
 Maximum # iterations   MaxIter         ....   125
 SCF integral mode      SCFMode         .... Direct
   Integral package                     .... SHARK and LIBINT hybrid scheme
 Reset frequency        DirectResetFreq ....    20
 Integral Threshold     Thresh          ....  2.500e-11 Eh
 Primitive CutOff       TCut            ....  2.500e-12 Eh

Convergence Tolerance:
 Convergence Check Mode ConvCheckMode   .... Total+1el-Energy
 Convergence forced     ConvForced      .... 0
 Energy Change          TolE            ....  1.000e-08 Eh
 1-El. energy change                    ....  1.000e-05 Eh
 Orbital Gradient       TolG            ....  1.000e-05
 Orbital Rotation angle TolX            ....  1.000e-05
 DIIS Error             TolErr          ....  5.000e-07


Diagonalization of the overlap matrix:
Smallest eigenvalue                        ... 4.056e-04
Time for diagonalization                   ...    0.022 sec
Threshold for overlap eigenvalues          ... 1.000e-08
Number of eigenvalues below threshold      ... 0
Time for construction of square roots      ...    0.024 sec
Total time needed                          ...    0.047 sec

--------------------------------
INITIAL GUESS: MINIMAL BASIS EHT
--------------------------------
The minimal basis has 101 functions
EHT matrix was diagonalized
Basis set overlap was calculated now projecting the orbitals
Using GuessMode=FMatrix for the initial guess
C*T matrix was formed
Effective Fockian was calculated
Effective Fockian was diagonalized
Initial density was built
                      ------------------
                      INITIAL GUESS DONE
                      ------------------
-------------------
DFT GRID GENERATION
-------------------

General Integration Accuracy     IntAcc      ... 4.959
Radial Grid Type                 RadialGrid  ... OptM3 with GC (2021)
Angular Grid (max. ang.)         AngularGrid ... 6 (Lebedev-590)
Angular grid pruning method      GridPruning ... 4 (adaptive)
Weight generation scheme         WeightScheme... Becke
Basis function cutoff            BFCut       ... 1.0000e-11
Integration weight cutoff        WCut        ... 1.0000e-14
Angular grids for H and He will be reduced by one unit
Partially contracted basis set               ... off
Rotationally invariant grid construction     ... off

Total number of grid points                  ...   377819
Total number of batches                      ...     5920
Average number of points per batch           ...       63
Average number of grid points per atom       ...    11449
Time for grid setup =    7.734 sec

--------------------
COSX GRID GENERATION
--------------------

GRIDX 1
-------
General Integration Accuracy     IntAcc      ... 4.020
Radial Grid Type                 RadialGrid  ... OptM3 with GC (2021)
Angular Grid (max. ang.)         AngularGrid ... 2 (Lebedev-110)
Angular grid pruning method      GridPruning ... 4 (adaptive)
Weight generation scheme         WeightScheme... Becke
Basis function cutoff            BFCut       ... 1.0000e-11
Integration weight cutoff        WCut        ... 1.0000e-14
Angular grids for H and He will be reduced by one unit
Partially contracted basis set               ... on
Rotationally invariant grid construction     ... off

Total number of grid points                  ...    41776
Total number of batches                      ...      667
Average number of points per batch           ...       62
Average number of grid points per atom       ...     1266
UseSFitting                                  ... on

GRIDX 2
-------
General Integration Accuracy     IntAcc      ... 4.338
Radial Grid Type                 RadialGrid  ... OptM3 with GC (2021)
Angular Grid (max. ang.)         AngularGrid ... 3 (Lebedev-194)
Angular grid pruning method      GridPruning ... 4 (adaptive)
Weight generation scheme         WeightScheme... Becke
Basis function cutoff            BFCut       ... 1.0000e-11
Integration weight cutoff        WCut        ... 1.0000e-14
Angular grids for H and He will be reduced by one unit
Partially contracted basis set               ... on
Rotationally invariant grid construction     ... off

Total number of grid points                  ...    91136
Total number of batches                      ...     1440
Average number of points per batch           ...       63
Average number of grid points per atom       ...     2762
UseSFitting                                  ... on

GRIDX 3
-------
General Integration Accuracy     IntAcc      ... 4.871
Radial Grid Type                 RadialGrid  ... OptM3 with GC (2021)
Angular Grid (max. ang.)         AngularGrid ... 4 (Lebedev-302)
Angular grid pruning method      GridPruning ... 4 (adaptive)
Weight generation scheme         WeightScheme... Becke
Basis function cutoff            BFCut       ... 1.0000e-11
Integration weight cutoff        WCut        ... 1.0000e-14
Angular grids for H and He will be reduced by one unit
Partially contracted basis set               ... on
Rotationally invariant grid construction     ... off

Total number of grid points                  ...   172354
Total number of batches                      ...     2713
Average number of points per batch           ...       63
Average number of grid points per atom       ...     5223
UseSFitting                                  ... on

Time for X-Grid setup             =    7.555 sec

--------------
SCF ITERATIONS
--------------
ITER       Energy         Delta-E        Max-DP      RMS-DP      [F,P]     Damp
               ***  Starting incremental Fock matrix formation  ***
  0   -761.2539139264   0.000000000000 0.19677792  0.00497375  0.5596121 0.7000
  1   -761.9718556182  -0.717941691764 0.11196427  0.00321908  0.2931184 0.7000
  2   -762.3785316086  -0.406675990366 0.07701457  0.00214660  0.2065716 0.7000
                               ***Turning on DIIS***
  3   -762.6652697073  -0.286738098735 0.05823822  0.00152115  0.1451868 0.7000
  4   -762.8709223844  -0.205652677089 0.04110086  0.00112907  0.1018482 0.7000
  5   -763.0165030628  -0.145580678386 0.09297132  0.00273963  0.0715089 0.0000
  6   -763.3627008007  -0.346197737944 0.00479706  0.00010707  0.0036695 0.0000
                      *** Initiating the SOSCF procedure ***
                           *** Shutting down DIIS ***
                      *** Re-Reading the Fockian *** 
                      *** Removing any level shift *** 
ITER      Energy       Delta-E        Grad      Rot      Max-DP    RMS-DP
  7   -763.36288436  -0.0001835626  0.000582  0.000582  0.002464  0.000047
               *** Restarting incremental Fock matrix formation ***
  8   -763.36292562  -0.0000412599  0.000744  0.002061  0.001678  0.000036
  9   -763.36293221  -0.0000065848  0.000393  0.000569  0.001865  0.000026
 10   -763.36293793  -0.0000057187  0.000079  0.000192  0.000608  0.000009
 11   -763.36293831  -0.0000003830  0.000029  0.000056  0.000131  0.000002
 12   -763.36293836  -0.0000000519  0.000013  0.000024  0.000110  0.000002
 13   -763.36293839  -0.0000000254  0.000006  0.000024  0.000017  0.000000
 14   -763.36293839  -0.0000000000  0.000008  0.000015  0.000009  0.000000
                 **** Energy Check signals convergence ****
              ***Rediagonalizing the Fockian in SOSCF/NRSCF***

               *****************************************************
               *                     SUCCESS                       *
               *           SCF CONVERGED AFTER  15 CYCLES          *
               *****************************************************

Old exchange energy                            =    -43.179158772 Eh
New exchange energy                            =    -43.179177097 Eh
Exchange energy change after final integration =     -0.000018325 Eh
Total energy after final integration           =   -763.362956707 Eh
Final COS-X integration done in                =    24.243 sec

----------------
TOTAL SCF ENERGY
----------------

Total Energy       :         -763.36295671 Eh          -20772.16209 eV

Components:
Nuclear Repulsion  :         1208.13562316 Eh           32875.04164 eV
Electronic Energy  :        -1971.49857987 Eh          -53647.20373 eV
One Electron Energy:        -3436.74907519 Eh          -93518.69673 eV
Two Electron Energy:         1465.25049532 Eh           39871.49301 eV
Max COSX asymmetry :            0.00000198 Eh               0.00005 eV

Virial components:
Potential Energy   :        -1520.77465840 Eh          -41382.38229 eV
Kinetic Energy     :          757.41170169 Eh           20610.22021 eV
Virial Ratio       :            2.00785736


DFT components:
N(Alpha)           :       62.000008341072 electrons
N(Beta)            :       62.000008341072 electrons
N(Total)           :      124.000016682144 electrons
E(X)               :      -57.396658986742 Eh       
E(C)               :       -5.449561982087 Eh       
E(XC)              :      -62.846220968829 Eh       
DFET-embed. en.    :        0.000000000000 Eh       

---------------
SCF CONVERGENCE
---------------

  Last Energy change         ...    4.7711e-09  Tolerance :   1.0000e-08
  Last MAX-Density change    ...    1.5543e-15  Tolerance :   1.0000e-07
  Last RMS-Density change    ...    3.1743e-17  Tolerance :   5.0000e-09
  Last Orbital Gradient      ...    6.7733e-07  Tolerance :   1.0000e-05
  Last Orbital Rotation      ...    1.7713e-06  Tolerance :   1.0000e-05

             **** THE GBW FILE WAS UPDATED (pbeh-3c.gbw) ****
             **** DENSITY pbeh-3c.scfp WAS UPDATED ****
             **** ENERGY FILE WAS UPDATED (pbeh-3c.en.tmp) ****
             **** THE GBW FILE WAS UPDATED (pbeh-3c.gbw) ****
             **** DENSITY pbeh-3c.scfp WAS UPDATED ****
----------------
ORBITAL ENERGIES
----------------

  NO   OCC          E(Eh)            E(eV) 
   0   2.0000     -19.507265      -530.8197 
   1   2.0000     -19.444985      -529.1249 
   2   2.0000     -14.689464      -399.7206 
   3   2.0000     -14.650391      -398.6574 
   4   2.0000     -10.539761      -286.8015 
   5   2.0000     -10.496677      -285.6291 
   6   2.0000     -10.484161      -285.2885 
   7   2.0000     -10.482886      -285.2538 
   8   2.0000     -10.482840      -285.2526 
   9   2.0000     -10.482656      -285.2476 
  10   2.0000     -10.456919      -284.5472 
  11   2.0000     -10.452273      -284.4208 
  12   2.0000     -10.450825      -284.3814 
  13   2.0000     -10.447473      -284.2902 
  14   2.0000     -10.446495      -284.2636 
  15   2.0000     -10.445518      -284.2370 
  16   2.0000     -10.428066      -283.7621 
  17   2.0000      -1.155656       -31.4470 
  18   2.0000      -1.130548       -30.7638 
  19   2.0000      -1.092157       -29.7191 
  20   2.0000      -1.015835       -27.6423 
  21   2.0000      -0.941329       -25.6149 
  22   2.0000      -0.901990       -24.5444 
  23   2.0000      -0.845967       -23.0199 
  24   2.0000      -0.832404       -22.6509 
  25   2.0000      -0.817217       -22.2376 
  26   2.0000      -0.805485       -21.9184 
  27   2.0000      -0.768594       -20.9145 
  28   2.0000      -0.732332       -19.9278 
  29   2.0000      -0.702250       -19.1092 
  30   2.0000      -0.670028       -18.2324 
  31   2.0000      -0.642372       -17.4798 
  32   2.0000      -0.634998       -17.2792 
  33   2.0000      -0.615743       -16.7552 
  34   2.0000      -0.574036       -15.6203 
  35   2.0000      -0.559002       -15.2112 
  36   2.0000      -0.548218       -14.9178 
  37   2.0000      -0.540305       -14.7024 
  38   2.0000      -0.525842       -14.3089 
  39   2.0000      -0.522005       -14.2045 
  40   2.0000      -0.517423       -14.0798 
  41   2.0000      -0.508363       -13.8333 
  42   2.0000      -0.497106       -13.5269 
  43   2.0000      -0.483592       -13.1592 
  44   2.0000      -0.479588       -13.0503 
  45   2.0000      -0.476156       -12.9569 
  46   2.0000      -0.463464       -12.6115 
  47   2.0000      -0.455652       -12.3989 
  48   2.0000      -0.448977       -12.2173 
  49   2.0000      -0.444783       -12.1032 
  50   2.0000      -0.431054       -11.7296 
  51   2.0000      -0.423416       -11.5217 
  52   2.0000      -0.406915       -11.0727 
  53   2.0000      -0.403862       -10.9896 
  54   2.0000      -0.395611       -10.7651 
  55   2.0000      -0.377805       -10.2806 
  56   2.0000      -0.329505        -8.9663 
  57   2.0000      -0.327332        -8.9072 
  58   2.0000      -0.300008        -8.1636 
  59   2.0000      -0.290582        -7.9071 
  60   2.0000      -0.258055        -7.0220 
  61   2.0000      -0.245574        -6.6824 
  62   0.0000       0.000825         0.0225 
  63   0.0000       0.045198         1.2299 
  64   0.0000       0.070101         1.9075 
  65   0.0000       0.082881         2.2553 
  66   0.0000       0.123803         3.3688 
  67   0.0000       0.133376         3.6294 
  68   0.0000       0.148129         4.0308 
  69   0.0000       0.153141         4.1672 
  70   0.0000       0.154058         4.1921 
  71   0.0000       0.168646         4.5891 
  72   0.0000       0.184758         5.0275 
  73   0.0000       0.191426         5.2090 
  74   0.0000       0.195217         5.3121 
  75   0.0000       0.198092         5.3904 
  76   0.0000       0.203228         5.5301 
  77   0.0000       0.208188         5.6651 
  78   0.0000       0.208493         5.6734 
  79   0.0000       0.218150         5.9362 
  80   0.0000       0.219784         5.9806 
  81   0.0000       0.230035         6.2596 
  82   0.0000       0.234980         6.3941 
  83   0.0000       0.245448         6.6790 
  84   0.0000       0.248386         6.7589 
  85   0.0000       0.255143         6.9428 
  86   0.0000       0.261690         7.1209 
  87   0.0000       0.272664         7.4196 
  88   0.0000       0.283065         7.7026 
  89   0.0000       0.297544         8.0966 
  90   0.0000       0.318671         8.6715 
  91   0.0000       0.333461         9.0739 
  92   0.0000       0.336800         9.1648 
  93   0.0000       0.360738         9.8162 
  94   0.0000       0.365338         9.9414 
  95   0.0000       0.405740        11.0408 
  96   0.0000       0.418799        11.3961 
  97   0.0000       0.433961        11.8087 
  98   0.0000       0.459745        12.5103 
  99   0.0000       0.476095        12.9552 
 100   0.0000       0.480928        13.0867 
 101   0.0000       0.490650        13.3513 
 102   0.0000       0.513233        13.9658 
 103   0.0000       0.518315        14.1041 
 104   0.0000       0.521223        14.1832 
 105   0.0000       0.535486        14.5713 
 106   0.0000       0.543629        14.7929 
 107   0.0000       0.552780        15.0419 
 108   0.0000       0.563168        15.3246 
 109   0.0000       0.569246        15.4900 
 110   0.0000       0.578672        15.7465 
 111   0.0000       0.586476        15.9588 
 112   0.0000       0.597483        16.2583 
 113   0.0000       0.600229        16.3331 
 114   0.0000       0.604014        16.4361 
 115   0.0000       0.611464        16.6388 
 116   0.0000       0.623244        16.9593 
 117   0.0000       0.632634        17.2149 
 118   0.0000       0.643733        17.5169 
 119   0.0000       0.653541        17.7837 
 120   0.0000       0.659888        17.9565 
 121   0.0000       0.672554        18.3011 
 122   0.0000       0.684048        18.6139 
 123   0.0000       0.702016        19.1028 
 124   0.0000       0.715395        19.4669 
 125   0.0000       0.724415        19.7123 
 126   0.0000       0.732848        19.9418 
 127   0.0000       0.745036        20.2735 
 128   0.0000       0.754264        20.5246 
 129   0.0000       0.765123        20.8201 
 130   0.0000       0.774830        21.0842 
 131   0.0000       0.812889        22.1198 
 132   0.0000       0.817745        22.2520 
 133   0.0000       0.848409        23.0864 
 134   0.0000       0.850266        23.1369 
 135   0.0000       0.882065        24.0022 
 136   0.0000       0.884818        24.0771 
 137   0.0000       0.917894        24.9772 
 138   0.0000       0.948008        25.7966 
 139   0.0000       0.953946        25.9582 
 140   0.0000       0.960756        26.1435 
 141   0.0000       0.969906        26.3925 
 142   0.0000       0.976771        26.5793 
 143   0.0000       0.978177        26.6176 
 144   0.0000       0.989037        26.9131 
 145   0.0000       0.994847        27.0712 
 146   0.0000       1.003100        27.2957 
 147   0.0000       1.008074        27.4311 
 148   0.0000       1.008614        27.4458 
 149   0.0000       1.012357        27.5476 
 150   0.0000       1.019971        27.7548 
 151   0.0000       1.027418        27.9575 
 152   0.0000       1.035646        28.1813 
 153   0.0000       1.053471        28.6664 
 154   0.0000       1.062791        28.9200 
 155   0.0000       1.073143        29.2017 
 156   0.0000       1.088733        29.6259 
 157   0.0000       1.097148        29.8549 
 158   0.0000       1.103064        30.0159 
 159   0.0000       1.109965        30.2037 
 160   0.0000       1.129420        30.7331 
 161   0.0000       1.137723        30.9590 
 162   0.0000       1.144496        31.1433 
 163   0.0000       1.180009        32.1097 
 164   0.0000       1.194274        32.4978 
 165   0.0000       1.206676        32.8353 
 166   0.0000       1.209074        32.9006 
 167   0.0000       1.247051        33.9340 
 168   0.0000       1.253784        34.1172 
 169   0.0000       1.264135        34.3988 
 170   0.0000       1.278536        34.7907 
 171   0.0000       1.294670        35.2298 
 172   0.0000       1.295407        35.2498 
 173   0.0000       1.336015        36.3548 
 174   0.0000       1.370561        37.2949 
 175   0.0000       1.384788        37.6820 
 176   0.0000       1.399919        38.0937 
 177   0.0000       1.419047        38.6142 
 178   0.0000       1.429364        38.8950 
 179   0.0000       1.435032        39.0492 
 180   0.0000       1.453120        39.5414 
 181   0.0000       1.469776        39.9946 
 182   0.0000       1.479203        40.2512 
 183   0.0000       1.489254        40.5247 
 184   0.0000       1.509975        41.0885 
 185   0.0000       1.525756        41.5179 
 186   0.0000       1.538941        41.8767 
 187   0.0000       1.560360        42.4596 
 188   0.0000       1.571616        42.7658 
 189   0.0000       1.596415        43.4407 
 190   0.0000       1.606575        43.7171 
 191   0.0000       1.629897        44.3517 
 192   0.0000       1.650068        44.9006 
 193   0.0000       1.661791        45.2196 
 194   0.0000       1.717519        46.7361 
 195   0.0000       1.801426        49.0193 
 196   0.0000       1.821819        49.5742 
 197   0.0000       1.834679        49.9241 
 198   0.0000       1.844943        50.2034 
 199   0.0000       1.846331        50.2412 
 200   0.0000       1.859728        50.6058 
 201   0.0000       1.874250        51.0009 
 202   0.0000       1.890380        51.4398 
 203   0.0000       1.892035        51.4849 
 204   0.0000       1.906733        51.8849 
 205   0.0000       1.925677        52.4003 
 206   0.0000       1.939656        52.7807 
 207   0.0000       1.975146        53.7465 
 208   0.0000       1.989175        54.1282 
 209   0.0000       1.998520        54.3825 
 210   0.0000       2.009260        54.6747 
 211   0.0000       2.025696        55.1220 
 212   0.0000       2.042012        55.5660 
 213   0.0000       2.054221        55.8982 
 214   0.0000       2.072741        56.4021 
 215   0.0000       2.089395        56.8553 
 216   0.0000       2.116845        57.6023 
 217   0.0000       2.126568        57.8669 
 218   0.0000       2.131534        58.0020 
 219   0.0000       2.145282        58.3761 
 220   0.0000       2.154761        58.6340 
 221   0.0000       2.175748        59.2051 
 222   0.0000       2.181126        59.3514 
 223   0.0000       2.195412        59.7402 
 224   0.0000       2.203884        59.9707 
 225   0.0000       2.215999        60.3004 
 226   0.0000       2.250997        61.2527 
 227   0.0000       2.268710        61.7347 
 228   0.0000       2.273012        61.8518 
 229   0.0000       2.280930        62.0673 
 230   0.0000       2.306894        62.7738 
 231   0.0000       2.320191        63.1356 
 232   0.0000       2.321085        63.1599 
 233   0.0000       2.327209        63.3266 
 234   0.0000       2.341039        63.7029 
 235   0.0000       2.376470        64.6670 
 236   0.0000       2.391480        65.0755 
 237   0.0000       2.402560        65.3770 
 238   0.0000       2.435439        66.2717 
 239   0.0000       2.451137        66.6988 
 240   0.0000       2.482910        67.5634 
 241   0.0000       2.503477        68.1231 
 242   0.0000       2.528215        68.7962 
 243   0.0000       2.541737        69.1642 
 244   0.0000       2.554963        69.5241 
 245   0.0000       2.586637        70.3860 
 246   0.0000       2.601102        70.7796 
 247   0.0000       2.626609        71.4737 
 248   0.0000       2.654824        72.2414 
 249   0.0000       2.684864        73.0589 
 250   0.0000       2.686130        73.0933 
 251   0.0000       2.712684        73.8159 
 252   0.0000       2.740619        74.5760 
 253   0.0000       2.742807        74.6356 
 254   0.0000       2.749692        74.8229 
 255   0.0000       2.780415        75.6589 
 256   0.0000       2.788941        75.8909 
 257   0.0000       2.824459        76.8574 
 258   0.0000       2.841341        77.3168 
 259   0.0000       2.899932        78.9111 
 260   0.0000       2.973080        80.9016 
 261   0.0000       2.984267        81.2060 
 262   0.0000       2.994679        81.4894 
 263   0.0000       3.045170        82.8633 
 264   0.0000       3.082855        83.8887 
 265   0.0000       3.125930        85.0609 
 266   0.0000       3.199320        87.0579 
 267   0.0000       3.225381        87.7671 
 268   0.0000       3.341386        90.9237 
 269   0.0000       3.511565        95.5545 
 270   0.0000      13.290615       361.6560 
 271   0.0000      13.635329       371.0362 
 272   0.0000      13.678706       372.2165 
 273   0.0000      13.751492       374.1971 
 274   0.0000      13.790803       375.2668 
 275   0.0000      13.831077       376.3627 
 276   0.0000      13.879523       377.6810 
 277   0.0000      14.026954       381.6928 
 278   0.0000      14.083826       383.2404 
 279   0.0000      14.124584       384.3495 
 280   0.0000      14.229135       387.1944 
 281   0.0000      14.342887       390.2898 
 282   0.0000      14.545454       395.8019 
 283   0.0000      19.300754       525.2002 
 284   0.0000      19.426276       528.6159 
 285   0.0000      25.747156       700.6157 
 286   0.0000      25.791507       701.8226 

                    ********************************
                    * MULLIKEN POPULATION ANALYSIS *
                    ********************************

-----------------------
MULLIKEN ATOMIC CHARGES
-----------------------
   0 N :   -0.692696
   1 C :   -0.041090
   2 C :    0.000755
   3 C :    0.067345
   4 C :   -0.433110
   5 C :    0.363025
   6 C :   -0.312963
   7 C :   -0.264914
   8 C :    0.355548
   9 H :    0.363046
  10 H :    0.254747
  11 H :    0.215167
  12 H :    0.229070
  13 H :    0.217769
  14 O :   -0.485265
  15 C :   -0.376743
  16 H :    0.198588
  17 H :    0.200355
  18 H :    0.221371
  19 C :   -0.529431
  20 C :   -0.289735
  21 N :   -0.597711
  22 C :    0.495031
  23 C :   -0.783026
  24 H :    0.228979
  25 H :    0.231458
  26 H :    0.235028
  27 H :    0.239815
  28 H :    0.349952
  29 O :   -0.426867
  30 H :    0.231250
  31 H :    0.271921
  32 H :    0.263333
Sum of atomic charges:    0.0000000

--------------------------------
MULLIKEN REDUCED ORBITAL CHARGES
--------------------------------
  0 N s       :     3.601046  s :     3.601046
      pz      :     1.515095  p :     4.050205
      px      :     1.235608
      py      :     1.299503
      dz2     :     0.005661  d :     0.041444
      dxz     :     0.007778
      dyz     :     0.006471
      dx2y2   :     0.011879
      dxy     :     0.009654
  1 C s       :     3.160366  s :     3.160366
      pz      :     0.968106  p :     2.824045
      px      :     0.921909
      py      :     0.934031
      dz2     :     0.009933  d :     0.056679
      dxz     :     0.008061
      dyz     :     0.009288
      dx2y2   :     0.011701
      dxy     :     0.017696
  2 C s       :     3.195967  s :     3.195967
      pz      :     1.008995  p :     2.757918
      px      :     0.845522
      py      :     0.903401
      dz2     :     0.005066  d :     0.045359
      dxz     :     0.008510
      dyz     :     0.007764
      dx2y2   :     0.013127
      dxy     :     0.010892
  3 C s       :     3.207911  s :     3.207911
      pz      :     0.975208  p :     2.677902
      px      :     0.828351
      py      :     0.874343
      dz2     :     0.006120  d :     0.046842
      dxz     :     0.008373
      dyz     :     0.007584
      dx2y2   :     0.014030
      dxy     :     0.010734
  4 C s       :     3.358905  s :     3.358905
      pz      :     1.050213  p :     3.035876
      px      :     0.960015
      py      :     1.025648
      dz2     :     0.004233  d :     0.038328
      dxz     :     0.007389
      dyz     :     0.006060
      dx2y2   :     0.011416
      dxy     :     0.009230
  5 C s       :     3.062088  s :     3.062088
      pz      :     0.964926  p :     2.500800
      px      :     0.730369
      py      :     0.805505
      dz2     :     0.008536  d :     0.074087
      dxz     :     0.011187
      dyz     :     0.009572
      dx2y2   :     0.023031
      dxy     :     0.021762
  6 C s       :     3.266012  s :     3.266012
      pz      :     1.025396  p :     3.008757
      px      :     1.051351
      py      :     0.932011
      dz2     :     0.004097  d :     0.038194
      dxz     :     0.006232
      dyz     :     0.006967
      dx2y2   :     0.012323
      dxy     :     0.008576
  7 C s       :     3.259368  s :     3.259368
      pz      :     1.015323  p :     2.965738
      px      :     0.931733
      py      :     1.018683
      dz2     :     0.003878  d :     0.039807
      dxz     :     0.008054
      dyz     :     0.006369
      dx2y2   :     0.012536
      dxy     :     0.008971
  8 C s       :     3.073732  s :     3.073732
      pz      :     0.953453  p :     2.507296
      px      :     0.705837
      py      :     0.848006
      dz2     :     0.007582  d :     0.063425
      dxz     :     0.012279
      dyz     :     0.009015
      dx2y2   :     0.016692
      dxy     :     0.017857
  9 H s       :     0.636954  s :     0.636954
 10 H s       :     0.745253  s :     0.745253
 11 H s       :     0.784833  s :     0.784833
 12 H s       :     0.770930  s :     0.770930
 13 H s       :     0.782231  s :     0.782231
 14 O s       :     3.796705  s :     3.796705
      pz      :     1.498232  p :     4.655983
      px      :     1.583323
      py      :     1.574428
      dz2     :     0.009206  d :     0.032577
      dxz     :     0.005585
      dyz     :     0.006175
      dx2y2   :     0.004497
      dxy     :     0.007116
 15 C s       :     3.337239  s :     3.337239
      pz      :     0.814092  p :     2.977651
      px      :     1.127540
      py      :     1.036020
      dz2     :     0.015732  d :     0.061853
      dxz     :     0.009364
      dyz     :     0.018957
      dx2y2   :     0.003597
      dxy     :     0.014205
 16 H s       :     0.801412  s :     0.801412
 17 H s       :     0.799645  s :     0.799645
 18 H s       :     0.778629  s :     0.778629
 19 C s       :     3.386142  s :     3.386142
      pz      :     1.007124  p :     3.099672
      px      :     1.099775
      py      :     0.992773
      dz2     :     0.003751  d :     0.043617
      dxz     :     0.012381
      dyz     :     0.011614
      dx2y2   :     0.005024
      dxy     :     0.010846
 20 C s       :     3.293208  s :     3.293208
      pz      :     0.989423  p :     2.938041
      px      :     0.950867
      py      :     0.997751
      dz2     :     0.005040  d :     0.058486
      dxz     :     0.018369
      dyz     :     0.013649
      dx2y2   :     0.008994
      dxy     :     0.012434
 21 N s       :     3.539878  s :     3.539878
      pz      :     1.239917  p :     4.023428
      px      :     1.259617
      py      :     1.523894
      dz2     :     0.005403  d :     0.034405
      dxz     :     0.010879
      dyz     :     0.007367
      dx2y2   :     0.006161
      dxy     :     0.004595
 22 C s       :     2.980553  s :     2.980553
      pz      :     0.787423  p :     2.403576
      px      :     0.850578
      py      :     0.765575
      dz2     :     0.027179  d :     0.120840
      dxz     :     0.024010
      dyz     :     0.024257
      dx2y2   :     0.027389
      dxy     :     0.018005
 23 C s       :     3.420567  s :     3.420567
      pz      :     1.131970  p :     3.328690
      px      :     1.050081
      py      :     1.146639
      dz2     :     0.006273  d :     0.033770
      dxz     :     0.008630
      dyz     :     0.005647
      dx2y2   :     0.009845
      dxy     :     0.003375
 24 H s       :     0.771021  s :     0.771021
 25 H s       :     0.768542  s :     0.768542
 26 H s       :     0.764972  s :     0.764972
 27 H s       :     0.760185  s :     0.760185
 28 H s       :     0.650048  s :     0.650048
 29 O s       :     3.757209  s :     3.757209
      pz      :     1.695835  p :     4.640612
      px      :     1.509972
      py      :     1.434806
      dz2     :     0.003532  d :     0.029046
      dxz     :     0.005638
      dyz     :     0.003540
      dx2y2   :     0.008706
      dxy     :     0.007631
 30 H s       :     0.768750  s :     0.768750
 31 H s       :     0.728079  s :     0.728079
 32 H s       :     0.736667  s :     0.736667


                     *******************************
                     * LOEWDIN POPULATION ANALYSIS *
                     *******************************

----------------------
LOEWDIN ATOMIC CHARGES
----------------------
   0 N :   -0.151295
   1 C :   -0.071008
   2 C :   -0.115463
   3 C :   -0.061357
   4 C :   -0.155443
   5 C :    0.043577
   6 C :   -0.159532
   7 C :   -0.151020
   8 C :    0.009181
   9 H :    0.265031
  10 H :    0.142524
  11 H :    0.143140
  12 H :    0.142589
  13 H :    0.138435
  14 O :   -0.219743
  15 C :   -0.172431
  16 H :    0.107956
  17 H :    0.109518
  18 H :    0.124608
  19 C :   -0.236154
  20 C :   -0.145194
  21 N :   -0.247786
  22 C :    0.108723
  23 C :   -0.399323
  24 H :    0.133291
  25 H :    0.136858
  26 H :    0.124400
  27 H :    0.133930
  28 H :    0.252833
  29 O :   -0.282008
  30 H :    0.140684
  31 H :    0.157511
  32 H :    0.152966

-------------------------------
LOEWDIN REDUCED ORBITAL CHARGES
-------------------------------
  0 N s       :     3.075490  s :     3.075490
      pz      :     1.477546  p :     3.981537
      px      :     1.243468
      py      :     1.260523
      dz2     :     0.010967  d :     0.094267
      dxz     :     0.018237
      dyz     :     0.011643
      dx2y2   :     0.027301
      dxy     :     0.026119
  1 C s       :     2.885215  s :     2.885215
      pz      :     1.007632  p :     3.062473
      px      :     1.027400
      py      :     1.027440
      dz2     :     0.020102  d :     0.123321
      dxz     :     0.016629
      dyz     :     0.021103
      dx2y2   :     0.026326
      dxy     :     0.039160
  2 C s       :     2.841456  s :     2.841456
      pz      :     1.063352  p :     3.165321
      px      :     1.044739
      py      :     1.057231
      dz2     :     0.009871  d :     0.108685
      dxz     :     0.019094
      dyz     :     0.016812
      dx2y2   :     0.033739
      dxy     :     0.029169
  3 C s       :     2.832212  s :     2.832212
      pz      :     1.022027  p :     3.115440
      px      :     1.047319
      py      :     1.046094
      dz2     :     0.012795  d :     0.113705
      dxz     :     0.018585
      dyz     :     0.017472
      dx2y2   :     0.036759
      dxy     :     0.028093
  4 C s       :     2.891274  s :     2.891274
      pz      :     1.047144  p :     3.177219
      px      :     1.059764
      py      :     1.070311
      dz2     :     0.007889  d :     0.086950
      dxz     :     0.017008
      dyz     :     0.011033
      dx2y2   :     0.027296
      dxy     :     0.023724
  5 C s       :     2.828147  s :     2.828147
      pz      :     1.015682  p :     2.955096
      px      :     0.955177
      py      :     0.984237
      dz2     :     0.018543  d :     0.173180
      dxz     :     0.025091
      dyz     :     0.021595
      dx2y2   :     0.056051
      dxy     :     0.051900
  6 C s       :     2.894642  s :     2.894642
      pz      :     1.039778  p :     3.178185
      px      :     1.075484
      py      :     1.062923
      dz2     :     0.008132  d :     0.086705
      dxz     :     0.011515
      dyz     :     0.015744
      dx2y2   :     0.028952
      dxy     :     0.022363
  7 C s       :     2.886247  s :     2.886247
      pz      :     1.035779  p :     3.174741
      px      :     1.064973
      py      :     1.073989
      dz2     :     0.007434  d :     0.090033
      dxz     :     0.018252
      dyz     :     0.011476
      dx2y2   :     0.029254
      dxy     :     0.023616
  8 C s       :     2.813896  s :     2.813896
      pz      :     1.028559  p :     3.029130
      px      :     0.985439
      py      :     1.015131
      dz2     :     0.016024  d :     0.147793
      dxz     :     0.026599
      dyz     :     0.020251
      dx2y2   :     0.041877
      dxy     :     0.043042
  9 H s       :     0.734969  s :     0.734969
 10 H s       :     0.857476  s :     0.857476
 11 H s       :     0.856860  s :     0.856860
 12 H s       :     0.857411  s :     0.857411
 13 H s       :     0.861565  s :     0.861565
 14 O s       :     3.441155  s :     3.441155
      pz      :     1.534535  p :     4.708868
      px      :     1.589546
      py      :     1.584787
      dz2     :     0.018222  d :     0.069720
      dxz     :     0.011820
      dyz     :     0.014242
      dx2y2   :     0.010200
      dxy     :     0.015236
 15 C s       :     2.957687  s :     2.957687
      pz      :     0.903073  p :     3.093777
      px      :     1.129462
      py      :     1.061241
      dz2     :     0.033516  d :     0.120967
      dxz     :     0.018379
      dyz     :     0.038013
      dx2y2   :     0.005850
      dxy     :     0.025209
 16 H s       :     0.892044  s :     0.892044
 17 H s       :     0.890482  s :     0.890482
 18 H s       :     0.875392  s :     0.875392
 19 C s       :     2.906671  s :     2.906671
      pz      :     1.076162  p :     3.239401
      px      :     1.093374
      py      :     1.069865
      dz2     :     0.007965  d :     0.090083
      dxz     :     0.023898
      dyz     :     0.025581
      dx2y2   :     0.010426
      dxy     :     0.022213
 20 C s       :     2.901111  s :     2.901111
      pz      :     1.050238  p :     3.122939
      px      :     1.017657
      py      :     1.055044
      dz2     :     0.010498  d :     0.121144
      dxz     :     0.037492
      dyz     :     0.029052
      dx2y2   :     0.018370
      dxy     :     0.025731
 21 N s       :     3.121172  s :     3.121172
      pz      :     1.267410  p :     4.046438
      px      :     1.260060
      py      :     1.518968
      dz2     :     0.014735  d :     0.080176
      dxz     :     0.025620
      dyz     :     0.017569
      dx2y2   :     0.012827
      dxy     :     0.009425
 22 C s       :     2.834495  s :     2.834495
      pz      :     0.924824  p :     2.784408
      px      :     0.990513
      py      :     0.869071
      dz2     :     0.060881  d :     0.272375
      dxz     :     0.052633
      dyz     :     0.059798
      dx2y2   :     0.058756
      dxy     :     0.040307
 23 C s       :     2.964129  s :     2.964129
      pz      :     1.131638  p :     3.372646
      px      :     1.106206
      py      :     1.134802
      dz2     :     0.011166  d :     0.062547
      dxz     :     0.017106
      dyz     :     0.009471
      dx2y2   :     0.018373
      dxy     :     0.006431
 24 H s       :     0.866709  s :     0.866709
 25 H s       :     0.863142  s :     0.863142
 26 H s       :     0.875600  s :     0.875600
 27 H s       :     0.866070  s :     0.866070
 28 H s       :     0.747167  s :     0.747167
 29 O s       :     3.523272  s :     3.523272
      pz      :     1.690296  p :     4.703783
      px      :     1.556135
      py      :     1.457352
      dz2     :     0.007430  d :     0.054953
      dxz     :     0.010128
      dyz     :     0.007478
      dx2y2   :     0.012701
      dxy     :     0.017217
 30 H s       :     0.859316  s :     0.859316
 31 H s       :     0.842489  s :     0.842489
 32 H s       :     0.847034  s :     0.847034


                      *****************************
                      * MAYER POPULATION ANALYSIS *
                      *****************************

  NA   - Mulliken gross atomic population
  ZA   - Total nuclear charge
  QA   - Mulliken gross atomic charge
  VA   - Mayer's total valence
  BVA  - Mayer's bonded valence
  FA   - Mayer's free valence

  ATOM       NA         ZA         QA         VA         BVA        FA
  0 N      7.6927     7.0000    -0.6927     3.1761     3.1761    -0.0000
  1 C      6.0411     6.0000    -0.0411     3.6911     3.6911    -0.0000
  2 C      5.9992     6.0000     0.0008     3.7047     3.7047     0.0000
  3 C      5.9327     6.0000     0.0673     3.7308     3.7308     0.0000
  4 C      6.4331     6.0000    -0.4331     3.7787     3.7787     0.0000
  5 C      5.6370     6.0000     0.3630     3.7837     3.7837    -0.0000
  6 C      6.3130     6.0000    -0.3130     3.8290     3.8290    -0.0000
  7 C      6.2649     6.0000    -0.2649     3.7654     3.7654     0.0000
  8 C      5.6445     6.0000     0.3555     3.5533     3.5533     0.0000
  9 H      0.6370     1.0000     0.3630     0.8487     0.8487    -0.0000
 10 H      0.7453     1.0000     0.2547     0.9003     0.9003    -0.0000
 11 H      0.7848     1.0000     0.2152     0.9250     0.9250     0.0000
 12 H      0.7709     1.0000     0.2291     0.9121     0.9121     0.0000
 13 H      0.7822     1.0000     0.2178     0.9131     0.9131    -0.0000
 14 O      8.4853     8.0000    -0.4853     2.0221     2.0221    -0.0000
 15 C      6.3767     6.0000    -0.3767     3.7031     3.7031    -0.0000
 16 H      0.8014     1.0000     0.1986     0.9097     0.9097     0.0000
 17 H      0.7996     1.0000     0.2004     0.9111     0.9111    -0.0000
 18 H      0.7786     1.0000     0.2214     0.9147     0.9147    -0.0000
 19 C      6.5294     6.0000    -0.5294     3.6886     3.6886     0.0000
 20 C      6.2897     6.0000    -0.2897     3.7041     3.7041    -0.0000
 21 N      7.5977     7.0000    -0.5977     2.9931     2.9931    -0.0000
 22 C      5.5050     6.0000     0.4950     4.0706     4.0706    -0.0000
 23 C      6.7830     6.0000    -0.7830     3.6569     3.6569     0.0000
 24 H      0.7710     1.0000     0.2290     0.9047     0.9047     0.0000
 25 H      0.7685     1.0000     0.2315     0.9058     0.9058    -0.0000
 26 H      0.7650     1.0000     0.2350     0.9002     0.9002     0.0000
 27 H      0.7602     1.0000     0.2398     0.9021     0.9021     0.0000
 28 H      0.6500     1.0000     0.3500     0.8555     0.8555     0.0000
 29 O      8.4269     8.0000    -0.4269     2.1820     2.1820    -0.0000
 30 H      0.7687     1.0000     0.2313     0.9072     0.9072    -0.0000
 31 H      0.7281     1.0000     0.2719     0.8833     0.8833     0.0000
 32 H      0.7367     1.0000     0.2633     0.9067     0.9067     0.0000

  Mayer bond orders larger than 0.100000
B(  0-N ,  1-C ) :   1.1380 B(  0-N ,  8-C ) :   1.0171 B(  0-N ,  9-H ) :   0.8317 
B(  1-C ,  2-C ) :   1.5537 B(  1-C , 10-H ) :   0.9050 B(  2-C ,  3-C ) :   1.2462 
B(  2-C , 19-C ) :   0.9540 B(  3-C ,  4-C ) :   1.2418 B(  3-C ,  8-C ) :   1.2446 
B(  4-C ,  5-C ) :   1.4876 B(  4-C , 11-H ) :   0.9294 B(  5-C ,  6-C ) :   1.3158 
B(  5-C , 14-O ) :   0.9528 B(  6-C ,  7-C ) :   1.4856 B(  6-C , 12-H ) :   0.9118 
B(  7-C ,  8-C ) :   1.2919 B(  7-C , 13-H ) :   0.9198 B( 14-O , 15-C ) :   0.9524 
B( 15-C , 16-H ) :   0.9115 B( 15-C , 17-H ) :   0.9130 B( 15-C , 18-H ) :   0.9281 
B( 19-C , 20-C ) :   0.9467 B( 19-C , 24-H ) :   0.9263 B( 19-C , 25-H ) :   0.9127 
B( 20-C , 21-N ) :   0.9724 B( 20-C , 26-H ) :   0.9129 B( 20-C , 27-H ) :   0.9040 
B( 21-N , 22-C ) :   1.1360 B( 21-N , 28-H ) :   0.8264 B( 22-C , 23-C ) :   0.9327 
B( 22-C , 29-O ) :   2.0258 B( 23-C , 30-H ) :   0.9119 B( 23-C , 31-H ) :   0.8874 
B( 23-C , 32-H ) :   0.9190 

-------
TIMINGS
-------

Total SCF time: 0 days 0 hours 4 min 54 sec 

Total time                  ....     294.516 sec
Sum of individual times     ....     287.114 sec  ( 97.5%)

Fock matrix formation       ....     260.182 sec  ( 88.3%)
  Split-RI-J                ....      18.577 sec  (  7.1% of F)
  Chain of spheres X        ....     184.925 sec  ( 71.1% of F)
  XC integration            ....      42.420 sec  ( 16.3% of F)
    Basis function eval.    ....      12.951 sec  ( 30.5% of XC)
    Density eval.           ....       7.760 sec  ( 18.3% of XC)
    XC-Functional eval.     ....       3.410 sec  (  8.0% of XC)
    XC-Potential eval.      ....       4.410 sec  ( 10.4% of XC)
Diagonalization             ....       2.880 sec  (  1.0%)
Density matrix formation    ....       0.409 sec  (  0.1%)
Population analysis         ....       0.041 sec  (  0.0%)
Initial guess               ....       0.072 sec  (  0.0%)
Orbital Transformation      ....       0.000 sec  (  0.0%)
Orbital Orthonormalization  ....       0.000 sec  (  0.0%)
DIIS solution               ....       6.039 sec  (  2.1%)
SOSCF solution              ....       2.201 sec  (  0.7%)
Grid generation             ....      15.289 sec  (  5.2%)

Maximum memory used throughout the entire SCF-calculation: 99.9 MB


-------------------------------------------------------------------------------
                          DFT DISPERSION CORRECTION                            
                                                                               
                              DFTD3 V3.1  Rev 1                                
                          USING Becke-Johnson damping                          
-------------------------------------------------------------------------------
The PBEh-3c composite method is recognized
Using three-body term ABC
Active option DFTDOPT                   ...         4   

molecular C6(AA) [au] = 10857.588466 


            DFT-D V3
 parameters
 s6 scaling factor         :     1.0000 
 a1 scaling factor         :     0.4860 
 s8 scaling factor         :     0.0000 
 a2 scaling factor         :     4.5000 
 Damping factor alpha9(ATM):    16.0000 
 ad hoc parameters k1-k3   :    16.0000     1.3333    -4.0000 

 Edisp/kcal,au: -14.398673776794  -0.022945744783 
 E6   /kcal   : -14.582889216 
 E8   /kcal   :  -0.000000000 
 E6(ABC)      :   0.184215440 
 % E8         :   0.000000000 
 % E6(ABC)    :  -1.279391717 

-------------------------   ----------------
Dispersion correction           -0.022945745
-------------------------   ----------------

------------------   -----------------
gCP correction             0.061840954
------------------   -----------------

-------------------------   --------------------
FINAL SINGLE POINT ENERGY      -763.324061497685
-------------------------   --------------------


                            ***************************************
                            *     ORCA property calculations      *
                            ***************************************

                                    ---------------------
                                    Active property flags
                                    ---------------------
   (+) Dipole Moment


------------------------------------------------------------------------------
                       ORCA ELECTRIC PROPERTIES CALCULATION
------------------------------------------------------------------------------

Dipole Moment Calculation                       ... on
Quadrupole Moment Calculation                   ... off
Polarizability Calculation                      ... off
GBWName                                         ... pbeh-3c.gbw
Electron density                                ... pbeh-3c.scfp
The origin for moment calculation is the CENTER OF MASS  = ( 0.126293,  0.415352 -0.131473)

-------------
DIPOLE MOMENT
-------------
                                X             Y             Z
Electronic contribution:      1.20152       7.47629      -2.89646
Nuclear contribution   :     -1.61442      -7.51903       2.75342
                        -----------------------------------------
Total Dipole Moment    :     -0.41290      -0.04274      -0.14304
                        -----------------------------------------
Magnitude (a.u.)       :      0.43907
Magnitude (Debye)      :      1.11601



--------------------
Rotational spectrum 
--------------------
 
Rotational constants in cm-1:     0.026487     0.009735     0.008996 
Rotational constants in MHz :   794.058070   291.849918   269.683199 

 Dipole components along the rotational axes: 
x,y,z [a.u.] :     0.415645    -0.042217    -0.135039 
x,y,z [Debye]:     1.056485    -0.107308    -0.343241 

 

Timings for individual modules:

Sum of individual times         ...      296.215 sec (=   4.937 min)
GTO integral calculation        ...        1.204 sec (=   0.020 min)   0.4 %
SCF iterations                  ...      295.010 sec (=   4.917 min)  99.6 %
                             ****ORCA TERMINATED NORMALLY****
TOTAL RUN TIME: 0 days 0 hours 4 minutes 57 seconds 580 msec
