
                                 *****************
                                 * O   R   C   A *
                                 *****************

                                            #,                                       
                                            ###                                      
                                            ####                                     
                                            #####                                    
                                            ######                                   
                                           ########,                                 
                                     ,,################,,,,,                         
                               ,,#################################,,                 
                          ,,##########################################,,             
                       ,#########################################, ''#####,          
                    ,#############################################,,   '####,        
                  ,##################################################,,,,####,       
                ,###########''''           ''''###############################       
              ,#####''   ,,,,##########,,,,          '''####'''          '####       
            ,##' ,,,,###########################,,,                        '##       
           ' ,,###''''                  '''############,,,                           
         ,,##''                                '''############,,,,        ,,,,,,###''
      ,#''                                            '''#######################'''  
     '                                                          ''''####''''         
             ,#######,   #######,   ,#######,      ##                                
            ,#'     '#,  ##    ##  ,#'     '#,    #''#        ######   ,####,        
            ##       ##  ##   ,#'  ##            #'  '#       #        #'  '#        
            ##       ##  #######   ##           ,######,      #####,   #    #        
            '#,     ,#'  ##    ##  '#,     ,#' ,#      #,         ##   #,  ,#        
             '#######'   ##     ##  '#######'  #'      '#     #####' # '####'        



                  #######################################################
                  #                        -***-                        #
                  #          Department of theory and spectroscopy      #
                  #    Directorship and core code : Frank Neese         #
                  #        Max Planck Institute fuer Kohlenforschung    #
                  #                Kaiser Wilhelm Platz 1               #
                  #                 D-45470 Muelheim/Ruhr               #
                  #                      Germany                        #
                  #                                                     #
                  #                  All rights reserved                #
                  #                        -***-                        #
                  #######################################################


                         Program Version 5.0.3 -  RELEASE  -


 With contributions from (in alphabetic order):
   Daniel Aravena         : Magnetic Suceptibility
   Michael Atanasov       : Ab Initio Ligand Field Theory (pilot matlab implementation)
   Alexander A. Auer      : GIAO ZORA, VPT2 properties, NMR spectrum
   Ute Becker             : Parallelization
   Giovanni Bistoni       : ED, misc. LED, open-shell LED, HFLD
   Martin Brehm           : Molecular dynamics
   Dmytro Bykov           : SCF Hessian
   Vijay G. Chilkuri      : MRCI spin determinant printing, contributions to CSF-ICE
   Dipayan Datta          : RHF DLPNO-CCSD density
   Achintya Kumar Dutta   : EOM-CC, STEOM-CC
   Dmitry Ganyushin       : Spin-Orbit,Spin-Spin,Magnetic field MRCI
   Miquel Garcia          : C-PCM and meta-GGA Hessian, CC/C-PCM, Gaussian charge scheme
   Yang Guo               : DLPNO-NEVPT2, F12-NEVPT2, CIM, IAO-localization
   Andreas Hansen         : Spin unrestricted coupled pair/coupled cluster methods
   Benjamin Helmich-Paris : MC-RPA, TRAH-SCF, COSX integrals
   Lee Huntington         : MR-EOM, pCC
   Robert Izsak           : Overlap fitted RIJCOSX, COSX-SCS-MP3, EOM
   Marcus Kettner         : VPT2
   Christian Kollmar      : KDIIS, OOCD, Brueckner-CCSD(T), CCSD density, CASPT2, CASPT2-K
   Simone Kossmann        : Meta GGA functionals, TD-DFT gradient, OOMP2, MP2 Hessian
   Martin Krupicka        : Initial AUTO-CI
   Lucas Lang             : DCDCAS
   Marvin Lechner         : AUTO-CI (C++ implementation), FIC-MRCC
   Dagmar Lenk            : GEPOL surface, SMD
   Dimitrios Liakos       : Extrapolation schemes; Compound Job, initial MDCI parallelization
   Dimitrios Manganas     : Further ROCIS development; embedding schemes
   Dimitrios Pantazis     : SARC Basis sets
   Anastasios Papadopoulos: AUTO-CI, single reference methods and gradients
   Taras Petrenko         : DFT Hessian,TD-DFT gradient, ASA, ECA, R-Raman, ABS, FL, XAS/XES, NRVS
   Peter Pinski           : DLPNO-MP2, DLPNO-MP2 Gradient
   Christoph Reimann      : Effective Core Potentials
   Marius Retegan         : Local ZFS, SOC
   Christoph Riplinger    : Optimizer, TS searches, QM/MM, DLPNO-CCSD(T), (RO)-DLPNO pert. Triples
   Tobias Risthaus        : Range-separated hybrids, TD-DFT gradient, RPA, STAB
   Michael Roemelt        : Original ROCIS implementation
   Masaaki Saitow         : Open-shell DLPNO-CCSD energy and density
   Barbara Sandhoefer     : DKH picture change effects
   Avijit Sen             : IP-ROCIS
   Kantharuban Sivalingam : CASSCF convergence, NEVPT2, FIC-MRCI
   Bernardo de Souza      : ESD, SOC TD-DFT
   Georgi Stoychev        : AutoAux, RI-MP2 NMR, DLPNO-MP2 response
   Willem Van den Heuvel  : Paramagnetic NMR
   Boris Wezisla          : Elementary symmetry handling
   Frank Wennmohs         : Technical directorship


 We gratefully acknowledge several colleagues who have allowed us to
 interface, adapt or use parts of their codes:
   Stefan Grimme, W. Hujo, H. Kruse, P. Pracht,  : VdW corrections, initial TS optimization,
                  C. Bannwarth, S. Ehlert          DFT functionals, gCP, sTDA/sTD-DF
   Ed Valeev, F. Pavosevic, A. Kumar             : LibInt (2-el integral package), F12 methods
   Garnet Chan, S. Sharma, J. Yang, R. Olivares  : DMRG
   Ulf Ekstrom                                   : XCFun DFT Library
   Mihaly Kallay                                 : mrcc  (arbitrary order and MRCC methods)
   Jiri Pittner, Ondrej Demel                    : Mk-CCSD
   Frank Weinhold                                : gennbo (NPA and NBO analysis)
   Christopher J. Cramer and Donald G. Truhlar   : smd solvation model
   Lars Goerigk                                  : TD-DFT with DH, B97 family of functionals
   V. Asgeirsson, H. Jonsson                     : NEB implementation
   FAccTs GmbH                                   : IRC, NEB, NEB-TS, DLPNO-Multilevel, CI-OPT
                                                   MM, QMMM, 2- and 3-layer-ONIOM, Crystal-QMMM,
                                                   LR-CPCM, SF, NACMEs, symmetry and pop. for TD-DFT,
                                                   nearIR, NL-DFT gradient (VV10), updates on ESD,
                                                   ML-optimized integration grids
   S Lehtola, MJT Oliveira, MAL Marques          : LibXC Library
   Liviu Ungur et al                             : ANISO software


 Your calculation uses the libint2 library for the computation of 2-el integrals
 For citations please refer to: http://libint.valeyev.net

 Your ORCA version has been built with support for libXC version: 5.1.0
 For citations please refer to: https://tddft.org/programs/libxc/

 This ORCA versions uses:
   CBLAS   interface :  Fast vector & matrix operations
   LAPACKE interface :  Fast linear algebra routines
   SCALAPACK package :  Parallel linear algebra routines
   Shared memory     :  Shared parallel matrices
   BLAS/LAPACK       :  OpenBLAS 0.3.15  USE64BITINT DYNAMIC_ARCH NO_AFFINITY Haswell SINGLE_THREADED
        Core in use  :  Haswell
   Copyright (c) 2011-2014, The OpenBLAS Project




***************************************
The coordinates will be read from file: R57.xyz
***************************************


Your calculation utilizes the geometrical counterpoise correction gCP
Please cite in your paper:
H.Kruse, S. Grimme J.Chem.Phys., 136, (2012), 154101 
   

Your calculation utilizes the atom-pairwise dispersion correction
with the Becke-Johnson damping scheme (D3BJ)
Cite in your paper:
S.Grimme, S.Ehrlich, L.Goerigk, J Comput Chem, (2011), 32, 1456–1465 
S.Grimme, J.Antony, S.Ehrlich and H.Krieg, J.Chem.Phys., 132, (2010), 154104 
   

Your calculation employs the composite approach PBEh-3c.
Please cite in your paper:
S. Grimme, J. G. Brandenburg, C. Bannwarth, A. Hansen J.Chem.Phys., 143, (2015), 054107 
   

================================================================================

----- Orbital basis set information -----
Your calculation utilizes the basis: def2-mSVP

----- AuxJ basis set information -----
Your calculation utilizes the auxiliary basis: def2/J
   F. Weigend, Phys. Chem. Chem. Phys. 8, 1057 (2006).

================================================================================
                                        WARNINGS
                       Please study these warnings very carefully!
================================================================================


INFO   : the flag for use of the SHARK integral package has been found!

================================================================================
                                       INPUT FILE
================================================================================
NAME = pbeh-3c.inp
|  1> ! PBEh-3c def2/J TightSCF DefGrid3
|  2> 
|  3> %maxcore 60000
|  4> 
|  5> %pal
|  6> nprocs 4
|  7> end
|  8> 
|  9> *xyzfile 0 1 R57.xyz
| 10> 
| 11>                          ****END OF INPUT****
================================================================================

                       ****************************
                       * Single Point Calculation *
                       ****************************

---------------------------------
CARTESIAN COORDINATES (ANGSTROEM)
---------------------------------
  C      0.000000    1.190474    0.026473
  C      0.000000    0.732134   -1.237476
  C      0.000000   -0.732134   -1.237476
  C      0.000000   -1.190474    0.026473
  C      0.000000    0.000000    0.952437
  C      0.000000    2.602182    0.502970
  C      0.000000   -2.602182    0.502970
  H      0.000000    1.345416   -2.127560
  H      0.000000   -1.345416   -2.127560
  H     -0.875055    0.000000    1.611908
  H      0.875055    0.000000    1.611908
  H     -0.876877    2.817896    1.120235
  H      0.000000    3.300009   -0.333923
  H      0.876877    2.817896    1.120235
  H      0.000000   -3.300009   -0.333923
  H     -0.876877   -2.817896    1.120235
  H      0.876877   -2.817896    1.120235

----------------------------
CARTESIAN COORDINATES (A.U.)
----------------------------
  NO LB      ZA    FRAG     MASS         X           Y           Z
   0 C     6.0000    0    12.011    0.000000    2.249670    0.050027
   1 C     6.0000    0    12.011    0.000000    1.383533   -2.338491
   2 C     6.0000    0    12.011    0.000000   -1.383533   -2.338491
   3 C     6.0000    0    12.011    0.000000   -2.249670    0.050027
   4 C     6.0000    0    12.011    0.000000    0.000000    1.799845
   5 C     6.0000    0    12.011    0.000000    4.917411    0.950476
   6 C     6.0000    0    12.011    0.000000   -4.917411    0.950476
   7 H     1.0000    0     1.008    0.000000    2.542468   -4.020505
   8 H     1.0000    0     1.008    0.000000   -2.542468   -4.020505
   9 H     1.0000    0     1.008   -1.653614    0.000000    3.046064
  10 H     1.0000    0     1.008    1.653614    0.000000    3.046064
  11 H     1.0000    0     1.008   -1.657057    5.325051    2.116937
  12 H     1.0000    0     1.008    0.000000    6.236113   -0.631023
  13 H     1.0000    0     1.008    1.657057    5.325051    2.116937
  14 H     1.0000    0     1.008    0.000000   -6.236113   -0.631023
  15 H     1.0000    0     1.008   -1.657057   -5.325051    2.116937
  16 H     1.0000    0     1.008    1.657057   -5.325051    2.116937

--------------------------------
INTERNAL COORDINATES (ANGSTROEM)
--------------------------------
 C      0   0   0     0.000000000000     0.00000000     0.00000000
 C      1   0   0     1.344485915661     0.00000000     0.00000000
 C      2   1   0     1.464267800000   109.93193179     0.00000000
 C      3   2   1     1.344485915661   109.93193179     0.00000000
 C      1   2   3     1.508190057879   107.94424402     0.00000000
 C      1   2   3     1.489955900667   128.58313142   180.00000085
 C      4   3   2     1.489955900667   128.58313142   180.00000085
 H      2   1   3     1.080908951098   125.50060694   180.00000085
 H      3   2   1     1.080908951098   124.56746127   180.00000000
 H      5   1   2     1.095729472933   111.68561833   239.25273176
 H      5   1   2     1.095729472933   111.68561833   120.74726824
 H      6   1   2     1.093828864275   111.55072324   120.46804041
 H      6   1   2     1.089657017312   111.17118220     0.00000000
 H      6   1   2     1.093828864275   111.55072324   239.53195959
 H      7   4   3     1.089657017312   111.17118220     0.00000000
 H      7   4   3     1.093828864275   111.55072324   239.53195959
 H      7   4   3     1.093828864275   111.55072324   120.46804041

---------------------------
INTERNAL COORDINATES (A.U.)
---------------------------
 C      0   0   0     0.000000000000     0.00000000     0.00000000
 C      1   0   0     2.540710171514     0.00000000     0.00000000
 C      2   1   0     2.767065128719   109.93193179     0.00000000
 C      3   2   1     2.540710171514   109.93193179     0.00000000
 C      1   2   3     2.850066167294   107.94424402     0.00000000
 C      1   2   3     2.815608603880   128.58313142   180.00000085
 C      4   3   2     2.815608603880   128.58313142   180.00000085
 H      2   1   3     2.042621893279   125.50060694   180.00000085
 H      3   2   1     2.042621893279   124.56746127   180.00000000
 H      5   1   2     2.070628620710   111.68561833   239.25273176
 H      5   1   2     2.070628620710   111.68561833   120.74726824
 H      6   1   2     2.067036990858   111.55072324   120.46804041
 H      6   1   2     2.059153342626   111.17118220     0.00000000
 H      6   1   2     2.067036990858   111.55072324   239.53195959
 H      7   4   3     2.059153342626   111.17118220     0.00000000
 H      7   4   3     2.067036990858   111.55072324   239.53195959
 H      7   4   3     2.067036990858   111.55072324   120.46804041

---------------------
BASIS SET INFORMATION
---------------------
There are 2 groups of distinct atoms

 Group   1 Type C   : 8s4p1d contracted to 4s2p1d pattern {5111/31/1}
 Group   2 Type H   : 4s contracted to 2s pattern {31}

Atom   0C    basis set group =>   1
Atom   1C    basis set group =>   1
Atom   2C    basis set group =>   1
Atom   3C    basis set group =>   1
Atom   4C    basis set group =>   1
Atom   5C    basis set group =>   1
Atom   6C    basis set group =>   1
Atom   7H    basis set group =>   2
Atom   8H    basis set group =>   2
Atom   9H    basis set group =>   2
Atom  10H    basis set group =>   2
Atom  11H    basis set group =>   2
Atom  12H    basis set group =>   2
Atom  13H    basis set group =>   2
Atom  14H    basis set group =>   2
Atom  15H    basis set group =>   2
Atom  16H    basis set group =>   2
---------------------------------
AUXILIARY/J BASIS SET INFORMATION
---------------------------------
There are 2 groups of distinct atoms

 Group   1 Type C   : 12s5p4d2f1g contracted to 6s4p3d1f1g pattern {711111/2111/211/2/1}
 Group   2 Type H   : 5s2p1d contracted to 3s1p1d pattern {311/2/1}

Atom   0C    basis set group =>   1
Atom   1C    basis set group =>   1
Atom   2C    basis set group =>   1
Atom   3C    basis set group =>   1
Atom   4C    basis set group =>   1
Atom   5C    basis set group =>   1
Atom   6C    basis set group =>   1
Atom   7H    basis set group =>   2
Atom   8H    basis set group =>   2
Atom   9H    basis set group =>   2
Atom  10H    basis set group =>   2
Atom  11H    basis set group =>   2
Atom  12H    basis set group =>   2
Atom  13H    basis set group =>   2
Atom  14H    basis set group =>   2
Atom  15H    basis set group =>   2
Atom  16H    basis set group =>   2


           ************************************************************
           *        Program running with 4 parallel MPI-processes     *
           *              working on a common directory               *
           ************************************************************
------------------------------------------------------------------------------
                           ORCA GTO INTEGRAL CALCULATION
                           -- RI-GTO INTEGRALS CHOSEN --
------------------------------------------------------------------------------
------------------------------------------------------------------------------
                   ___                                                        
                  /   \      - P O W E R E D   B Y -                         
                 /     \                                                     
                 |  |  |   _    _      __       _____    __    __             
                 |  |  |  | |  | |    /  \     |  _  \  |  |  /  |          
                  \  \/   | |  | |   /    \    | | | |  |  | /  /          
                 / \  \   | |__| |  /  /\  \   | |_| |  |  |/  /          
                |  |  |   |  __  | /  /__\  \  |    /   |      \           
                |  |  |   | |  | | |   __   |  |    \   |  |\   \          
                \     /   | |  | | |  |  |  |  | |\  \  |  | \   \       
                 \___/    |_|  |_| |__|  |__|  |_| \__\ |__|  \__/        
                                                                              
                      - O R C A' S   B I G   F R I E N D -                    
                                      &                                       
                       - I N T E G R A L  F E E D E R -                       
                                                                              
 v1 FN, 2020, v2 2021                                                         
------------------------------------------------------------------------------


Reading SHARK input file pbeh-3c.SHARKINP.tmp ... ok
----------------------
SHARK INTEGRAL PACKAGE
----------------------

Number of atoms                             ...     17
Number of basis functions                   ...    125
Number of shells                            ...     69
Maximum angular momentum                    ...      2
Integral batch strategy                     ... SHARK/LIBINT Hybrid
RI-J (if used) integral strategy            ... SPLIT-RIJ (Revised 2003 algorithm where possible)
Printlevel                                  ...      1
Contraction scheme used                     ... SEGMENTED contraction
Coulomb Range Separation                    ... NOT USED
Exchange Range Separation                   ... NOT USED
Finite Nucleus Model                        ... NOT USED
Auxiliary Coulomb fitting basis             ... AVAILABLE
   # of basis functions in Aux-J            ...    453
   # of shells in Aux-J                     ...    155
   Maximum angular momentum in Aux-J        ...      4
Auxiliary J/K fitting basis                 ... NOT available
Auxiliary Correlation fitting basis         ... NOT available
Auxiliary 'external' fitting basis          ... NOT available
Integral threshold                          ...     2.500000e-11
Primitive cut-off                           ...     2.500000e-12
Primitive pair pre-selection threshold      ...     2.500000e-12

Calculating pre-screening integrals         ... done (  0.1 sec) Dimension = 69
Organizing shell pair data                  ... done (  0.4 sec)
Shell pair information
Total number of shell pairs                 ...      2415
Shell pairs after pre-screening             ...      2237
Total number of primitive shell pairs       ...      8767
Primitive shell pairs kept                  ...      5894
          la=0 lb=0:   1037 shell pairs
          la=1 lb=0:    662 shell pairs
          la=1 lb=1:    105 shell pairs
          la=2 lb=0:    308 shell pairs
          la=2 lb=1:     98 shell pairs
          la=2 lb=2:     27 shell pairs

Calculating one electron integrals          ... done (  0.0 sec)
Calculating RI/J V-Matrix + Cholesky decomp.... done (  0.1 sec)
Calculating Nuclear repulsion               ... done (  0.0 sec) ENN=    283.309319030951 Eh

SHARK setup successfully completed in   1.1 seconds

Maximum memory used throughout the entire GTOINT-calculation: 10.9 MB


           ************************************************************
           *        Program running with 4 parallel MPI-processes     *
           *              working on a common directory               *
           ************************************************************
-------------------------------------------------------------------------------
                                 ORCA SCF
-------------------------------------------------------------------------------

------------
SCF SETTINGS
------------
Hamiltonian:
 Density Functional     Method          .... DFT(GTOs)
 Exchange Functional    Exchange        .... PBE
   PBE kappa parameter   XKappa         ....  1.024500
   PBE mue parameter    XMuePBE         ....  0.123457
 Correlation Functional Correlation     .... PBE
   PBE beta parameter  CBetaPBE         ....  0.030000
 LDA part of GGA corr.  LDAOpt          .... PW91-LDA
 Gradients option       PostSCFGGA      .... off
 Hybrid DFT is turned on
   Fraction HF Exchange ScalHFX         ....  0.420000
   Scaling of DF-GGA-X  ScalDFX         ....  0.580000
   Scaling of DF-GGA-C  ScalDFC         ....  1.000000
   Scaling of DF-LDA-C  ScalLDAC        ....  1.000000
   Perturbative correction              ....  0.000000
   Density functional embedding theory  .... OFF
 RI-approximation to the Coulomb term is turned on
   Number of AuxJ basis functions       .... 453
   RIJ-ON(X) (HFX calculated with O(N)) .... on
   Number of AuxJ basis functions       .... 453
   RIJ-COSX (HFX calculated with COS-X)).... on


General Settings:
 Integral files         IntName         .... pbeh-3c
 Hartree-Fock type      HFTyp           .... RHF
 Total Charge           Charge          ....    0
 Multiplicity           Mult            ....    1
 Number of Electrons    NEL             ....   52
 Basis Dimension        Dim             ....  125
 Nuclear Repulsion      ENuc            ....    283.3093190310 Eh

Convergence Acceleration:
 DIIS                   CNVDIIS         .... on
   Start iteration      DIISMaxIt       ....    12
   Startup error        DIISStart       ....  0.200000
   # of expansion vecs  DIISMaxEq       ....     5
   Bias factor          DIISBfac        ....   1.050
   Max. coefficient     DIISMaxC        ....  10.000
 Trust-Rad. Augm. Hess. CNVTRAH         .... auto
   Auto Start mean grad. ratio tolernc. ....  1.125000
   Auto Start start iteration           ....    20
   Auto Start num. interpolation iter.  ....    10
   Max. Number of Micro iterations      ....    16
   Max. Number of Macro iterations      .... Maxiter - #DIIS iter
   Number of Davidson start vectors     ....     2
   Converg. threshold I  (grad. norm)   ....   1.000e-05
   Converg. threshold II (energy diff.) ....   1.000e-08
   Grad. Scal. Fac. for Micro threshold ....   0.100
   Minimum threshold for Micro iter.    ....   0.010
   NR start threshold (gradient norm)   ....   0.001
   Initial trust radius                 ....   0.400
   Minimum AH scaling param. (alpha)    ....   1.000
   Maximum AH scaling param. (alpha)    .... 1000.000
   Orbital update algorithm             .... Taylor
   White noise on init. David. guess    .... on
   Maximum white noise                  ....   0.010
   Quad. conv. algorithm                .... NR
   COSX micro iterations for RIJONX calc.... off
 SOSCF                  CNVSOSCF        .... on
   Start iteration      SOSCFMaxIt      ....   150
   Startup grad/error   SOSCFStart      ....  0.003300
 Level Shifting         CNVShift        .... on
   Level shift para.    LevelShift      ....    0.2500
   Turn off err/grad.   ShiftErr        ....    0.0010
 Zerner damping         CNVZerner       .... off
 Static damping         CNVDamp         .... on
   Fraction old density DampFac         ....    0.7000
   Max. Damping (<1)    DampMax         ....    0.9800
   Min. Damping (>=0)   DampMin         ....    0.0000
   Turn off err/grad.   DampErr         ....    0.1000
 Fernandez-Rico         CNVRico         .... off

SCF Procedure:
 Maximum # iterations   MaxIter         ....   125
 SCF integral mode      SCFMode         .... Direct
   Integral package                     .... SHARK and LIBINT hybrid scheme
 Reset frequency        DirectResetFreq ....    20
 Integral Threshold     Thresh          ....  2.500e-11 Eh
 Primitive CutOff       TCut            ....  2.500e-12 Eh

Convergence Tolerance:
 Convergence Check Mode ConvCheckMode   .... Total+1el-Energy
 Convergence forced     ConvForced      .... 0
 Energy Change          TolE            ....  1.000e-08 Eh
 1-El. energy change                    ....  1.000e-05 Eh
 Orbital Gradient       TolG            ....  1.000e-05
 Orbital Rotation angle TolX            ....  1.000e-05
 DIIS Error             TolErr          ....  5.000e-07


Diagonalization of the overlap matrix:
Smallest eigenvalue                        ... 1.022e-03
Time for diagonalization                   ...    0.003 sec
Threshold for overlap eigenvalues          ... 1.000e-08
Number of eigenvalues below threshold      ... 0
Time for construction of square roots      ...    0.029 sec
Total time needed                          ...    0.032 sec

--------------------------------
INITIAL GUESS: MINIMAL BASIS EHT
--------------------------------
The minimal basis has 45 functions
EHT matrix was diagonalized
Basis set overlap was calculated now projecting the orbitals
Using GuessMode=FMatrix for the initial guess
C*T matrix was formed
Effective Fockian was calculated
Effective Fockian was diagonalized
Initial density was built
                      ------------------
                      INITIAL GUESS DONE
                      ------------------
-------------------
DFT GRID GENERATION
-------------------

General Integration Accuracy     IntAcc      ... 4.959
Radial Grid Type                 RadialGrid  ... OptM3 with GC (2021)
Angular Grid (max. ang.)         AngularGrid ... 6 (Lebedev-590)
Angular grid pruning method      GridPruning ... 4 (adaptive)
Weight generation scheme         WeightScheme... Becke
Basis function cutoff            BFCut       ... 1.0000e-11
Integration weight cutoff        WCut        ... 1.0000e-14
Angular grids for H and He will be reduced by one unit
Partially contracted basis set               ... off
Rotationally invariant grid construction     ... off

Total number of grid points                  ...   187007
Total number of batches                      ...     2931
Average number of points per batch           ...       63
Average number of grid points per atom       ...    11000
Time for grid setup =    3.214 sec

--------------------
COSX GRID GENERATION
--------------------

GRIDX 1
-------
General Integration Accuracy     IntAcc      ... 4.020
Radial Grid Type                 RadialGrid  ... OptM3 with GC (2021)
Angular Grid (max. ang.)         AngularGrid ... 2 (Lebedev-110)
Angular grid pruning method      GridPruning ... 4 (adaptive)
Weight generation scheme         WeightScheme... Becke
Basis function cutoff            BFCut       ... 1.0000e-11
Integration weight cutoff        WCut        ... 1.0000e-14
Angular grids for H and He will be reduced by one unit
Partially contracted basis set               ... on
Rotationally invariant grid construction     ... off

Total number of grid points                  ...    20213
Total number of batches                      ...      324
Average number of points per batch           ...       62
Average number of grid points per atom       ...     1189
UseSFitting                                  ... on

GRIDX 2
-------
General Integration Accuracy     IntAcc      ... 4.338
Radial Grid Type                 RadialGrid  ... OptM3 with GC (2021)
Angular Grid (max. ang.)         AngularGrid ... 3 (Lebedev-194)
Angular grid pruning method      GridPruning ... 4 (adaptive)
Weight generation scheme         WeightScheme... Becke
Basis function cutoff            BFCut       ... 1.0000e-11
Integration weight cutoff        WCut        ... 1.0000e-14
Angular grids for H and He will be reduced by one unit
Partially contracted basis set               ... on
Rotationally invariant grid construction     ... off

Total number of grid points                  ...    44204
Total number of batches                      ...      698
Average number of points per batch           ...       63
Average number of grid points per atom       ...     2600
UseSFitting                                  ... on

GRIDX 3
-------
General Integration Accuracy     IntAcc      ... 4.871
Radial Grid Type                 RadialGrid  ... OptM3 with GC (2021)
Angular Grid (max. ang.)         AngularGrid ... 4 (Lebedev-302)
Angular grid pruning method      GridPruning ... 4 (adaptive)
Weight generation scheme         WeightScheme... Becke
Basis function cutoff            BFCut       ... 1.0000e-11
Integration weight cutoff        WCut        ... 1.0000e-14
Angular grids for H and He will be reduced by one unit
Partially contracted basis set               ... on
Rotationally invariant grid construction     ... off

Total number of grid points                  ...    86262
Total number of batches                      ...     1358
Average number of points per batch           ...       63
Average number of grid points per atom       ...     5074
UseSFitting                                  ... on

Time for X-Grid setup             =    3.070 sec

--------------
SCF ITERATIONS
--------------
ITER       Energy         Delta-E        Max-DP      RMS-DP      [F,P]     Damp
               ***  Starting incremental Fock matrix formation  ***
  0   -271.5297013286   0.000000000000 0.12225285  0.00475286  0.4142932 0.7000
  1   -271.7095000390  -0.179798710348 0.08790085  0.00348351  0.2910652 0.7000
  2   -271.8378230948  -0.128323055766 0.06339498  0.00254780  0.2056281 0.7000
                               ***Turning on DIIS***
  3   -271.9290620259  -0.091238931129 0.04583241  0.00186743  0.1450856 0.7000
  4   -271.9938289073  -0.064766881449 0.03440429  0.00144581  0.1022371 0.7000
  5   -272.0396920178  -0.045863110428 0.08342800  0.00357325  0.0716464 0.0000
                      *** Initiating the SOSCF procedure ***
                           *** Shutting down DIIS ***
                      *** Re-Reading the Fockian *** 
                      *** Removing any level shift *** 
ITER      Energy       Delta-E        Grad      Rot      Max-DP    RMS-DP
  6   -272.14876916  -0.1090771374  0.001524  0.001524  0.002659  0.000112
               *** Restarting incremental Fock matrix formation ***
  7   -272.14881040  -0.0000412495  0.000495  0.001034  0.001114  0.000059
  8   -272.14881666  -0.0000062568  0.000195  0.000707  0.000758  0.000023
  9   -272.14881667  -0.0000000126  0.000210  0.000319  0.000378  0.000011
 10   -272.14881720  -0.0000005287  0.000023  0.000034  0.000065  0.000002
 11   -272.14881721  -0.0000000029  0.000019  0.000016  0.000036  0.000001
                  ***Gradient check signals convergence***
              ***Rediagonalizing the Fockian in SOSCF/NRSCF***

               *****************************************************
               *                     SUCCESS                       *
               *           SCF CONVERGED AFTER  12 CYCLES          *
               *****************************************************

Old exchange energy                            =    -16.727786821 Eh
New exchange energy                            =    -16.727797532 Eh
Exchange energy change after final integration =     -0.000010711 Eh
Total energy after final integration           =   -272.148827927 Eh
Final COS-X integration done in                =     3.182 sec

----------------
TOTAL SCF ENERGY
----------------

Total Energy       :         -272.14882793 Eh           -7405.54610 eV

Components:
Nuclear Repulsion  :          283.30931903 Eh            7709.23850 eV
Electronic Energy  :         -555.45814696 Eh          -15114.78460 eV
One Electron Energy:         -926.89355091 Eh          -25222.05578 eV
Two Electron Energy:          371.43540395 Eh           10107.27119 eV
Max COSX asymmetry :            0.00000104 Eh               0.00003 eV

Virial components:
Potential Energy   :         -542.05729778 Eh          -14750.12895 eV
Kinetic Energy     :          269.90846985 Eh            7344.58286 eV
Virial Ratio       :            2.00830044


DFT components:
N(Alpha)           :       25.999999364721 electrons
N(Beta)            :       25.999999364721 electrons
N(Total)           :       51.999998729442 electrons
E(X)               :      -22.185990145942 Eh       
E(C)               :       -2.220565058672 Eh       
E(XC)              :      -24.406555204614 Eh       
DFET-embed. en.    :        0.000000000000 Eh       

---------------
SCF CONVERGENCE
---------------

  Last Energy change         ...   -1.0074e-08  Tolerance :   1.0000e-08
  Last MAX-Density change    ...    1.2212e-15  Tolerance :   1.0000e-07
  Last RMS-Density change    ...    3.8012e-17  Tolerance :   5.0000e-09
  Last Orbital Gradient      ...    9.3963e-07  Tolerance :   1.0000e-05
  Last Orbital Rotation      ...    1.6318e-06  Tolerance :   1.0000e-05

             **** THE GBW FILE WAS UPDATED (pbeh-3c.gbw) ****
             **** DENSITY pbeh-3c.scfp WAS UPDATED ****
             **** ENERGY FILE WAS UPDATED (pbeh-3c.en.tmp) ****
             **** THE GBW FILE WAS UPDATED (pbeh-3c.gbw) ****
             **** DENSITY pbeh-3c.scfp WAS UPDATED ****
----------------
ORBITAL ENERGIES
----------------

  NO   OCC          E(Eh)            E(eV) 
   0   2.0000     -10.440686      -284.1055 
   1   2.0000     -10.440676      -284.1052 
   2   2.0000     -10.436989      -284.0049 
   3   2.0000     -10.430341      -283.8240 
   4   2.0000     -10.430331      -283.8237 
   5   2.0000     -10.427883      -283.7571 
   6   2.0000     -10.427583      -283.7490 
   7   2.0000      -0.954865       -25.9832 
   8   2.0000      -0.850680       -23.1482 
   9   2.0000      -0.802636       -21.8408 
  10   2.0000      -0.771387       -20.9905 
  11   2.0000      -0.716429       -19.4950 
  12   2.0000      -0.601105       -16.3569 
  13   2.0000      -0.579129       -15.7589 
  14   2.0000      -0.536754       -14.6058 
  15   2.0000      -0.505882       -13.7657 
  16   2.0000      -0.469405       -12.7732 
  17   2.0000      -0.469332       -12.7712 
  18   2.0000      -0.464525       -12.6404 
  19   2.0000      -0.441144       -12.0041 
  20   2.0000      -0.432354       -11.7650 
  21   2.0000      -0.401345       -10.9212 
  22   2.0000      -0.399724       -10.8770 
  23   2.0000      -0.379025       -10.3138 
  24   2.0000      -0.335612        -9.1325 
  25   2.0000      -0.237496        -6.4626 
  26   0.0000       0.017675         0.4810 
  27   0.0000       0.124354         3.3838 
  28   0.0000       0.154583         4.2064 
  29   0.0000       0.159510         4.3405 
  30   0.0000       0.181864         4.9488 
  31   0.0000       0.197508         5.3745 
  32   0.0000       0.213367         5.8060 
  33   0.0000       0.222682         6.0595 
  34   0.0000       0.227377         6.1872 
  35   0.0000       0.227405         6.1880 
  36   0.0000       0.229698         6.2504 
  37   0.0000       0.250047         6.8041 
  38   0.0000       0.260473         7.0878 
  39   0.0000       0.261266         7.1094 
  40   0.0000       0.278538         7.5794 
  41   0.0000       0.332932         9.0595 
  42   0.0000       0.342657         9.3242 
  43   0.0000       0.355717         9.6796 
  44   0.0000       0.508815        13.8456 
  45   0.0000       0.520580        14.1657 
  46   0.0000       0.521488        14.1904 
  47   0.0000       0.530548        14.4369 
  48   0.0000       0.536742        14.6055 
  49   0.0000       0.553478        15.0609 
  50   0.0000       0.577165        15.7055 
  51   0.0000       0.588443        16.0124 
  52   0.0000       0.613512        16.6945 
  53   0.0000       0.655331        17.8325 
  54   0.0000       0.665366        18.1055 
  55   0.0000       0.665778        18.1168 
  56   0.0000       0.700843        19.0709 
  57   0.0000       0.703771        19.1506 
  58   0.0000       0.716038        19.4844 
  59   0.0000       0.774619        21.0784 
  60   0.0000       0.784465        21.3464 
  61   0.0000       0.808919        22.0118 
  62   0.0000       0.841862        22.9082 
  63   0.0000       0.882306        24.0088 
  64   0.0000       0.963307        26.2129 
  65   0.0000       0.973668        26.4949 
  66   0.0000       0.973787        26.4981 
  67   0.0000       0.974118        26.5071 
  68   0.0000       1.013225        27.5713 
  69   0.0000       1.022739        27.8301 
  70   0.0000       1.030008        28.0279 
  71   0.0000       1.044180        28.4136 
  72   0.0000       1.055914        28.7329 
  73   0.0000       1.074975        29.2516 
  74   0.0000       1.080622        29.4052 
  75   0.0000       1.113323        30.2951 
  76   0.0000       1.122619        30.5480 
  77   0.0000       1.175059        31.9750 
  78   0.0000       1.200639        32.6711 
  79   0.0000       1.388674        37.7877 
  80   0.0000       1.399753        38.0892 
  81   0.0000       1.413065        38.4514 
  82   0.0000       1.442746        39.2591 
  83   0.0000       1.464908        39.8622 
  84   0.0000       1.490841        40.5678 
  85   0.0000       1.523027        41.4437 
  86   0.0000       1.532097        41.6905 
  87   0.0000       1.777888        48.3788 
  88   0.0000       1.831351        49.8336 
  89   0.0000       1.863009        50.6951 
  90   0.0000       1.876102        51.0513 
  91   0.0000       1.962103        53.3915 
  92   0.0000       1.975160        53.7468 
  93   0.0000       1.985626        54.0316 
  94   0.0000       2.028032        55.1856 
  95   0.0000       2.052538        55.8524 
  96   0.0000       2.061153        56.0868 
  97   0.0000       2.113407        57.5087 
  98   0.0000       2.142534        58.3013 
  99   0.0000       2.186766        59.5049 
 100   0.0000       2.232718        60.7554 
 101   0.0000       2.274181        61.8836 
 102   0.0000       2.282857        62.1197 
 103   0.0000       2.290269        62.3214 
 104   0.0000       2.390001        65.0352 
 105   0.0000       2.393076        65.1189 
 106   0.0000       2.445795        66.5535 
 107   0.0000       2.493233        67.8443 
 108   0.0000       2.518594        68.5344 
 109   0.0000       2.602932        70.8294 
 110   0.0000       2.606199        70.9183 
 111   0.0000       2.613705        71.1225 
 112   0.0000       2.677588        72.8609 
 113   0.0000       2.771442        75.4148 
 114   0.0000       2.884064        78.4794 
 115   0.0000       3.031990        82.5046 
 116   0.0000       3.083266        83.8999 
 117   0.0000       3.189192        86.7823 
 118   0.0000      13.307539       362.1165 
 119   0.0000      13.618914       370.5895 
 120   0.0000      13.818925       376.0321 
 121   0.0000      13.918166       378.7325 
 122   0.0000      13.954178       379.7125 
 123   0.0000      14.232762       387.2931 
 124   0.0000      14.346984       390.4013 

                    ********************************
                    * MULLIKEN POPULATION ANALYSIS *
                    ********************************

-----------------------
MULLIKEN ATOMIC CHARGES
-----------------------
   0 C :    0.086698
   1 C :   -0.244445
   2 C :   -0.244445
   3 C :    0.086698
   4 C :   -0.506746
   5 C :   -0.705951
   6 C :   -0.705950
   7 H :    0.204421
   8 H :    0.204421
   9 H :    0.240723
  10 H :    0.240723
  11 H :    0.221634
  12 H :    0.228660
  13 H :    0.221634
  14 H :    0.228660
  15 H :    0.221634
  16 H :    0.221634
Sum of atomic charges:    0.0000000

--------------------------------
MULLIKEN REDUCED ORBITAL CHARGES
--------------------------------
  0 C s       :     3.168660  s :     3.168660
      pz      :     0.894162  p :     2.698453
      px      :     0.963949
      py      :     0.840342
      dz2     :     0.009670  d :     0.046189
      dxz     :     0.008200
      dyz     :     0.016391
      dx2y2   :     0.006960
      dxy     :     0.004969
  1 C s       :     3.248229  s :     3.248229
      pz      :     0.980467  p :     2.955397
      px      :     1.029794
      py      :     0.945136
      dz2     :     0.011180  d :     0.040819
      dxz     :     0.005076
      dyz     :     0.013600
      dx2y2   :     0.005770
      dxy     :     0.005192
  2 C s       :     3.248229  s :     3.248229
      pz      :     0.980467  p :     2.955397
      px      :     1.029794
      py      :     0.945136
      dz2     :     0.011180  d :     0.040819
      dxz     :     0.005076
      dyz     :     0.013600
      dx2y2   :     0.005770
      dxy     :     0.005192
  3 C s       :     3.168660  s :     3.168660
      pz      :     0.894162  p :     2.698453
      px      :     0.963949
      py      :     0.840342
      dz2     :     0.009670  d :     0.046189
      dxz     :     0.008200
      dyz     :     0.016391
      dx2y2   :     0.006960
      dxy     :     0.004969
  4 C s       :     3.355353  s :     3.355353
      pz      :     1.043886  p :     3.107309
      px      :     1.141698
      py      :     0.921724
      dz2     :     0.003774  d :     0.044085
      dxz     :     0.013002
      dyz     :     0.010702
      dx2y2   :     0.010600
      dxy     :     0.006006
  5 C s       :     3.410336  s :     3.410336
      pz      :     1.137658  p :     3.257929
      px      :     1.132290
      py      :     0.987981
      dz2     :     0.002565  d :     0.037686
      dxz     :     0.010728
      dyz     :     0.010052
      dx2y2   :     0.009851
      dxy     :     0.004491
  6 C s       :     3.410336  s :     3.410336
      pz      :     1.137657  p :     3.257929
      px      :     1.132290
      py      :     0.987982
      dz2     :     0.002565  d :     0.037686
      dxz     :     0.010728
      dyz     :     0.010052
      dx2y2   :     0.009851
      dxy     :     0.004491
  7 H s       :     0.795579  s :     0.795579
  8 H s       :     0.795579  s :     0.795579
  9 H s       :     0.759277  s :     0.759277
 10 H s       :     0.759277  s :     0.759277
 11 H s       :     0.778366  s :     0.778366
 12 H s       :     0.771340  s :     0.771340
 13 H s       :     0.778366  s :     0.778366
 14 H s       :     0.771340  s :     0.771340
 15 H s       :     0.778366  s :     0.778366
 16 H s       :     0.778366  s :     0.778366


                     *******************************
                     * LOEWDIN POPULATION ANALYSIS *
                     *******************************

----------------------
LOEWDIN ATOMIC CHARGES
----------------------
   0 C :   -0.063822
   1 C :   -0.157883
   2 C :   -0.157883
   3 C :   -0.063822
   4 C :   -0.221444
   5 C :   -0.350826
   6 C :   -0.350826
   7 H :    0.128717
   8 H :    0.128717
   9 H :    0.150895
  10 H :    0.150895
  11 H :    0.133520
  12 H :    0.136600
  13 H :    0.133520
  14 H :    0.136600
  15 H :    0.133520
  16 H :    0.133520

-------------------------------
LOEWDIN REDUCED ORBITAL CHARGES
-------------------------------
  0 C s       :     2.860825  s :     2.860825
      pz      :     1.088684  p :     3.094877
      px      :     0.969795
      py      :     1.036398
      dz2     :     0.025370  d :     0.108120
      dxz     :     0.015634
      dyz     :     0.042721
      dx2y2   :     0.014368
      dxy     :     0.010028
  1 C s       :     2.900593  s :     2.900593
      pz      :     1.090552  p :     3.166562
      px      :     1.024081
      py      :     1.051928
      dz2     :     0.028165  d :     0.090728
      dxz     :     0.008563
      dyz     :     0.030970
      dx2y2   :     0.012245
      dxy     :     0.010785
  2 C s       :     2.900593  s :     2.900593
      pz      :     1.090552  p :     3.166562
      px      :     1.024081
      py      :     1.051928
      dz2     :     0.028165  d :     0.090728
      dxz     :     0.008563
      dyz     :     0.030970
      dx2y2   :     0.012245
      dxy     :     0.010785
  3 C s       :     2.860825  s :     2.860825
      pz      :     1.088684  p :     3.094877
      px      :     0.969795
      py      :     1.036398
      dz2     :     0.025370  d :     0.108120
      dxz     :     0.015634
      dyz     :     0.042721
      dx2y2   :     0.014368
      dxy     :     0.010028
  4 C s       :     2.901600  s :     2.901600
      pz      :     1.079855  p :     3.231323
      px      :     1.105622
      py      :     1.045845
      dz2     :     0.007303  d :     0.088520
      dxz     :     0.022814
      dyz     :     0.025884
      dx2y2   :     0.020829
      dxy     :     0.011690
  5 C s       :     2.939393  s :     2.939393
      pz      :     1.127691  p :     3.340096
      px      :     1.130796
      py      :     1.081609
      dz2     :     0.004954  d :     0.071337
      dxz     :     0.018188
      dyz     :     0.019707
      dx2y2   :     0.019291
      dxy     :     0.009198
  6 C s       :     2.939393  s :     2.939393
      pz      :     1.127691  p :     3.340096
      px      :     1.130796
      py      :     1.081609
      dz2     :     0.004954  d :     0.071337
      dxz     :     0.018188
      dyz     :     0.019707
      dx2y2   :     0.019291
      dxy     :     0.009198
  7 H s       :     0.871283  s :     0.871283
  8 H s       :     0.871283  s :     0.871283
  9 H s       :     0.849105  s :     0.849105
 10 H s       :     0.849105  s :     0.849105
 11 H s       :     0.866480  s :     0.866480
 12 H s       :     0.863400  s :     0.863400
 13 H s       :     0.866480  s :     0.866480
 14 H s       :     0.863400  s :     0.863400
 15 H s       :     0.866480  s :     0.866480
 16 H s       :     0.866480  s :     0.866480


                      *****************************
                      * MAYER POPULATION ANALYSIS *
                      *****************************

  NA   - Mulliken gross atomic population
  ZA   - Total nuclear charge
  QA   - Mulliken gross atomic charge
  VA   - Mayer's total valence
  BVA  - Mayer's bonded valence
  FA   - Mayer's free valence

  ATOM       NA         ZA         QA         VA         BVA        FA
  0 C      5.9133     6.0000     0.0867     3.7313     3.7313     0.0000
  1 C      6.2444     6.0000    -0.2444     3.8319     3.8319     0.0000
  2 C      6.2444     6.0000    -0.2444     3.8319     3.8319    -0.0000
  3 C      5.9133     6.0000     0.0867     3.7313     3.7313     0.0000
  4 C      6.5067     6.0000    -0.5067     3.7248     3.7248     0.0000
  5 C      6.7060     6.0000    -0.7060     3.7261     3.7261    -0.0000
  6 C      6.7060     6.0000    -0.7060     3.7261     3.7261    -0.0000
  7 H      0.7956     1.0000     0.2044     0.9223     0.9223     0.0000
  8 H      0.7956     1.0000     0.2044     0.9223     0.9223    -0.0000
  9 H      0.7593     1.0000     0.2407     0.8972     0.8972     0.0000
 10 H      0.7593     1.0000     0.2407     0.8972     0.8972    -0.0000
 11 H      0.7784     1.0000     0.2216     0.9057     0.9057     0.0000
 12 H      0.7713     1.0000     0.2287     0.9119     0.9119    -0.0000
 13 H      0.7784     1.0000     0.2216     0.9057     0.9057    -0.0000
 14 H      0.7713     1.0000     0.2287     0.9119     0.9119     0.0000
 15 H      0.7784     1.0000     0.2216     0.9057     0.9057     0.0000
 16 H      0.7784     1.0000     0.2216     0.9057     0.9057    -0.0000

  Mayer bond orders larger than 0.100000
B(  0-C ,  1-C ) :   1.7798 B(  0-C ,  4-C ) :   1.0011 B(  0-C ,  5-C ) :   0.9749 
B(  1-C ,  2-C ) :   1.1114 B(  1-C ,  7-H ) :   0.9248 B(  2-C ,  3-C ) :   1.7798 
B(  2-C ,  8-H ) :   0.9248 B(  3-C ,  4-C ) :   1.0011 B(  3-C ,  6-C ) :   0.9749 
B(  4-C ,  9-H ) :   0.8921 B(  4-C , 10-H ) :   0.8921 B(  5-C , 11-H ) :   0.9181 
B(  5-C , 12-H ) :   0.9323 B(  5-C , 13-H ) :   0.9181 B(  6-C , 14-H ) :   0.9323 
B(  6-C , 15-H ) :   0.9181 B(  6-C , 16-H ) :   0.9181 

-------
TIMINGS
-------

Total SCF time: 0 days 0 hours 1 min 2 sec 

Total time                  ....      62.675 sec
Sum of individual times     ....      59.290 sec  ( 94.6%)

Fock matrix formation       ....      49.769 sec  ( 79.4%)
  Split-RI-J                ....       3.948 sec  (  7.9% of F)
  Chain of spheres X        ....      23.034 sec  ( 46.3% of F)
  XC integration            ....      13.221 sec  ( 26.6% of F)
    Basis function eval.    ....       2.835 sec  ( 21.4% of XC)
    Density eval.           ....       1.712 sec  ( 13.0% of XC)
    XC-Functional eval.     ....       1.528 sec  ( 11.6% of XC)
    XC-Potential eval.      ....       1.076 sec  (  8.1% of XC)
Diagonalization             ....       1.185 sec  (  1.9%)
Density matrix formation    ....       0.043 sec  (  0.1%)
Population analysis         ....       0.392 sec  (  0.6%)
Initial guess               ....       0.011 sec  (  0.0%)
Orbital Transformation      ....       0.000 sec  (  0.0%)
Orbital Orthonormalization  ....       0.000 sec  (  0.0%)
DIIS solution               ....       1.092 sec  (  1.7%)
SOSCF solution              ....       0.514 sec  (  0.8%)
Grid generation             ....       6.284 sec  ( 10.0%)

Maximum memory used throughout the entire SCF-calculation: 54.6 MB


-------------------------------------------------------------------------------
                          DFT DISPERSION CORRECTION                            
                                                                               
                              DFTD3 V3.1  Rev 1                                
                          USING Becke-Johnson damping                          
-------------------------------------------------------------------------------
The PBEh-3c composite method is recognized
Using three-body term ABC
Active option DFTDOPT                   ...         4   

molecular C6(AA) [au] = 2529.787064 


            DFT-D V3
 parameters
 s6 scaling factor         :     1.0000 
 a1 scaling factor         :     0.4860 
 s8 scaling factor         :     0.0000 
 a2 scaling factor         :     4.5000 
 Damping factor alpha9(ATM):    16.0000 
 ad hoc parameters k1-k3   :    16.0000     1.3333    -4.0000 

 Edisp/kcal,au: -5.192515777307  -0.008274799725 
 E6   /kcal   :  -5.204539282 
 E8   /kcal   :  -0.000000000 
 E6(ABC)      :   0.012023505 
 % E8         :   0.000000000 
 % E6(ABC)    :  -0.231554523 

-------------------------   ----------------
Dispersion correction           -0.008274800
-------------------------   ----------------

------------------   -----------------
gCP correction             0.019930081
------------------   -----------------

-------------------------   --------------------
FINAL SINGLE POINT ENERGY      -272.137172644900
-------------------------   --------------------


                            ***************************************
                            *     ORCA property calculations      *
                            ***************************************

                                    ---------------------
                                    Active property flags
                                    ---------------------
   (+) Dipole Moment


------------------------------------------------------------------------------
                       ORCA ELECTRIC PROPERTIES CALCULATION
------------------------------------------------------------------------------

Dipole Moment Calculation                       ... on
Quadrupole Moment Calculation                   ... off
Polarizability Calculation                      ... off
GBWName                                         ... pbeh-3c.gbw
Electron density                                ... pbeh-3c.scfp
The origin for moment calculation is the CENTER OF MASS  = ( 0.000000,  0.000000 -0.055485)

-------------
DIPOLE MOMENT
-------------
                                X             Y             Z
Electronic contribution:      0.00000       0.00000      -2.59251
Nuclear contribution   :      0.00000      -0.00000       2.88527
                        -----------------------------------------
Total Dipole Moment    :      0.00000       0.00000       0.29277
                        -----------------------------------------
Magnitude (a.u.)       :      0.29277
Magnitude (Debye)      :      0.74415



--------------------
Rotational spectrum 
--------------------
 
Rotational constants in cm-1:     0.216161     0.062012     0.049502 
Rotational constants in MHz :  6480.349266  1859.064651  1484.032914 

 Dipole components along the rotational axes: 
x,y,z [a.u.] :     0.000000     0.292766     0.000000 
x,y,z [Debye]:     0.000000     0.744152     0.000000 

 

Timings for individual modules:

Sum of individual times         ...       64.806 sec (=   1.080 min)
GTO integral calculation        ...        1.779 sec (=   0.030 min)   2.7 %
SCF iterations                  ...       63.027 sec (=   1.050 min)  97.3 %
                             ****ORCA TERMINATED NORMALLY****
TOTAL RUN TIME: 0 days 0 hours 1 minutes 6 seconds 328 msec
