
                                 *****************
                                 * O   R   C   A *
                                 *****************

                                            #,                                       
                                            ###                                      
                                            ####                                     
                                            #####                                    
                                            ######                                   
                                           ########,                                 
                                     ,,################,,,,,                         
                               ,,#################################,,                 
                          ,,##########################################,,             
                       ,#########################################, ''#####,          
                    ,#############################################,,   '####,        
                  ,##################################################,,,,####,       
                ,###########''''           ''''###############################       
              ,#####''   ,,,,##########,,,,          '''####'''          '####       
            ,##' ,,,,###########################,,,                        '##       
           ' ,,###''''                  '''############,,,                           
         ,,##''                                '''############,,,,        ,,,,,,###''
      ,#''                                            '''#######################'''  
     '                                                          ''''####''''         
             ,#######,   #######,   ,#######,      ##                                
            ,#'     '#,  ##    ##  ,#'     '#,    #''#        ######   ,####,        
            ##       ##  ##   ,#'  ##            #'  '#       #        #'  '#        
            ##       ##  #######   ##           ,######,      #####,   #    #        
            '#,     ,#'  ##    ##  '#,     ,#' ,#      #,         ##   #,  ,#        
             '#######'   ##     ##  '#######'  #'      '#     #####' # '####'        



                  #######################################################
                  #                        -***-                        #
                  #          Department of theory and spectroscopy      #
                  #    Directorship and core code : Frank Neese         #
                  #        Max Planck Institute fuer Kohlenforschung    #
                  #                Kaiser Wilhelm Platz 1               #
                  #                 D-45470 Muelheim/Ruhr               #
                  #                      Germany                        #
                  #                                                     #
                  #                  All rights reserved                #
                  #                        -***-                        #
                  #######################################################


                         Program Version 5.0.3 -  RELEASE  -


 With contributions from (in alphabetic order):
   Daniel Aravena         : Magnetic Suceptibility
   Michael Atanasov       : Ab Initio Ligand Field Theory (pilot matlab implementation)
   Alexander A. Auer      : GIAO ZORA, VPT2 properties, NMR spectrum
   Ute Becker             : Parallelization
   Giovanni Bistoni       : ED, misc. LED, open-shell LED, HFLD
   Martin Brehm           : Molecular dynamics
   Dmytro Bykov           : SCF Hessian
   Vijay G. Chilkuri      : MRCI spin determinant printing, contributions to CSF-ICE
   Dipayan Datta          : RHF DLPNO-CCSD density
   Achintya Kumar Dutta   : EOM-CC, STEOM-CC
   Dmitry Ganyushin       : Spin-Orbit,Spin-Spin,Magnetic field MRCI
   Miquel Garcia          : C-PCM and meta-GGA Hessian, CC/C-PCM, Gaussian charge scheme
   Yang Guo               : DLPNO-NEVPT2, F12-NEVPT2, CIM, IAO-localization
   Andreas Hansen         : Spin unrestricted coupled pair/coupled cluster methods
   Benjamin Helmich-Paris : MC-RPA, TRAH-SCF, COSX integrals
   Lee Huntington         : MR-EOM, pCC
   Robert Izsak           : Overlap fitted RIJCOSX, COSX-SCS-MP3, EOM
   Marcus Kettner         : VPT2
   Christian Kollmar      : KDIIS, OOCD, Brueckner-CCSD(T), CCSD density, CASPT2, CASPT2-K
   Simone Kossmann        : Meta GGA functionals, TD-DFT gradient, OOMP2, MP2 Hessian
   Martin Krupicka        : Initial AUTO-CI
   Lucas Lang             : DCDCAS
   Marvin Lechner         : AUTO-CI (C++ implementation), FIC-MRCC
   Dagmar Lenk            : GEPOL surface, SMD
   Dimitrios Liakos       : Extrapolation schemes; Compound Job, initial MDCI parallelization
   Dimitrios Manganas     : Further ROCIS development; embedding schemes
   Dimitrios Pantazis     : SARC Basis sets
   Anastasios Papadopoulos: AUTO-CI, single reference methods and gradients
   Taras Petrenko         : DFT Hessian,TD-DFT gradient, ASA, ECA, R-Raman, ABS, FL, XAS/XES, NRVS
   Peter Pinski           : DLPNO-MP2, DLPNO-MP2 Gradient
   Christoph Reimann      : Effective Core Potentials
   Marius Retegan         : Local ZFS, SOC
   Christoph Riplinger    : Optimizer, TS searches, QM/MM, DLPNO-CCSD(T), (RO)-DLPNO pert. Triples
   Tobias Risthaus        : Range-separated hybrids, TD-DFT gradient, RPA, STAB
   Michael Roemelt        : Original ROCIS implementation
   Masaaki Saitow         : Open-shell DLPNO-CCSD energy and density
   Barbara Sandhoefer     : DKH picture change effects
   Avijit Sen             : IP-ROCIS
   Kantharuban Sivalingam : CASSCF convergence, NEVPT2, FIC-MRCI
   Bernardo de Souza      : ESD, SOC TD-DFT
   Georgi Stoychev        : AutoAux, RI-MP2 NMR, DLPNO-MP2 response
   Willem Van den Heuvel  : Paramagnetic NMR
   Boris Wezisla          : Elementary symmetry handling
   Frank Wennmohs         : Technical directorship


 We gratefully acknowledge several colleagues who have allowed us to
 interface, adapt or use parts of their codes:
   Stefan Grimme, W. Hujo, H. Kruse, P. Pracht,  : VdW corrections, initial TS optimization,
                  C. Bannwarth, S. Ehlert          DFT functionals, gCP, sTDA/sTD-DF
   Ed Valeev, F. Pavosevic, A. Kumar             : LibInt (2-el integral package), F12 methods
   Garnet Chan, S. Sharma, J. Yang, R. Olivares  : DMRG
   Ulf Ekstrom                                   : XCFun DFT Library
   Mihaly Kallay                                 : mrcc  (arbitrary order and MRCC methods)
   Jiri Pittner, Ondrej Demel                    : Mk-CCSD
   Frank Weinhold                                : gennbo (NPA and NBO analysis)
   Christopher J. Cramer and Donald G. Truhlar   : smd solvation model
   Lars Goerigk                                  : TD-DFT with DH, B97 family of functionals
   V. Asgeirsson, H. Jonsson                     : NEB implementation
   FAccTs GmbH                                   : IRC, NEB, NEB-TS, DLPNO-Multilevel, CI-OPT
                                                   MM, QMMM, 2- and 3-layer-ONIOM, Crystal-QMMM,
                                                   LR-CPCM, SF, NACMEs, symmetry and pop. for TD-DFT,
                                                   nearIR, NL-DFT gradient (VV10), updates on ESD,
                                                   ML-optimized integration grids
   S Lehtola, MJT Oliveira, MAL Marques          : LibXC Library
   Liviu Ungur et al                             : ANISO software


 Your calculation uses the libint2 library for the computation of 2-el integrals
 For citations please refer to: http://libint.valeyev.net

 Your ORCA version has been built with support for libXC version: 5.1.0
 For citations please refer to: https://tddft.org/programs/libxc/

 This ORCA versions uses:
   CBLAS   interface :  Fast vector & matrix operations
   LAPACKE interface :  Fast linear algebra routines
   SCALAPACK package :  Parallel linear algebra routines
   Shared memory     :  Shared parallel matrices
   BLAS/LAPACK       :  OpenBLAS 0.3.15  USE64BITINT DYNAMIC_ARCH NO_AFFINITY Haswell SINGLE_THREADED
        Core in use  :  Haswell
   Copyright (c) 2011-2014, The OpenBLAS Project




***************************************
The coordinates will be read from file: pc22.xyz
***************************************


Your calculation utilizes the geometrical counterpoise correction gCP
Please cite in your paper:
H.Kruse, S. Grimme J.Chem.Phys., 136, (2012), 154101 
   

Your calculation utilizes the atom-pairwise dispersion correction
with the Becke-Johnson damping scheme (D3BJ)
Cite in your paper:
S.Grimme, S.Ehrlich, L.Goerigk, J Comput Chem, (2011), 32, 1456–1465 
S.Grimme, J.Antony, S.Ehrlich and H.Krieg, J.Chem.Phys., 132, (2010), 154104 
   

Your calculation employs the composite approach PBEh-3c.
Please cite in your paper:
S. Grimme, J. G. Brandenburg, C. Bannwarth, A. Hansen J.Chem.Phys., 143, (2015), 054107 
   

================================================================================

----- Orbital basis set information -----
Your calculation utilizes the basis: def2-mSVP

----- AuxJ basis set information -----
Your calculation utilizes the auxiliary basis: def2/J
   F. Weigend, Phys. Chem. Chem. Phys. 8, 1057 (2006).

================================================================================
                                        WARNINGS
                       Please study these warnings very carefully!
================================================================================


INFO   : the flag for use of the SHARK integral package has been found!

================================================================================
                                       INPUT FILE
================================================================================
NAME = pbeh-3c.inp
|  1> ! PBEh-3c def2/J TightSCF DefGrid3
|  2> 
|  3> %maxcore 60000
|  4> 
|  5> %pal
|  6> nprocs 4
|  7> end
|  8> 
|  9> *xyzfile 0 1 pc22.xyz
| 10> 
| 11>                          ****END OF INPUT****
================================================================================

                       ****************************
                       * Single Point Calculation *
                       ****************************

---------------------------------
CARTESIAN COORDINATES (ANGSTROEM)
---------------------------------
  C     -0.648664    1.221093    1.542609
  C     -1.411615    0.053300    1.394586
  C     -0.745015   -1.170427    1.547262
  C      0.648664   -1.221093    1.542609
  C      1.411615   -0.053300    1.394586
  C      2.792872   -0.119654    0.793625
  C     -2.792872    0.119654    0.793625
  C      2.792872    0.119654   -0.793625
  C     -2.792872   -0.119654   -0.793625
  C      1.411615    0.053300   -1.394586
  C      0.745015   -1.170427   -1.547262
  C     -0.648664   -1.221093   -1.542609
  C     -1.411615   -0.053300   -1.394586
  C     -0.745015    1.170427   -1.547262
  C      0.648664    1.221093   -1.542609
  C      0.745015    1.170427    1.547262
  H     -1.149404    2.190963    1.504738
  H     -1.315220   -2.101388    1.514151
  H      1.149404   -2.190963    1.504738
  H      3.459967    0.629923    1.243743
  H      3.227797   -1.109412    0.992316
  H     -3.227797    1.109412    0.992316
  H     -3.459967   -0.629923    1.243743
  H      3.227797    1.109412   -0.992316
  H      3.459967   -0.629923   -1.243743
  H     -3.459967    0.629923   -1.243743
  H     -3.227797   -1.109412   -0.992316
  H      1.315220   -2.101388   -1.514151
  H     -1.149404   -2.190963   -1.504738
  H     -1.315220    2.101388   -1.514151
  H      1.149404    2.190963   -1.504738
  H      1.315220    2.101388    1.514151

----------------------------
CARTESIAN COORDINATES (A.U.)
----------------------------
  NO LB      ZA    FRAG     MASS         X           Y           Z
   0 C     6.0000    0    12.011   -1.225797    2.307531    2.915109
   1 C     6.0000    0    12.011   -2.667566    0.100722    2.635386
   2 C     6.0000    0    12.011   -1.407873   -2.211786    2.923902
   3 C     6.0000    0    12.011    1.225797   -2.307531    2.915109
   4 C     6.0000    0    12.011    2.667566   -0.100722    2.635386
   5 C     6.0000    0    12.011    5.277763   -0.226113    1.499734
   6 C     6.0000    0    12.011   -5.277763    0.226113    1.499734
   7 C     6.0000    0    12.011    5.277763    0.226113   -1.499734
   8 C     6.0000    0    12.011   -5.277763   -0.226113   -1.499734
   9 C     6.0000    0    12.011    2.667566    0.100722   -2.635386
  10 C     6.0000    0    12.011    1.407873   -2.211786   -2.923902
  11 C     6.0000    0    12.011   -1.225797   -2.307531   -2.915109
  12 C     6.0000    0    12.011   -2.667566   -0.100722   -2.635386
  13 C     6.0000    0    12.011   -1.407873    2.211786   -2.923902
  14 C     6.0000    0    12.011    1.225797    2.307531   -2.915109
  15 C     6.0000    0    12.011    1.407873    2.211786    2.923902
  16 H     1.0000    0     1.008   -2.172059    4.140320    2.843542
  17 H     1.0000    0     1.008   -2.485405   -3.971048    2.861330
  18 H     1.0000    0     1.008    2.172059   -4.140320    2.843542
  19 H     1.0000    0     1.008    6.538391    1.190382    2.350334
  20 H     1.0000    0     1.008    6.099652   -2.096486    1.875206
  21 H     1.0000    0     1.008   -6.099652    2.096486    1.875206
  22 H     1.0000    0     1.008   -6.538391   -1.190382    2.350334
  23 H     1.0000    0     1.008    6.099652    2.096486   -1.875206
  24 H     1.0000    0     1.008    6.538391   -1.190382   -2.350334
  25 H     1.0000    0     1.008   -6.538391    1.190382   -2.350334
  26 H     1.0000    0     1.008   -6.099652   -2.096486   -1.875206
  27 H     1.0000    0     1.008    2.485405   -3.971048   -2.861330
  28 H     1.0000    0     1.008   -2.172059   -4.140320   -2.843542
  29 H     1.0000    0     1.008   -2.485405    3.971048   -2.861330
  30 H     1.0000    0     1.008    2.172059    4.140320   -2.843542
  31 H     1.0000    0     1.008    2.485405    3.971048    2.861330

--------------------------------
INTERNAL COORDINATES (ANGSTROEM)
--------------------------------
 C      0   0   0     0.000000000000     0.00000000     0.00000000
 C      1   0   0     1.402763701677     0.00000000     0.00000000
 C      2   1   0     1.401846074783   117.16763429     0.00000000
 C      3   2   1     1.394606735819   120.43432149   345.97539276
 C      4   3   2     1.402763701677   120.90636540     0.42083312
 C      5   4   3     1.507789275875   120.24316409   207.12642942
 C      2   1   3     1.507789275875   120.24316409   193.48086974
 C      6   5   4     1.605188479593   112.80252104    92.39317113
 C      7   2   1     1.605188479593   112.80252104    92.39317113
 C      8   6   5     1.507789275875   112.80252104   347.17762077
 C     10   8   6     1.401846074783   121.16040520   286.41964472
 C     11  10   8     1.394606735819   120.43432149   152.36329235
 C     12  11  10     1.402763701677   120.90636540     0.42083312
 C     13  12  11     1.401846074783   117.16763429    13.64555968
 C     14  13  12     1.394606735819   120.43432149   345.97539276
 C      1   2   3     1.394606735819   120.90636540    13.64555968
 H      1   2   3     1.092164205434   119.09451619   184.54885066
 H      3   2   1     1.092208760321   119.50575691   175.45851038
 H      4   3   2     1.092164205434   119.37720273   189.54291160
 H      6   5   4     1.099767446156   111.25697372   213.48071760
 H      6   5   4     1.099208757751   109.27161232   331.95163828
 H      7   2   1     1.099208757751   109.27161232   331.95163828
 H      7   2   1     1.099767446156   111.25697372   213.48071760
 H      8   6   5     1.099208757751   108.23878243   108.20896083
 H      8   6   5     1.099767446156   107.64382243   224.05591625
 H      9   7   2     1.099767446156   107.64382243   224.05591625
 H      9   7   2     1.099208757751   108.23878243   108.20896083
 H     11  10   8     1.092208760321   119.50575691   341.84640997
 H     12  11  10     1.092164205434   119.37720273   189.54291160
 H     14  13  12     1.092208760321   119.50575691   175.45851038
 H     15  14  13     1.092164205434   119.37720273   189.54291160
 H     16   1   2     1.092208760321   119.38336539   170.94924905

---------------------------
INTERNAL COORDINATES (A.U.)
---------------------------
 C      0   0   0     0.000000000000     0.00000000     0.00000000
 C      1   0   0     2.650839226775     0.00000000     0.00000000
 C      2   1   0     2.649105163252   117.16763429     0.00000000
 C      3   2   1     2.635424795220   120.43432149   345.97539276
 C      4   3   2     2.650839226775   120.90636540     0.42083312
 C      5   4   3     2.849308799067   120.24316409   207.12642942
 C      2   1   3     2.849308799067   120.24316409   193.48086974
 C      6   5   4     3.033366619756   112.80252104    92.39317113
 C      7   2   1     3.033366619756   112.80252104    92.39317113
 C      8   6   5     2.849308799067   112.80252104   347.17762077
 C     10   8   6     2.649105163252   121.16040520   286.41964472
 C     11  10   8     2.635424795220   120.43432149   152.36329235
 C     12  11  10     2.650839226775   120.90636540     0.42083312
 C     13  12  11     2.649105163252   117.16763429    13.64555968
 C     14  13  12     2.635424795220   120.43432149   345.97539276
 C      1   2   3     2.635424795220   120.90636540    13.64555968
 H      1   2   3     2.063891241542   119.09451619   184.54885066
 H      3   2   1     2.063975438076   119.50575691   175.45851038
 H      4   3   2     2.063891241542   119.37720273   189.54291160
 H      6   5   4     2.078259284237   111.25697372   213.48071760
 H      6   5   4     2.077203516157   109.27161232   331.95163828
 H      7   2   1     2.077203516157   109.27161232   331.95163828
 H      7   2   1     2.078259284237   111.25697372   213.48071760
 H      8   6   5     2.077203516157   108.23878243   108.20896083
 H      8   6   5     2.078259284237   107.64382243   224.05591625
 H      9   7   2     2.078259284237   107.64382243   224.05591625
 H      9   7   2     2.077203516157   108.23878243   108.20896083
 H     11  10   8     2.063975438076   119.50575691   341.84640997
 H     12  11  10     2.063891241542   119.37720273   189.54291160
 H     14  13  12     2.063975438076   119.50575691   175.45851038
 H     15  14  13     2.063891241542   119.37720273   189.54291160
 H     16   1   2     2.063975438076   119.38336539   170.94924905

---------------------
BASIS SET INFORMATION
---------------------
There are 2 groups of distinct atoms

 Group   1 Type C   : 8s4p1d contracted to 4s2p1d pattern {5111/31/1}
 Group   2 Type H   : 4s contracted to 2s pattern {31}

Atom   0C    basis set group =>   1
Atom   1C    basis set group =>   1
Atom   2C    basis set group =>   1
Atom   3C    basis set group =>   1
Atom   4C    basis set group =>   1
Atom   5C    basis set group =>   1
Atom   6C    basis set group =>   1
Atom   7C    basis set group =>   1
Atom   8C    basis set group =>   1
Atom   9C    basis set group =>   1
Atom  10C    basis set group =>   1
Atom  11C    basis set group =>   1
Atom  12C    basis set group =>   1
Atom  13C    basis set group =>   1
Atom  14C    basis set group =>   1
Atom  15C    basis set group =>   1
Atom  16H    basis set group =>   2
Atom  17H    basis set group =>   2
Atom  18H    basis set group =>   2
Atom  19H    basis set group =>   2
Atom  20H    basis set group =>   2
Atom  21H    basis set group =>   2
Atom  22H    basis set group =>   2
Atom  23H    basis set group =>   2
Atom  24H    basis set group =>   2
Atom  25H    basis set group =>   2
Atom  26H    basis set group =>   2
Atom  27H    basis set group =>   2
Atom  28H    basis set group =>   2
Atom  29H    basis set group =>   2
Atom  30H    basis set group =>   2
Atom  31H    basis set group =>   2
---------------------------------
AUXILIARY/J BASIS SET INFORMATION
---------------------------------
There are 2 groups of distinct atoms

 Group   1 Type C   : 12s5p4d2f1g contracted to 6s4p3d1f1g pattern {711111/2111/211/2/1}
 Group   2 Type H   : 5s2p1d contracted to 3s1p1d pattern {311/2/1}

Atom   0C    basis set group =>   1
Atom   1C    basis set group =>   1
Atom   2C    basis set group =>   1
Atom   3C    basis set group =>   1
Atom   4C    basis set group =>   1
Atom   5C    basis set group =>   1
Atom   6C    basis set group =>   1
Atom   7C    basis set group =>   1
Atom   8C    basis set group =>   1
Atom   9C    basis set group =>   1
Atom  10C    basis set group =>   1
Atom  11C    basis set group =>   1
Atom  12C    basis set group =>   1
Atom  13C    basis set group =>   1
Atom  14C    basis set group =>   1
Atom  15C    basis set group =>   1
Atom  16H    basis set group =>   2
Atom  17H    basis set group =>   2
Atom  18H    basis set group =>   2
Atom  19H    basis set group =>   2
Atom  20H    basis set group =>   2
Atom  21H    basis set group =>   2
Atom  22H    basis set group =>   2
Atom  23H    basis set group =>   2
Atom  24H    basis set group =>   2
Atom  25H    basis set group =>   2
Atom  26H    basis set group =>   2
Atom  27H    basis set group =>   2
Atom  28H    basis set group =>   2
Atom  29H    basis set group =>   2
Atom  30H    basis set group =>   2
Atom  31H    basis set group =>   2


           ************************************************************
           *        Program running with 4 parallel MPI-processes     *
           *              working on a common directory               *
           ************************************************************
------------------------------------------------------------------------------
                           ORCA GTO INTEGRAL CALCULATION
                           -- RI-GTO INTEGRALS CHOSEN --
------------------------------------------------------------------------------
------------------------------------------------------------------------------
                   ___                                                        
                  /   \      - P O W E R E D   B Y -                         
                 /     \                                                     
                 |  |  |   _    _      __       _____    __    __             
                 |  |  |  | |  | |    /  \     |  _  \  |  |  /  |          
                  \  \/   | |  | |   /    \    | | | |  |  | /  /          
                 / \  \   | |__| |  /  /\  \   | |_| |  |  |/  /          
                |  |  |   |  __  | /  /__\  \  |    /   |      \           
                |  |  |   | |  | | |   __   |  |    \   |  |\   \          
                \     /   | |  | | |  |  |  |  | |\  \  |  | \   \       
                 \___/    |_|  |_| |__|  |__|  |_| \__\ |__|  \__/        
                                                                              
                      - O R C A' S   B I G   F R I E N D -                    
                                      &                                       
                       - I N T E G R A L  F E E D E R -                       
                                                                              
 v1 FN, 2020, v2 2021                                                         
------------------------------------------------------------------------------


Reading SHARK input file pbeh-3c.SHARKINP.tmp ... ok
----------------------
SHARK INTEGRAL PACKAGE
----------------------

Number of atoms                             ...     32
Number of basis functions                   ...    272
Number of shells                            ...    144
Maximum angular momentum                    ...      2
Integral batch strategy                     ... SHARK/LIBINT Hybrid
RI-J (if used) integral strategy            ... SPLIT-RIJ (Revised 2003 algorithm where possible)
Printlevel                                  ...      1
Contraction scheme used                     ... SEGMENTED contraction
Coulomb Range Separation                    ... NOT USED
Exchange Range Separation                   ... NOT USED
Finite Nucleus Model                        ... NOT USED
Auxiliary Coulomb fitting basis             ... AVAILABLE
   # of basis functions in Aux-J            ...    960
   # of shells in Aux-J                     ...    320
   Maximum angular momentum in Aux-J        ...      4
Auxiliary J/K fitting basis                 ... NOT available
Auxiliary Correlation fitting basis         ... NOT available
Auxiliary 'external' fitting basis          ... NOT available
Integral threshold                          ...     2.500000e-11
Primitive cut-off                           ...     2.500000e-12
Primitive pair pre-selection threshold      ...     2.500000e-12

Calculating pre-screening integrals         ... done (  0.1 sec) Dimension = 144
Organizing shell pair data                  ... done (  0.3 sec)
Shell pair information
Total number of shell pairs                 ...     10440
Shell pairs after pre-screening             ...      9026
Total number of primitive shell pairs       ...     37384
Primitive shell pairs kept                  ...     21404
          la=0 lb=0:   3682 shell pairs
          la=1 lb=0:   2912 shell pairs
          la=1 lb=1:    524 shell pairs
          la=2 lb=0:   1272 shell pairs
          la=2 lb=1:    504 shell pairs
          la=2 lb=2:    132 shell pairs

Calculating one electron integrals          ... done (  0.1 sec)
Calculating RI/J V-Matrix + Cholesky decomp.... done (  0.8 sec)
Calculating Nuclear repulsion               ... done (  0.1 sec) ENN=   1098.555931006446 Eh

SHARK setup successfully completed in   2.7 seconds

Maximum memory used throughout the entire GTOINT-calculation: 17.1 MB


           ************************************************************
           *        Program running with 4 parallel MPI-processes     *
           *              working on a common directory               *
           ************************************************************
-------------------------------------------------------------------------------
                                 ORCA SCF
-------------------------------------------------------------------------------

------------
SCF SETTINGS
------------
Hamiltonian:
 Density Functional     Method          .... DFT(GTOs)
 Exchange Functional    Exchange        .... PBE
   PBE kappa parameter   XKappa         ....  1.024500
   PBE mue parameter    XMuePBE         ....  0.123457
 Correlation Functional Correlation     .... PBE
   PBE beta parameter  CBetaPBE         ....  0.030000
 LDA part of GGA corr.  LDAOpt          .... PW91-LDA
 Gradients option       PostSCFGGA      .... off
 Hybrid DFT is turned on
   Fraction HF Exchange ScalHFX         ....  0.420000
   Scaling of DF-GGA-X  ScalDFX         ....  0.580000
   Scaling of DF-GGA-C  ScalDFC         ....  1.000000
   Scaling of DF-LDA-C  ScalLDAC        ....  1.000000
   Perturbative correction              ....  0.000000
   Density functional embedding theory  .... OFF
 RI-approximation to the Coulomb term is turned on
   Number of AuxJ basis functions       .... 960
   RIJ-ON(X) (HFX calculated with O(N)) .... on
   Number of AuxJ basis functions       .... 960
   RIJ-COSX (HFX calculated with COS-X)).... on


General Settings:
 Integral files         IntName         .... pbeh-3c
 Hartree-Fock type      HFTyp           .... RHF
 Total Charge           Charge          ....    0
 Multiplicity           Mult            ....    1
 Number of Electrons    NEL             ....  112
 Basis Dimension        Dim             ....  272
 Nuclear Repulsion      ENuc            ....   1098.5559310064 Eh

Convergence Acceleration:
 DIIS                   CNVDIIS         .... on
   Start iteration      DIISMaxIt       ....    12
   Startup error        DIISStart       ....  0.200000
   # of expansion vecs  DIISMaxEq       ....     5
   Bias factor          DIISBfac        ....   1.050
   Max. coefficient     DIISMaxC        ....  10.000
 Trust-Rad. Augm. Hess. CNVTRAH         .... auto
   Auto Start mean grad. ratio tolernc. ....  1.125000
   Auto Start start iteration           ....    20
   Auto Start num. interpolation iter.  ....    10
   Max. Number of Micro iterations      ....    16
   Max. Number of Macro iterations      .... Maxiter - #DIIS iter
   Number of Davidson start vectors     ....     2
   Converg. threshold I  (grad. norm)   ....   1.000e-05
   Converg. threshold II (energy diff.) ....   1.000e-08
   Grad. Scal. Fac. for Micro threshold ....   0.100
   Minimum threshold for Micro iter.    ....   0.010
   NR start threshold (gradient norm)   ....   0.001
   Initial trust radius                 ....   0.400
   Minimum AH scaling param. (alpha)    ....   1.000
   Maximum AH scaling param. (alpha)    .... 1000.000
   Orbital update algorithm             .... Taylor
   White noise on init. David. guess    .... on
   Maximum white noise                  ....   0.010
   Quad. conv. algorithm                .... NR
   COSX micro iterations for RIJONX calc.... off
 SOSCF                  CNVSOSCF        .... on
   Start iteration      SOSCFMaxIt      ....   150
   Startup grad/error   SOSCFStart      ....  0.003300
 Level Shifting         CNVShift        .... on
   Level shift para.    LevelShift      ....    0.2500
   Turn off err/grad.   ShiftErr        ....    0.0010
 Zerner damping         CNVZerner       .... off
 Static damping         CNVDamp         .... on
   Fraction old density DampFac         ....    0.7000
   Max. Damping (<1)    DampMax         ....    0.9800
   Min. Damping (>=0)   DampMin         ....    0.0000
   Turn off err/grad.   DampErr         ....    0.1000
 Fernandez-Rico         CNVRico         .... off

SCF Procedure:
 Maximum # iterations   MaxIter         ....   125
 SCF integral mode      SCFMode         .... Direct
   Integral package                     .... SHARK and LIBINT hybrid scheme
 Reset frequency        DirectResetFreq ....    20
 Integral Threshold     Thresh          ....  2.500e-11 Eh
 Primitive CutOff       TCut            ....  2.500e-12 Eh

Convergence Tolerance:
 Convergence Check Mode ConvCheckMode   .... Total+1el-Energy
 Convergence forced     ConvForced      .... 0
 Energy Change          TolE            ....  1.000e-08 Eh
 1-El. energy change                    ....  1.000e-05 Eh
 Orbital Gradient       TolG            ....  1.000e-05
 Orbital Rotation angle TolX            ....  1.000e-05
 DIIS Error             TolErr          ....  5.000e-07


Diagonalization of the overlap matrix:
Smallest eigenvalue                        ... 3.780e-04
Time for diagonalization                   ...    0.037 sec
Threshold for overlap eigenvalues          ... 1.000e-08
Number of eigenvalues below threshold      ... 0
Time for construction of square roots      ...    0.198 sec
Total time needed                          ...    0.239 sec

--------------------------------
INITIAL GUESS: MINIMAL BASIS EHT
--------------------------------
The minimal basis has 96 functions
EHT matrix was diagonalized
Basis set overlap was calculated now projecting the orbitals
Using GuessMode=FMatrix for the initial guess
C*T matrix was formed
Effective Fockian was calculated
Effective Fockian was diagonalized
Initial density was built
                      ------------------
                      INITIAL GUESS DONE
                      ------------------
-------------------
DFT GRID GENERATION
-------------------

General Integration Accuracy     IntAcc      ... 4.959
Radial Grid Type                 RadialGrid  ... OptM3 with GC (2021)
Angular Grid (max. ang.)         AngularGrid ... 6 (Lebedev-590)
Angular grid pruning method      GridPruning ... 4 (adaptive)
Weight generation scheme         WeightScheme... Becke
Basis function cutoff            BFCut       ... 1.0000e-11
Integration weight cutoff        WCut        ... 1.0000e-14
Angular grids for H and He will be reduced by one unit
Partially contracted basis set               ... off
Rotationally invariant grid construction     ... off

Total number of grid points                  ...   359984
Total number of batches                      ...     5640
Average number of points per batch           ...       63
Average number of grid points per atom       ...    11250
Time for grid setup =    7.506 sec

--------------------
COSX GRID GENERATION
--------------------

GRIDX 1
-------
General Integration Accuracy     IntAcc      ... 4.020
Radial Grid Type                 RadialGrid  ... OptM3 with GC (2021)
Angular Grid (max. ang.)         AngularGrid ... 2 (Lebedev-110)
Angular grid pruning method      GridPruning ... 4 (adaptive)
Weight generation scheme         WeightScheme... Becke
Basis function cutoff            BFCut       ... 1.0000e-11
Integration weight cutoff        WCut        ... 1.0000e-14
Angular grids for H and He will be reduced by one unit
Partially contracted basis set               ... on
Rotationally invariant grid construction     ... off

Total number of grid points                  ...    39364
Total number of batches                      ...      624
Average number of points per batch           ...       63
Average number of grid points per atom       ...     1230
UseSFitting                                  ... on

GRIDX 2
-------
General Integration Accuracy     IntAcc      ... 4.338
Radial Grid Type                 RadialGrid  ... OptM3 with GC (2021)
Angular Grid (max. ang.)         AngularGrid ... 3 (Lebedev-194)
Angular grid pruning method      GridPruning ... 4 (adaptive)
Weight generation scheme         WeightScheme... Becke
Basis function cutoff            BFCut       ... 1.0000e-11
Integration weight cutoff        WCut        ... 1.0000e-14
Angular grids for H and He will be reduced by one unit
Partially contracted basis set               ... on
Rotationally invariant grid construction     ... off

Total number of grid points                  ...    85836
Total number of batches                      ...     1364
Average number of points per batch           ...       62
Average number of grid points per atom       ...     2682
UseSFitting                                  ... on

GRIDX 3
-------
General Integration Accuracy     IntAcc      ... 4.871
Radial Grid Type                 RadialGrid  ... OptM3 with GC (2021)
Angular Grid (max. ang.)         AngularGrid ... 4 (Lebedev-302)
Angular grid pruning method      GridPruning ... 4 (adaptive)
Weight generation scheme         WeightScheme... Becke
Basis function cutoff            BFCut       ... 1.0000e-11
Integration weight cutoff        WCut        ... 1.0000e-14
Angular grids for H and He will be reduced by one unit
Partially contracted basis set               ... on
Rotationally invariant grid construction     ... off

Total number of grid points                  ...   162688
Total number of batches                      ...     2560
Average number of points per batch           ...       63
Average number of grid points per atom       ...     5084
UseSFitting                                  ... on

Time for X-Grid setup             =    8.496 sec

--------------
SCF ITERATIONS
--------------
ITER       Energy         Delta-E        Max-DP      RMS-DP      [F,P]     Damp
               ***  Starting incremental Fock matrix formation  ***
  0   -616.5931520212   0.000000000000 0.08349121  0.00292775  0.4053622 0.7000
  1   -616.9861469840  -0.392994962874 0.06058320  0.00217361  0.2857385 0.7000
  2   -617.2692572396  -0.283110255550 0.04416832  0.00161654  0.2003310 0.7000
                               ***Turning on DIIS***
  3   -617.4712773798  -0.202020140254 0.03221680  0.00120165  0.1404961 0.7000
  4   -617.6148781589  -0.143600779033 0.08157112  0.00315884  0.0985659 0.0000
  5   -617.9588031218  -0.343924962963 0.00446993  0.00021044  0.0044713 0.0000
                      *** Initiating the SOSCF procedure ***
                           *** Shutting down DIIS ***
                      *** Re-Reading the Fockian *** 
                      *** Removing any level shift *** 
ITER      Energy       Delta-E        Grad      Rot      Max-DP    RMS-DP
  6   -617.95923908  -0.0004359592  0.001200  0.001200  0.001491  0.000078
               *** Restarting incremental Fock matrix formation ***
  7   -617.95930591  -0.0000668300  0.000467  0.001033  0.001115  0.000041
  8   -617.95931180  -0.0000058851  0.000305  0.000358  0.000457  0.000019
  9   -617.95931561  -0.0000038127  0.000042  0.000107  0.000126  0.000006
 10   -617.95931570  -0.0000000939  0.000014  0.000015  0.000025  0.000001
 11   -617.95931571  -0.0000000023  0.000008  0.000013  0.000014  0.000001
                  ***Gradient check signals convergence***
              ***Rediagonalizing the Fockian in SOSCF/NRSCF***

               *****************************************************
               *                     SUCCESS                       *
               *           SCF CONVERGED AFTER  12 CYCLES          *
               *****************************************************

Old exchange energy                            =    -37.187704287 Eh
New exchange energy                            =    -37.187749593 Eh
Exchange energy change after final integration =     -0.000045305 Eh
Total energy after final integration           =   -617.959361015 Eh
Final COS-X integration done in                =    22.253 sec

----------------
TOTAL SCF ENERGY
----------------

Total Energy       :         -617.95936102 Eh          -16815.52910 eV

Components:
Nuclear Repulsion  :         1098.55593101 Eh           29893.22662 eV
Electronic Energy  :        -1716.51529202 Eh          -46708.75572 eV
One Electron Energy:        -3016.40990962 Eh          -82080.68654 eV
Two Electron Energy:         1299.89461760 Eh           35371.93082 eV
Max COSX asymmetry :            0.00000097 Eh               0.00003 eV

Virial components:
Potential Energy   :        -1230.41664678 Eh          -33481.33912 eV
Kinetic Energy     :          612.45728576 Eh           16665.81002 eV
Virial Ratio       :            2.00898361


DFT components:
N(Alpha)           :       56.000029538344 electrons
N(Beta)            :       56.000029538344 electrons
N(Total)           :      112.000059076688 electrons
E(X)               :      -49.360192360756 Eh       
E(C)               :       -4.857197051413 Eh       
E(XC)              :      -54.217389412169 Eh       
DFET-embed. en.    :        0.000000000000 Eh       

---------------
SCF CONVERGENCE
---------------

  Last Energy change         ...   -4.8473e-09  Tolerance :   1.0000e-08
  Last MAX-Density change    ...    7.2164e-16  Tolerance :   1.0000e-07
  Last RMS-Density change    ...    2.5336e-17  Tolerance :   5.0000e-09
  Last Orbital Gradient      ...    7.8085e-07  Tolerance :   1.0000e-05
  Last Orbital Rotation      ...    1.0748e-06  Tolerance :   1.0000e-05

             **** THE GBW FILE WAS UPDATED (pbeh-3c.gbw) ****
             **** DENSITY pbeh-3c.scfp WAS UPDATED ****
             **** ENERGY FILE WAS UPDATED (pbeh-3c.en.tmp) ****
             **** THE GBW FILE WAS UPDATED (pbeh-3c.gbw) ****
             **** DENSITY pbeh-3c.scfp WAS UPDATED ****
----------------
ORBITAL ENERGIES
----------------

  NO   OCC          E(Eh)            E(eV) 
   0   2.0000     -10.449597      -284.3480 
   1   2.0000     -10.449586      -284.3477 
   2   2.0000     -10.449503      -284.3454 
   3   2.0000     -10.449489      -284.3451 
   4   2.0000     -10.448493      -284.3179 
   5   2.0000     -10.448417      -284.3159 
   6   2.0000     -10.448329      -284.3135 
   7   2.0000     -10.448282      -284.3122 
   8   2.0000     -10.440974      -284.1133 
   9   2.0000     -10.440890      -284.1111 
  10   2.0000     -10.440841      -284.1097 
  11   2.0000     -10.440767      -284.1077 
  12   2.0000     -10.440328      -284.0958 
  13   2.0000     -10.440321      -284.0956 
  14   2.0000     -10.440261      -284.0939 
  15   2.0000     -10.440241      -284.0934 
  16   2.0000      -0.964224       -26.2379 
  17   2.0000      -0.941090       -25.6084 
  18   2.0000      -0.905832       -24.6489 
  19   2.0000      -0.846142       -23.0247 
  20   2.0000      -0.845106       -22.9965 
  21   2.0000      -0.831529       -22.6271 
  22   2.0000      -0.820229       -22.3196 
  23   2.0000      -0.763482       -20.7754 
  24   2.0000      -0.743251       -20.2249 
  25   2.0000      -0.682911       -18.5829 
  26   2.0000      -0.671082       -18.2611 
  27   2.0000      -0.669111       -18.2074 
  28   2.0000      -0.652129       -17.7453 
  29   2.0000      -0.622830       -16.9481 
  30   2.0000      -0.566810       -15.4237 
  31   2.0000      -0.547777       -14.9058 
  32   2.0000      -0.525440       -14.2980 
  33   2.0000      -0.521606       -14.1936 
  34   2.0000      -0.515315       -14.0224 
  35   2.0000      -0.499440       -13.5904 
  36   2.0000      -0.494877       -13.4663 
  37   2.0000      -0.492582       -13.4038 
  38   2.0000      -0.480303       -13.0697 
  39   2.0000      -0.473000       -12.8710 
  40   2.0000      -0.465243       -12.6599 
  41   2.0000      -0.451933       -12.2977 
  42   2.0000      -0.441353       -12.0098 
  43   2.0000      -0.416474       -11.3328 
  44   2.0000      -0.416352       -11.3295 
  45   2.0000      -0.399073       -10.8593 
  46   2.0000      -0.395514       -10.7625 
  47   2.0000      -0.389550       -10.6002 
  48   2.0000      -0.386692       -10.5224 
  49   2.0000      -0.385544       -10.4912 
  50   2.0000      -0.369363       -10.0509 
  51   2.0000      -0.349705        -9.5159 
  52   2.0000      -0.310162        -8.4399 
  53   2.0000      -0.268869        -7.3163 
  54   2.0000      -0.254858        -6.9350 
  55   2.0000      -0.252285        -6.8650 
  56   0.0000      -0.005377        -0.1463 
  57   0.0000       0.009325         0.2537 
  58   0.0000       0.021645         0.5890 
  59   0.0000       0.052685         1.4336 
  60   0.0000       0.119757         3.2587 
  61   0.0000       0.136032         3.7016 
  62   0.0000       0.151494         4.1224 
  63   0.0000       0.161527         4.3954 
  64   0.0000       0.162347         4.4177 
  65   0.0000       0.166635         4.5344 
  66   0.0000       0.170343         4.6353 
  67   0.0000       0.181679         4.9437 
  68   0.0000       0.196933         5.3588 
  69   0.0000       0.205822         5.6007 
  70   0.0000       0.213456         5.8084 
  71   0.0000       0.216476         5.8906 
  72   0.0000       0.217468         5.9176 
  73   0.0000       0.225229         6.1288 
  74   0.0000       0.240687         6.5494 
  75   0.0000       0.255255         6.9458 
  76   0.0000       0.261442         7.1142 
  77   0.0000       0.263456         7.1690 
  78   0.0000       0.268319         7.3013 
  79   0.0000       0.270794         7.3687 
  80   0.0000       0.278012         7.5651 
  81   0.0000       0.287276         7.8172 
  82   0.0000       0.295258         8.0344 
  83   0.0000       0.329364         8.9625 
  84   0.0000       0.336236         9.1495 
  85   0.0000       0.357096         9.7171 
  86   0.0000       0.359153         9.7730 
  87   0.0000       0.372963        10.1488 
  88   0.0000       0.375119        10.2075 
  89   0.0000       0.383838        10.4448 
  90   0.0000       0.397159        10.8072 
  91   0.0000       0.436454        11.8765 
  92   0.0000       0.463414        12.6101 
  93   0.0000       0.477367        12.9898 
  94   0.0000       0.479569        13.0497 
  95   0.0000       0.518967        14.1218 
  96   0.0000       0.519015        14.1231 
  97   0.0000       0.522963        14.2305 
  98   0.0000       0.529801        14.4166 
  99   0.0000       0.531031        14.4501 
 100   0.0000       0.540759        14.7148 
 101   0.0000       0.555271        15.1097 
 102   0.0000       0.558957        15.2100 
 103   0.0000       0.583068        15.8661 
 104   0.0000       0.583288        15.8721 
 105   0.0000       0.600851        16.3500 
 106   0.0000       0.602180        16.3861 
 107   0.0000       0.603145        16.4124 
 108   0.0000       0.614443        16.7198 
 109   0.0000       0.619681        16.8624 
 110   0.0000       0.624611        16.9965 
 111   0.0000       0.635897        17.3036 
 112   0.0000       0.639037        17.3891 
 113   0.0000       0.642252        17.4766 
 114   0.0000       0.643283        17.5046 
 115   0.0000       0.665326        18.1044 
 116   0.0000       0.671007        18.2590 
 117   0.0000       0.678376        18.4595 
 118   0.0000       0.694808        18.9067 
 119   0.0000       0.708512        19.2796 
 120   0.0000       0.718949        19.5636 
 121   0.0000       0.733397        19.9567 
 122   0.0000       0.761234        20.7142 
 123   0.0000       0.763567        20.7777 
 124   0.0000       0.764952        20.8154 
 125   0.0000       0.786909        21.4129 
 126   0.0000       0.805916        21.9301 
 127   0.0000       0.817479        22.2447 
 128   0.0000       0.834932        22.7196 
 129   0.0000       0.846620        23.0377 
 130   0.0000       0.888521        24.1779 
 131   0.0000       0.906629        24.6706 
 132   0.0000       0.911750        24.8100 
 133   0.0000       0.914929        24.8965 
 134   0.0000       0.925300        25.1787 
 135   0.0000       0.931896        25.3582 
 136   0.0000       0.956557        26.0292 
 137   0.0000       0.970361        26.4049 
 138   0.0000       0.976269        26.5656 
 139   0.0000       0.978826        26.6352 
 140   0.0000       0.987402        26.8686 
 141   0.0000       0.989225        26.9182 
 142   0.0000       0.996100        27.1053 
 143   0.0000       0.999923        27.2093 
 144   0.0000       1.009266        27.4635 
 145   0.0000       1.009311        27.4647 
 146   0.0000       1.012064        27.5397 
 147   0.0000       1.044666        28.4268 
 148   0.0000       1.051112        28.6022 
 149   0.0000       1.058731        28.8095 
 150   0.0000       1.063528        28.9401 
 151   0.0000       1.070428        29.1278 
 152   0.0000       1.087071        29.5807 
 153   0.0000       1.089391        29.6438 
 154   0.0000       1.100065        29.9343 
 155   0.0000       1.104284        30.0491 
 156   0.0000       1.118860        30.4457 
 157   0.0000       1.119541        30.4642 
 158   0.0000       1.132773        30.8243 
 159   0.0000       1.137231        30.9456 
 160   0.0000       1.222041        33.2534 
 161   0.0000       1.233315        33.5602 
 162   0.0000       1.240993        33.7691 
 163   0.0000       1.254780        34.1443 
 164   0.0000       1.271373        34.5958 
 165   0.0000       1.295945        35.2645 
 166   0.0000       1.304295        35.4917 
 167   0.0000       1.310186        35.6520 
 168   0.0000       1.314089        35.7582 
 169   0.0000       1.351671        36.7808 
 170   0.0000       1.393240        37.9120 
 171   0.0000       1.396355        37.9968 
 172   0.0000       1.417475        38.5715 
 173   0.0000       1.434367        39.0311 
 174   0.0000       1.497552        40.7505 
 175   0.0000       1.500806        40.8390 
 176   0.0000       1.507914        41.0324 
 177   0.0000       1.550175        42.1824 
 178   0.0000       1.552666        42.2502 
 179   0.0000       1.574000        42.8307 
 180   0.0000       1.578402        42.9505 
 181   0.0000       1.597291        43.4645 
 182   0.0000       1.597436        43.4684 
 183   0.0000       1.612701        43.8838 
 184   0.0000       1.627277        44.2804 
 185   0.0000       1.706501        46.4363 
 186   0.0000       1.725156        46.9439 
 187   0.0000       1.743531        47.4439 
 188   0.0000       1.780097        48.4389 
 189   0.0000       1.784694        48.5640 
 190   0.0000       1.802506        49.0487 
 191   0.0000       1.808731        49.2181 
 192   0.0000       1.836617        49.9769 
 193   0.0000       1.856993        50.5313 
 194   0.0000       1.870628        50.9024 
 195   0.0000       1.902562        51.7714 
 196   0.0000       1.914603        52.0990 
 197   0.0000       1.932807        52.5944 
 198   0.0000       1.979717        53.8708 
 199   0.0000       1.984271        53.9948 
 200   0.0000       1.994840        54.2823 
 201   0.0000       2.002471        54.4900 
 202   0.0000       2.056172        55.9513 
 203   0.0000       2.077485        56.5312 
 204   0.0000       2.086322        56.7717 
 205   0.0000       2.086739        56.7831 
 206   0.0000       2.090514        56.8858 
 207   0.0000       2.114254        57.5318 
 208   0.0000       2.126710        57.8707 
 209   0.0000       2.136445        58.1356 
 210   0.0000       2.174041        59.1587 
 211   0.0000       2.196238        59.7627 
 212   0.0000       2.196542        59.7709 
 213   0.0000       2.221941        60.4621 
 214   0.0000       2.233355        60.7727 
 215   0.0000       2.253829        61.3298 
 216   0.0000       2.256873        61.4126 
 217   0.0000       2.285887        62.2022 
 218   0.0000       2.292428        62.3801 
 219   0.0000       2.299974        62.5855 
 220   0.0000       2.304830        62.7176 
 221   0.0000       2.321112        63.1607 
 222   0.0000       2.335670        63.5568 
 223   0.0000       2.349299        63.9277 
 224   0.0000       2.384896        64.8963 
 225   0.0000       2.401308        65.3429 
 226   0.0000       2.411100        65.6094 
 227   0.0000       2.419710        65.8436 
 228   0.0000       2.439253        66.3754 
 229   0.0000       2.469172        67.1896 
 230   0.0000       2.470421        67.2236 
 231   0.0000       2.533124        68.9298 
 232   0.0000       2.550714        69.4084 
 233   0.0000       2.561551        69.7033 
 234   0.0000       2.600352        70.7592 
 235   0.0000       2.634654        71.6926 
 236   0.0000       2.649981        72.1096 
 237   0.0000       2.682756        73.0015 
 238   0.0000       2.732947        74.3673 
 239   0.0000       2.742872        74.6373 
 240   0.0000       2.748078        74.7790 
 241   0.0000       2.777137        75.5697 
 242   0.0000       2.779421        75.6319 
 243   0.0000       2.822173        76.7952 
 244   0.0000       2.841015        77.3080 
 245   0.0000       2.855164        77.6930 
 246   0.0000       2.859006        77.7975 
 247   0.0000       2.862826        77.9015 
 248   0.0000       2.872806        78.1730 
 249   0.0000       2.898529        78.8730 
 250   0.0000       2.900855        78.9363 
 251   0.0000       2.931406        79.7676 
 252   0.0000       3.115440        84.7754 
 253   0.0000       3.137596        85.3783 
 254   0.0000       3.438564        93.5681 
 255   0.0000       3.459305        94.1325 
 256   0.0000      13.160220       358.1078 
 257   0.0000      13.458086       366.2131 
 258   0.0000      13.513728       367.7272 
 259   0.0000      13.596397       369.9768 
 260   0.0000      13.772314       374.7637 
 261   0.0000      13.873477       377.5165 
 262   0.0000      13.890074       377.9681 
 263   0.0000      13.902546       378.3075 
 264   0.0000      14.022219       381.5640 
 265   0.0000      14.092800       383.4846 
 266   0.0000      14.094420       383.5287 
 267   0.0000      14.181225       385.8907 
 268   0.0000      14.283443       388.6722 
 269   0.0000      14.335608       390.0917 
 270   0.0000      14.445997       393.0956 
 271   0.0000      14.609391       397.5417 

                    ********************************
                    * MULLIKEN POPULATION ANALYSIS *
                    ********************************

-----------------------
MULLIKEN ATOMIC CHARGES
-----------------------
   0 C :   -0.238255
   1 C :    0.104339
   2 C :   -0.238168
   3 C :   -0.238255
   4 C :    0.104339
   5 C :   -0.494455
   6 C :   -0.494455
   7 C :   -0.494455
   8 C :   -0.494455
   9 C :    0.104339
  10 C :   -0.238168
  11 C :   -0.238255
  12 C :    0.104340
  13 C :   -0.238168
  14 C :   -0.238254
  15 C :   -0.238168
  16 H :    0.206636
  17 H :    0.206019
  18 H :    0.206636
  19 H :    0.231586
  20 H :    0.222298
  21 H :    0.222297
  22 H :    0.231587
  23 H :    0.222297
  24 H :    0.231587
  25 H :    0.231587
  26 H :    0.222298
  27 H :    0.206019
  28 H :    0.206636
  29 H :    0.206018
  30 H :    0.206636
  31 H :    0.206019
Sum of atomic charges:   -0.0000000

--------------------------------
MULLIKEN REDUCED ORBITAL CHARGES
--------------------------------
  0 C s       :     3.252529  s :     3.252529
      pz      :     0.996695  p :     2.946239
      px      :     0.941626
      py      :     1.007918
      dz2     :     0.004121  d :     0.039488
      dxz     :     0.006090
      dyz     :     0.003148
      dx2y2   :     0.012335
      dxy     :     0.013793
  1 C s       :     3.164620  s :     3.164620
      pz      :     0.965882  p :     2.685552
      px      :     0.851456
      py      :     0.868214
      dz2     :     0.004426  d :     0.045489
      dxz     :     0.006596
      dyz     :     0.007188
      dx2y2   :     0.012528
      dxy     :     0.014751
  2 C s       :     3.261679  s :     3.261679
      pz      :     0.996150  p :     2.937073
      px      :     0.944782
      py      :     0.996140
      dz2     :     0.004128  d :     0.039416
      dxz     :     0.005734
      dyz     :     0.003475
      dx2y2   :     0.011750
      dxy     :     0.014329
  3 C s       :     3.252529  s :     3.252529
      pz      :     0.996695  p :     2.946238
      px      :     0.941626
      py      :     1.007917
      dz2     :     0.004121  d :     0.039488
      dxz     :     0.006090
      dyz     :     0.003148
      dx2y2   :     0.012335
      dxy     :     0.013793
  4 C s       :     3.164620  s :     3.164620
      pz      :     0.965882  p :     2.685552
      px      :     0.851457
      py      :     0.868214
      dz2     :     0.004426  d :     0.045489
      dxz     :     0.006596
      dyz     :     0.007188
      dx2y2   :     0.012528
      dxy     :     0.014751
  5 C s       :     3.366561  s :     3.366561
      pz      :     0.942043  p :     3.086504
      px      :     0.990196
      py      :     1.154265
      dz2     :     0.010534  d :     0.041390
      dxz     :     0.008701
      dyz     :     0.005644
      dx2y2   :     0.006910
      dxy     :     0.009601
  6 C s       :     3.366561  s :     3.366561
      pz      :     0.942043  p :     3.086504
      px      :     0.990196
      py      :     1.154265
      dz2     :     0.010534  d :     0.041390
      dxz     :     0.008701
      dyz     :     0.005644
      dx2y2   :     0.006910
      dxy     :     0.009601
  7 C s       :     3.366562  s :     3.366562
      pz      :     0.942043  p :     3.086503
      px      :     0.990196
      py      :     1.154264
      dz2     :     0.010534  d :     0.041390
      dxz     :     0.008701
      dyz     :     0.005644
      dx2y2   :     0.006910
      dxy     :     0.009601
  8 C s       :     3.366562  s :     3.366562
      pz      :     0.942043  p :     3.086503
      px      :     0.990195
      py      :     1.154264
      dz2     :     0.010534  d :     0.041390
      dxz     :     0.008701
      dyz     :     0.005644
      dx2y2   :     0.006910
      dxy     :     0.009601
  9 C s       :     3.164620  s :     3.164620
      pz      :     0.965882  p :     2.685552
      px      :     0.851456
      py      :     0.868214
      dz2     :     0.004426  d :     0.045489
      dxz     :     0.006596
      dyz     :     0.007188
      dx2y2   :     0.012528
      dxy     :     0.014751
 10 C s       :     3.261678  s :     3.261678
      pz      :     0.996150  p :     2.937073
      px      :     0.944782
      py      :     0.996141
      dz2     :     0.004128  d :     0.039416
      dxz     :     0.005734
      dyz     :     0.003475
      dx2y2   :     0.011750
      dxy     :     0.014329
 11 C s       :     3.252529  s :     3.252529
      pz      :     0.996695  p :     2.946238
      px      :     0.941626
      py      :     1.007917
      dz2     :     0.004121  d :     0.039488
      dxz     :     0.006090
      dyz     :     0.003148
      dx2y2   :     0.012335
      dxy     :     0.013793
 12 C s       :     3.164619  s :     3.164619
      pz      :     0.965882  p :     2.685552
      px      :     0.851456
      py      :     0.868214
      dz2     :     0.004426  d :     0.045489
      dxz     :     0.006596
      dyz     :     0.007188
      dx2y2   :     0.012528
      dxy     :     0.014751
 13 C s       :     3.261680  s :     3.261680
      pz      :     0.996151  p :     2.937073
      px      :     0.944782
      py      :     0.996140
      dz2     :     0.004128  d :     0.039416
      dxz     :     0.005734
      dyz     :     0.003475
      dx2y2   :     0.011750
      dxy     :     0.014329
 14 C s       :     3.252528  s :     3.252528
      pz      :     0.996695  p :     2.946238
      px      :     0.941626
      py      :     1.007917
      dz2     :     0.004121  d :     0.039488
      dxz     :     0.006090
      dyz     :     0.003148
      dx2y2   :     0.012335
      dxy     :     0.013793
 15 C s       :     3.261679  s :     3.261679
      pz      :     0.996151  p :     2.937073
      px      :     0.944782
      py      :     0.996141
      dz2     :     0.004128  d :     0.039416
      dxz     :     0.005734
      dyz     :     0.003475
      dx2y2   :     0.011750
      dxy     :     0.014329
 16 H s       :     0.793364  s :     0.793364
 17 H s       :     0.793981  s :     0.793981
 18 H s       :     0.793364  s :     0.793364
 19 H s       :     0.768414  s :     0.768414
 20 H s       :     0.777702  s :     0.777702
 21 H s       :     0.777703  s :     0.777703
 22 H s       :     0.768413  s :     0.768413
 23 H s       :     0.777703  s :     0.777703
 24 H s       :     0.768413  s :     0.768413
 25 H s       :     0.768413  s :     0.768413
 26 H s       :     0.777702  s :     0.777702
 27 H s       :     0.793981  s :     0.793981
 28 H s       :     0.793364  s :     0.793364
 29 H s       :     0.793982  s :     0.793982
 30 H s       :     0.793364  s :     0.793364
 31 H s       :     0.793981  s :     0.793981


                     *******************************
                     * LOEWDIN POPULATION ANALYSIS *
                     *******************************

----------------------
LOEWDIN ATOMIC CHARGES
----------------------
   0 C :   -0.126067
   1 C :   -0.055934
   2 C :   -0.125301
   3 C :   -0.126067
   4 C :   -0.055933
   5 C :   -0.220054
   6 C :   -0.220054
   7 C :   -0.220054
   8 C :   -0.220054
   9 C :   -0.055934
  10 C :   -0.125301
  11 C :   -0.126067
  12 C :   -0.055933
  13 C :   -0.125301
  14 C :   -0.126067
  15 C :   -0.125301
  16 H :    0.130893
  17 H :    0.131553
  18 H :    0.130893
  19 H :    0.134210
  20 H :    0.130699
  21 H :    0.130699
  22 H :    0.134210
  23 H :    0.130699
  24 H :    0.134210
  25 H :    0.134210
  26 H :    0.130699
  27 H :    0.131553
  28 H :    0.130893
  29 H :    0.131553
  30 H :    0.130893
  31 H :    0.131553

-------------------------------
LOEWDIN REDUCED ORBITAL CHARGES
-------------------------------
  0 C s       :     2.894150  s :     2.894150
      pz      :     0.991763  p :     3.142477
      px      :     1.080126
      py      :     1.070587
      dz2     :     0.006650  d :     0.089440
      dxz     :     0.012587
      dyz     :     0.005816
      dx2y2   :     0.030809
      dxy     :     0.033578
  1 C s       :     2.852067  s :     2.852067
      pz      :     0.962294  p :     3.095233
      px      :     1.039444
      py      :     1.093495
      dz2     :     0.008863  d :     0.108634
      dxz     :     0.013534
      dyz     :     0.015410
      dx2y2   :     0.033775
      dxy     :     0.037052
  2 C s       :     2.893406  s :     2.893406
      pz      :     0.991523  p :     3.142595
      px      :     1.078847
      py      :     1.072224
      dz2     :     0.006648  d :     0.089300
      dxz     :     0.011729
      dyz     :     0.006586
      dx2y2   :     0.029825
      dxy     :     0.034512
  3 C s       :     2.894150  s :     2.894150
      pz      :     0.991763  p :     3.142477
      px      :     1.080126
      py      :     1.070587
      dz2     :     0.006650  d :     0.089440
      dxz     :     0.012587
      dyz     :     0.005816
      dx2y2   :     0.030809
      dxy     :     0.033578
  4 C s       :     2.852067  s :     2.852067
      pz      :     0.962293  p :     3.095233
      px      :     1.039444
      py      :     1.093495
      dz2     :     0.008863  d :     0.108634
      dxz     :     0.013534
      dyz     :     0.015410
      dx2y2   :     0.033775
      dxy     :     0.037052
  5 C s       :     2.920396  s :     2.920396
      pz      :     1.036501  p :     3.216958
      px      :     1.066111
      py      :     1.114346
      dz2     :     0.023142  d :     0.082699
      dxz     :     0.017714
      dyz     :     0.010205
      dx2y2   :     0.013892
      dxy     :     0.017746
  6 C s       :     2.920396  s :     2.920396
      pz      :     1.036501  p :     3.216958
      px      :     1.066111
      py      :     1.114346
      dz2     :     0.023142  d :     0.082699
      dxz     :     0.017714
      dyz     :     0.010205
      dx2y2   :     0.013892
      dxy     :     0.017746
  7 C s       :     2.920396  s :     2.920396
      pz      :     1.036501  p :     3.216958
      px      :     1.066111
      py      :     1.114346
      dz2     :     0.023142  d :     0.082699
      dxz     :     0.017714
      dyz     :     0.010205
      dx2y2   :     0.013892
      dxy     :     0.017746
  8 C s       :     2.920396  s :     2.920396
      pz      :     1.036501  p :     3.216958
      px      :     1.066111
      py      :     1.114346
      dz2     :     0.023142  d :     0.082699
      dxz     :     0.017714
      dyz     :     0.010205
      dx2y2   :     0.013892
      dxy     :     0.017746
  9 C s       :     2.852067  s :     2.852067
      pz      :     0.962293  p :     3.095233
      px      :     1.039444
      py      :     1.093495
      dz2     :     0.008863  d :     0.108634
      dxz     :     0.013534
      dyz     :     0.015410
      dx2y2   :     0.033775
      dxy     :     0.037052
 10 C s       :     2.893406  s :     2.893406
      pz      :     0.991523  p :     3.142595
      px      :     1.078847
      py      :     1.072224
      dz2     :     0.006648  d :     0.089300
      dxz     :     0.011729
      dyz     :     0.006586
      dx2y2   :     0.029825
      dxy     :     0.034512
 11 C s       :     2.894150  s :     2.894150
      pz      :     0.991763  p :     3.142477
      px      :     1.080126
      py      :     1.070587
      dz2     :     0.006650  d :     0.089440
      dxz     :     0.012587
      dyz     :     0.005816
      dx2y2   :     0.030809
      dxy     :     0.033578
 12 C s       :     2.852067  s :     2.852067
      pz      :     0.962293  p :     3.095233
      px      :     1.039444
      py      :     1.093495
      dz2     :     0.008863  d :     0.108634
      dxz     :     0.013534
      dyz     :     0.015410
      dx2y2   :     0.033775
      dxy     :     0.037052
 13 C s       :     2.893406  s :     2.893406
      pz      :     0.991523  p :     3.142595
      px      :     1.078847
      py      :     1.072224
      dz2     :     0.006648  d :     0.089300
      dxz     :     0.011729
      dyz     :     0.006586
      dx2y2   :     0.029825
      dxy     :     0.034512
 14 C s       :     2.894150  s :     2.894150
      pz      :     0.991763  p :     3.142477
      px      :     1.080126
      py      :     1.070587
      dz2     :     0.006650  d :     0.089440
      dxz     :     0.012587
      dyz     :     0.005816
      dx2y2   :     0.030809
      dxy     :     0.033578
 15 C s       :     2.893406  s :     2.893406
      pz      :     0.991523  p :     3.142595
      px      :     1.078847
      py      :     1.072224
      dz2     :     0.006648  d :     0.089300
      dxz     :     0.011729
      dyz     :     0.006586
      dx2y2   :     0.029825
      dxy     :     0.034512
 16 H s       :     0.869107  s :     0.869107
 17 H s       :     0.868447  s :     0.868447
 18 H s       :     0.869107  s :     0.869107
 19 H s       :     0.865790  s :     0.865790
 20 H s       :     0.869301  s :     0.869301
 21 H s       :     0.869301  s :     0.869301
 22 H s       :     0.865790  s :     0.865790
 23 H s       :     0.869301  s :     0.869301
 24 H s       :     0.865790  s :     0.865790
 25 H s       :     0.865790  s :     0.865790
 26 H s       :     0.869301  s :     0.869301
 27 H s       :     0.868447  s :     0.868447
 28 H s       :     0.869107  s :     0.869107
 29 H s       :     0.868447  s :     0.868447
 30 H s       :     0.869107  s :     0.869107
 31 H s       :     0.868447  s :     0.868447


                      *****************************
                      * MAYER POPULATION ANALYSIS *
                      *****************************

  NA   - Mulliken gross atomic population
  ZA   - Total nuclear charge
  QA   - Mulliken gross atomic charge
  VA   - Mayer's total valence
  BVA  - Mayer's bonded valence
  FA   - Mayer's free valence

  ATOM       NA         ZA         QA         VA         BVA        FA
  0 C      6.2383     6.0000    -0.2383     3.8298     3.8298    -0.0000
  1 C      5.8957     6.0000     0.1043     3.7510     3.7510    -0.0000
  2 C      6.2382     6.0000    -0.2382     3.8074     3.8074    -0.0000
  3 C      6.2383     6.0000    -0.2383     3.8298     3.8298    -0.0000
  4 C      5.8957     6.0000     0.1043     3.7510     3.7510     0.0000
  5 C      6.4945     6.0000    -0.4945     3.7034     3.7034    -0.0000
  6 C      6.4945     6.0000    -0.4945     3.7034     3.7034    -0.0000
  7 C      6.4945     6.0000    -0.4945     3.7034     3.7034    -0.0000
  8 C      6.4945     6.0000    -0.4945     3.7034     3.7034    -0.0000
  9 C      5.8957     6.0000     0.1043     3.7510     3.7510    -0.0000
 10 C      6.2382     6.0000    -0.2382     3.8074     3.8074    -0.0000
 11 C      6.2383     6.0000    -0.2383     3.8298     3.8298    -0.0000
 12 C      5.8957     6.0000     0.1043     3.7510     3.7510    -0.0000
 13 C      6.2382     6.0000    -0.2382     3.8074     3.8074    -0.0000
 14 C      6.2383     6.0000    -0.2383     3.8298     3.8298     0.0000
 15 C      6.2382     6.0000    -0.2382     3.8074     3.8074    -0.0000
 16 H      0.7934     1.0000     0.2066     0.9205     0.9205    -0.0000
 17 H      0.7940     1.0000     0.2060     0.9200     0.9200     0.0000
 18 H      0.7934     1.0000     0.2066     0.9205     0.9205    -0.0000
 19 H      0.7684     1.0000     0.2316     0.9046     0.9046     0.0000
 20 H      0.7777     1.0000     0.2223     0.9108     0.9108    -0.0000
 21 H      0.7777     1.0000     0.2223     0.9108     0.9108    -0.0000
 22 H      0.7684     1.0000     0.2316     0.9046     0.9046    -0.0000
 23 H      0.7777     1.0000     0.2223     0.9108     0.9108    -0.0000
 24 H      0.7684     1.0000     0.2316     0.9046     0.9046    -0.0000
 25 H      0.7684     1.0000     0.2316     0.9046     0.9046    -0.0000
 26 H      0.7777     1.0000     0.2223     0.9108     0.9108    -0.0000
 27 H      0.7940     1.0000     0.2060     0.9200     0.9200    -0.0000
 28 H      0.7934     1.0000     0.2066     0.9205     0.9205    -0.0000
 29 H      0.7940     1.0000     0.2060     0.9200     0.9200    -0.0000
 30 H      0.7934     1.0000     0.2066     0.9205     0.9205    -0.0000
 31 H      0.7940     1.0000     0.2060     0.9200     0.9200    -0.0000

  Mayer bond orders larger than 0.100000
B(  0-C ,  1-C ) :   1.3991 B(  0-C , 15-C ) :   1.4410 B(  0-C , 16-H ) :   0.9204 
B(  1-C ,  2-C ) :   1.3897 B(  1-C ,  6-C ) :   0.9770 B(  2-C ,  3-C ) :   1.4410 
B(  2-C , 17-H ) :   0.9235 B(  3-C ,  4-C ) :   1.3991 B(  3-C , 18-H ) :   0.9204 
B(  4-C ,  5-C ) :   0.9770 B(  4-C , 15-C ) :   1.3897 B(  5-C ,  7-C ) :   0.9131 
B(  5-C , 19-H ) :   0.9207 B(  5-C , 20-H ) :   0.9255 B(  6-C ,  8-C ) :   0.9131 
B(  6-C , 21-H ) :   0.9255 B(  6-C , 22-H ) :   0.9207 B(  7-C ,  9-C ) :   0.9770 
B(  7-C , 23-H ) :   0.9255 B(  7-C , 24-H ) :   0.9207 B(  8-C , 12-C ) :   0.9770 
B(  8-C , 25-H ) :   0.9207 B(  8-C , 26-H ) :   0.9255 B(  9-C , 10-C ) :   1.3897 
B(  9-C , 14-C ) :   1.3991 B( 10-C , 11-C ) :   1.4410 B( 10-C , 27-H ) :   0.9235 
B( 11-C , 12-C ) :   1.3991 B( 11-C , 28-H ) :   0.9204 B( 12-C , 13-C ) :   1.3897 
B( 13-C , 14-C ) :   1.4410 B( 13-C , 29-H ) :   0.9235 B( 14-C , 30-H ) :   0.9204 
B( 15-C , 31-H ) :   0.9235 

-------
TIMINGS
-------

Total SCF time: 0 days 0 hours 3 min 54 sec 

Total time                  ....     234.944 sec
Sum of individual times     ....     227.720 sec  ( 96.9%)

Fock matrix formation       ....     204.968 sec  ( 87.2%)
  Split-RI-J                ....      13.321 sec  (  6.5% of F)
  Chain of spheres X        ....     139.724 sec  ( 68.2% of F)
  XC integration            ....      39.681 sec  ( 19.4% of F)
    Basis function eval.    ....      11.034 sec  ( 27.8% of XC)
    Density eval.           ....       7.110 sec  ( 17.9% of XC)
    XC-Functional eval.     ....       3.275 sec  (  8.3% of XC)
    XC-Potential eval.      ....       4.823 sec  ( 12.2% of XC)
Diagonalization             ....       1.365 sec  (  0.6%)
Density matrix formation    ....       0.101 sec  (  0.0%)
Population analysis         ....       0.294 sec  (  0.1%)
Initial guess               ....       0.120 sec  (  0.1%)
Orbital Transformation      ....       0.000 sec  (  0.0%)
Orbital Orthonormalization  ....       0.000 sec  (  0.0%)
DIIS solution               ....       3.596 sec  (  1.5%)
SOSCF solution              ....       1.274 sec  (  0.5%)
Grid generation             ....      16.001 sec  (  6.8%)

Maximum memory used throughout the entire SCF-calculation: 93.1 MB


-------------------------------------------------------------------------------
                          DFT DISPERSION CORRECTION                            
                                                                               
                              DFTD3 V3.1  Rev 1                                
                          USING Becke-Johnson damping                          
-------------------------------------------------------------------------------
The PBEh-3c composite method is recognized
Using three-body term ABC
Active option DFTDOPT                   ...         4   

molecular C6(AA) [au] = 11089.681670 


            DFT-D V3
 parameters
 s6 scaling factor         :     1.0000 
 a1 scaling factor         :     0.4860 
 s8 scaling factor         :     0.0000 
 a2 scaling factor         :     4.5000 
 Damping factor alpha9(ATM):    16.0000 
 ad hoc parameters k1-k3   :    16.0000     1.3333    -4.0000 

 Edisp/kcal,au: -17.274114105249  -0.027528050136 
 E6   /kcal   : -17.580693306 
 E8   /kcal   :  -0.000000000 
 E6(ABC)      :   0.306579200 
 % E8         :   0.000000000 
 % E6(ABC)    :  -1.774789715 

-------------------------   ----------------
Dispersion correction           -0.027528050
-------------------------   ----------------

------------------   -----------------
gCP correction             0.045890311
------------------   -----------------

-------------------------   --------------------
FINAL SINGLE POINT ENERGY      -617.940998754145
-------------------------   --------------------


                            ***************************************
                            *     ORCA property calculations      *
                            ***************************************

                                    ---------------------
                                    Active property flags
                                    ---------------------
   (+) Dipole Moment


------------------------------------------------------------------------------
                       ORCA ELECTRIC PROPERTIES CALCULATION
------------------------------------------------------------------------------

Dipole Moment Calculation                       ... on
Quadrupole Moment Calculation                   ... off
Polarizability Calculation                      ... off
GBWName                                         ... pbeh-3c.gbw
Electron density                                ... pbeh-3c.scfp
The origin for moment calculation is the CENTER OF MASS  = (-0.000000,  0.000000  0.000000)

-------------
DIPOLE MOMENT
-------------
                                X             Y             Z
Electronic contribution:     -0.00000       0.00000       0.00000
Nuclear contribution   :      0.00000       0.00000      -0.00000
                        -----------------------------------------
Total Dipole Moment    :     -0.00000       0.00000       0.00000
                        -----------------------------------------
Magnitude (a.u.)       :      0.00000
Magnitude (Debye)      :      0.00000



--------------------
Rotational spectrum 
--------------------
 
Rotational constants in cm-1:     0.029909     0.021021     0.016831 
Rotational constants in MHz :   896.659539   630.193502   504.586845 

 Dipole components along the rotational axes: 
x,y,z [a.u.] :     0.000000     0.000000    -0.000000 
x,y,z [Debye]:     0.000000     0.000001    -0.000000 

 

Timings for individual modules:

Sum of individual times         ...      238.935 sec (=   3.982 min)
GTO integral calculation        ...        3.001 sec (=   0.050 min)   1.3 %
SCF iterations                  ...      235.934 sec (=   3.932 min)  98.7 %
                             ****ORCA TERMINATED NORMALLY****
TOTAL RUN TIME: 0 days 0 hours 4 minutes 1 seconds 91 msec
