
                                 *****************
                                 * O   R   C   A *
                                 *****************

                                            #,                                       
                                            ###                                      
                                            ####                                     
                                            #####                                    
                                            ######                                   
                                           ########,                                 
                                     ,,################,,,,,                         
                               ,,#################################,,                 
                          ,,##########################################,,             
                       ,#########################################, ''#####,          
                    ,#############################################,,   '####,        
                  ,##################################################,,,,####,       
                ,###########''''           ''''###############################       
              ,#####''   ,,,,##########,,,,          '''####'''          '####       
            ,##' ,,,,###########################,,,                        '##       
           ' ,,###''''                  '''############,,,                           
         ,,##''                                '''############,,,,        ,,,,,,###''
      ,#''                                            '''#######################'''  
     '                                                          ''''####''''         
             ,#######,   #######,   ,#######,      ##                                
            ,#'     '#,  ##    ##  ,#'     '#,    #''#        ######   ,####,        
            ##       ##  ##   ,#'  ##            #'  '#       #        #'  '#        
            ##       ##  #######   ##           ,######,      #####,   #    #        
            '#,     ,#'  ##    ##  '#,     ,#' ,#      #,         ##   #,  ,#        
             '#######'   ##     ##  '#######'  #'      '#     #####' # '####'        



                  #######################################################
                  #                        -***-                        #
                  #          Department of theory and spectroscopy      #
                  #    Directorship and core code : Frank Neese         #
                  #        Max Planck Institute fuer Kohlenforschung    #
                  #                Kaiser Wilhelm Platz 1               #
                  #                 D-45470 Muelheim/Ruhr               #
                  #                      Germany                        #
                  #                                                     #
                  #                  All rights reserved                #
                  #                        -***-                        #
                  #######################################################


                         Program Version 5.0.3 -  RELEASE  -


 With contributions from (in alphabetic order):
   Daniel Aravena         : Magnetic Suceptibility
   Michael Atanasov       : Ab Initio Ligand Field Theory (pilot matlab implementation)
   Alexander A. Auer      : GIAO ZORA, VPT2 properties, NMR spectrum
   Ute Becker             : Parallelization
   Giovanni Bistoni       : ED, misc. LED, open-shell LED, HFLD
   Martin Brehm           : Molecular dynamics
   Dmytro Bykov           : SCF Hessian
   Vijay G. Chilkuri      : MRCI spin determinant printing, contributions to CSF-ICE
   Dipayan Datta          : RHF DLPNO-CCSD density
   Achintya Kumar Dutta   : EOM-CC, STEOM-CC
   Dmitry Ganyushin       : Spin-Orbit,Spin-Spin,Magnetic field MRCI
   Miquel Garcia          : C-PCM and meta-GGA Hessian, CC/C-PCM, Gaussian charge scheme
   Yang Guo               : DLPNO-NEVPT2, F12-NEVPT2, CIM, IAO-localization
   Andreas Hansen         : Spin unrestricted coupled pair/coupled cluster methods
   Benjamin Helmich-Paris : MC-RPA, TRAH-SCF, COSX integrals
   Lee Huntington         : MR-EOM, pCC
   Robert Izsak           : Overlap fitted RIJCOSX, COSX-SCS-MP3, EOM
   Marcus Kettner         : VPT2
   Christian Kollmar      : KDIIS, OOCD, Brueckner-CCSD(T), CCSD density, CASPT2, CASPT2-K
   Simone Kossmann        : Meta GGA functionals, TD-DFT gradient, OOMP2, MP2 Hessian
   Martin Krupicka        : Initial AUTO-CI
   Lucas Lang             : DCDCAS
   Marvin Lechner         : AUTO-CI (C++ implementation), FIC-MRCC
   Dagmar Lenk            : GEPOL surface, SMD
   Dimitrios Liakos       : Extrapolation schemes; Compound Job, initial MDCI parallelization
   Dimitrios Manganas     : Further ROCIS development; embedding schemes
   Dimitrios Pantazis     : SARC Basis sets
   Anastasios Papadopoulos: AUTO-CI, single reference methods and gradients
   Taras Petrenko         : DFT Hessian,TD-DFT gradient, ASA, ECA, R-Raman, ABS, FL, XAS/XES, NRVS
   Peter Pinski           : DLPNO-MP2, DLPNO-MP2 Gradient
   Christoph Reimann      : Effective Core Potentials
   Marius Retegan         : Local ZFS, SOC
   Christoph Riplinger    : Optimizer, TS searches, QM/MM, DLPNO-CCSD(T), (RO)-DLPNO pert. Triples
   Tobias Risthaus        : Range-separated hybrids, TD-DFT gradient, RPA, STAB
   Michael Roemelt        : Original ROCIS implementation
   Masaaki Saitow         : Open-shell DLPNO-CCSD energy and density
   Barbara Sandhoefer     : DKH picture change effects
   Avijit Sen             : IP-ROCIS
   Kantharuban Sivalingam : CASSCF convergence, NEVPT2, FIC-MRCI
   Bernardo de Souza      : ESD, SOC TD-DFT
   Georgi Stoychev        : AutoAux, RI-MP2 NMR, DLPNO-MP2 response
   Willem Van den Heuvel  : Paramagnetic NMR
   Boris Wezisla          : Elementary symmetry handling
   Frank Wennmohs         : Technical directorship


 We gratefully acknowledge several colleagues who have allowed us to
 interface, adapt or use parts of their codes:
   Stefan Grimme, W. Hujo, H. Kruse, P. Pracht,  : VdW corrections, initial TS optimization,
                  C. Bannwarth, S. Ehlert          DFT functionals, gCP, sTDA/sTD-DF
   Ed Valeev, F. Pavosevic, A. Kumar             : LibInt (2-el integral package), F12 methods
   Garnet Chan, S. Sharma, J. Yang, R. Olivares  : DMRG
   Ulf Ekstrom                                   : XCFun DFT Library
   Mihaly Kallay                                 : mrcc  (arbitrary order and MRCC methods)
   Jiri Pittner, Ondrej Demel                    : Mk-CCSD
   Frank Weinhold                                : gennbo (NPA and NBO analysis)
   Christopher J. Cramer and Donald G. Truhlar   : smd solvation model
   Lars Goerigk                                  : TD-DFT with DH, B97 family of functionals
   V. Asgeirsson, H. Jonsson                     : NEB implementation
   FAccTs GmbH                                   : IRC, NEB, NEB-TS, DLPNO-Multilevel, CI-OPT
                                                   MM, QMMM, 2- and 3-layer-ONIOM, Crystal-QMMM,
                                                   LR-CPCM, SF, NACMEs, symmetry and pop. for TD-DFT,
                                                   nearIR, NL-DFT gradient (VV10), updates on ESD,
                                                   ML-optimized integration grids
   S Lehtola, MJT Oliveira, MAL Marques          : LibXC Library
   Liviu Ungur et al                             : ANISO software


 Your calculation uses the libint2 library for the computation of 2-el integrals
 For citations please refer to: http://libint.valeyev.net

 Your ORCA version has been built with support for libXC version: 5.1.0
 For citations please refer to: https://tddft.org/programs/libxc/

 This ORCA versions uses:
   CBLAS   interface :  Fast vector & matrix operations
   LAPACKE interface :  Fast linear algebra routines
   SCALAPACK package :  Parallel linear algebra routines
   Shared memory     :  Shared parallel matrices
   BLAS/LAPACK       :  OpenBLAS 0.3.15  USE64BITINT DYNAMIC_ARCH NO_AFFINITY Haswell SINGLE_THREADED
        Core in use  :  Haswell
   Copyright (c) 2011-2014, The OpenBLAS Project




***************************************
The coordinates will be read from file: 1-pentyne.xyz
***************************************


Your calculation utilizes the geometrical counterpoise correction gCP
Please cite in your paper:
H.Kruse, S. Grimme J.Chem.Phys., 136, (2012), 154101 
   

Your calculation utilizes the atom-pairwise dispersion correction
with the Becke-Johnson damping scheme (D3BJ)
Cite in your paper:
S.Grimme, S.Ehrlich, L.Goerigk, J Comput Chem, (2011), 32, 1456–1465 
S.Grimme, J.Antony, S.Ehrlich and H.Krieg, J.Chem.Phys., 132, (2010), 154104 
   

Your calculation employs the composite approach PBEh-3c.
Please cite in your paper:
S. Grimme, J. G. Brandenburg, C. Bannwarth, A. Hansen J.Chem.Phys., 143, (2015), 054107 
   

================================================================================

----- Orbital basis set information -----
Your calculation utilizes the basis: def2-mSVP

----- AuxJ basis set information -----
Your calculation utilizes the auxiliary basis: def2/J
   F. Weigend, Phys. Chem. Chem. Phys. 8, 1057 (2006).

================================================================================
                                        WARNINGS
                       Please study these warnings very carefully!
================================================================================


INFO   : the flag for use of the SHARK integral package has been found!

================================================================================
                                       INPUT FILE
================================================================================
NAME = pbeh-3c.inp
|  1> ! PBEh-3c def2/J TightSCF DefGrid3
|  2> 
|  3> %maxcore 60000
|  4> 
|  5> %pal
|  6> nprocs 4
|  7> end
|  8> 
|  9> *xyzfile 0 1 1-pentyne.xyz
| 10> 
| 11>                          ****END OF INPUT****
================================================================================

                       ****************************
                       * Single Point Calculation *
                       ****************************

---------------------------------
CARTESIAN COORDINATES (ANGSTROEM)
---------------------------------
  C     -1.613251   -0.412589   -1.034021
  H     -1.434209   -1.469877   -1.281926
  H     -1.421297    0.179124   -1.941963
  H     -2.678429   -0.304960   -0.786231
  C     -0.727957    0.045708    0.125526
  H     -0.939154    1.097144    0.373000
  H     -0.953967   -0.537061    1.031629
  C      0.774779   -0.096788   -0.195875
  H      1.008603    0.474846   -1.110966
  H      1.000963   -1.151253   -0.430545
  C      1.647047    0.353279    0.882236
  C      2.354078    0.742289    1.786123
  H      2.982795    1.080138    2.583014

----------------------------
CARTESIAN COORDINATES (A.U.)
----------------------------
  NO LB      ZA    FRAG     MASS         X           Y           Z
   0 C     6.0000    0    12.011   -3.048602   -0.779680   -1.954017
   1 H     1.0000    0     1.008   -2.710262   -2.777664   -2.422489
   2 H     1.0000    0     1.008   -2.685862    0.338495   -3.669779
   3 H     1.0000    0     1.008   -5.061497   -0.576291   -1.485761
   4 C     6.0000    0    12.011   -1.375640    0.086376    0.237210
   5 H     1.0000    0     1.008   -1.774744    2.073302    0.704867
   6 H     1.0000    0     1.008   -1.802737   -1.014899    1.949495
   7 C     6.0000    0    12.011    1.464119   -0.182902   -0.370150
   8 H     1.0000    0     1.008    1.905983    0.897328   -2.099421
   9 H     1.0000    0     1.008    1.891547   -2.175553   -0.813612
  10 C     6.0000    0    12.011    3.112467    0.667600    1.667184
  11 C     6.0000    0    12.011    4.448563    1.402723    3.375283
  12 H     1.0000    0     1.008    5.636665    2.041165    4.881190

--------------------------------
INTERNAL COORDINATES (ANGSTROEM)
--------------------------------
 C      0   0   0     0.000000000000     0.00000000     0.00000000
 H      1   0   0     1.100622559254     0.00000000     0.00000000
 H      1   2   0     1.100604064738   107.59421623     0.00000000
 H      1   2   3     1.098903128332   107.61119707   115.69099964
 C      1   2   3     1.529160122765   111.37830038   237.75139159
 H      5   1   2     1.100620374301   110.22578901   181.33921095
 H      5   1   2     1.100783022410   110.28234795   298.45133878
 C      5   1   2     1.543314032883   112.21791440    59.93785966
 H      8   5   1     1.104006027085   109.33178637    56.98932051
 H      8   5   1     1.103687609105   109.39264318   301.36285330
 C      8   5   1     1.457989693133   113.58083210   179.02963157
 C     11   8   5     1.211707301914   178.83548491   334.36547763
 H     12  11   8     1.069795622348   179.61073564   165.31690558

---------------------------
INTERNAL COORDINATES (A.U.)
---------------------------
 C      0   0   0     0.000000000000     0.00000000     0.00000000
 H      1   0   0     2.079875213805     0.00000000     0.00000000
 H      1   2   0     2.079840264235   107.59421623     0.00000000
 H      1   2   3     2.076625960256   107.61119707   115.69099964
 C      1   2   3     2.889693846940   111.37830038   237.75139159
 H      5   1   2     2.079871084842   110.22578901   181.33921095
 H      5   1   2     2.080178445226   110.28234795   298.45133878
 C      5   1   2     2.916440860786   112.21791440    59.93785966
 H      8   5   1     2.086269041388   109.33178637    56.98932051
 H      8   5   1     2.085667318610   109.39264318   301.36285330
 C      8   5   1     2.755201226102   113.58083210   179.02963157
 C     11   8   5     2.289794955090   178.83548491   334.36547763
 H     12  11   8     2.021620745505   179.61073564   165.31690558

---------------------
BASIS SET INFORMATION
---------------------
There are 2 groups of distinct atoms

 Group   1 Type C   : 8s4p1d contracted to 4s2p1d pattern {5111/31/1}
 Group   2 Type H   : 4s contracted to 2s pattern {31}

Atom   0C    basis set group =>   1
Atom   1H    basis set group =>   2
Atom   2H    basis set group =>   2
Atom   3H    basis set group =>   2
Atom   4C    basis set group =>   1
Atom   5H    basis set group =>   2
Atom   6H    basis set group =>   2
Atom   7C    basis set group =>   1
Atom   8H    basis set group =>   2
Atom   9H    basis set group =>   2
Atom  10C    basis set group =>   1
Atom  11C    basis set group =>   1
Atom  12H    basis set group =>   2
---------------------------------
AUXILIARY/J BASIS SET INFORMATION
---------------------------------
There are 2 groups of distinct atoms

 Group   1 Type C   : 12s5p4d2f1g contracted to 6s4p3d1f1g pattern {711111/2111/211/2/1}
 Group   2 Type H   : 5s2p1d contracted to 3s1p1d pattern {311/2/1}

Atom   0C    basis set group =>   1
Atom   1H    basis set group =>   2
Atom   2H    basis set group =>   2
Atom   3H    basis set group =>   2
Atom   4C    basis set group =>   1
Atom   5H    basis set group =>   2
Atom   6H    basis set group =>   2
Atom   7C    basis set group =>   1
Atom   8H    basis set group =>   2
Atom   9H    basis set group =>   2
Atom  10C    basis set group =>   1
Atom  11C    basis set group =>   1
Atom  12H    basis set group =>   2


           ************************************************************
           *        Program running with 4 parallel MPI-processes     *
           *              working on a common directory               *
           ************************************************************
------------------------------------------------------------------------------
                           ORCA GTO INTEGRAL CALCULATION
                           -- RI-GTO INTEGRALS CHOSEN --
------------------------------------------------------------------------------
------------------------------------------------------------------------------
                   ___                                                        
                  /   \      - P O W E R E D   B Y -                         
                 /     \                                                     
                 |  |  |   _    _      __       _____    __    __             
                 |  |  |  | |  | |    /  \     |  _  \  |  |  /  |          
                  \  \/   | |  | |   /    \    | | | |  |  | /  /          
                 / \  \   | |__| |  /  /\  \   | |_| |  |  |/  /          
                |  |  |   |  __  | /  /__\  \  |    /   |      \           
                |  |  |   | |  | | |   __   |  |    \   |  |\   \          
                \     /   | |  | | |  |  |  |  | |\  \  |  | \   \       
                 \___/    |_|  |_| |__|  |__|  |_| \__\ |__|  \__/        
                                                                              
                      - O R C A' S   B I G   F R I E N D -                    
                                      &                                       
                       - I N T E G R A L  F E E D E R -                       
                                                                              
 v1 FN, 2020, v2 2021                                                         
------------------------------------------------------------------------------


Reading SHARK input file pbeh-3c.SHARKINP.tmp ... ok
----------------------
SHARK INTEGRAL PACKAGE
----------------------

Number of atoms                             ...     13
Number of basis functions                   ...     91
Number of shells                            ...     51
Maximum angular momentum                    ...      2
Integral batch strategy                     ... SHARK/LIBINT Hybrid
RI-J (if used) integral strategy            ... SPLIT-RIJ (Revised 2003 algorithm where possible)
Printlevel                                  ...      1
Contraction scheme used                     ... SEGMENTED contraction
Coulomb Range Separation                    ... NOT USED
Exchange Range Separation                   ... NOT USED
Finite Nucleus Model                        ... NOT USED
Auxiliary Coulomb fitting basis             ... AVAILABLE
   # of basis functions in Aux-J            ...    333
   # of shells in Aux-J                     ...    115
   Maximum angular momentum in Aux-J        ...      4
Auxiliary J/K fitting basis                 ... NOT available
Auxiliary Correlation fitting basis         ... NOT available
Auxiliary 'external' fitting basis          ... NOT available
Integral threshold                          ...     2.500000e-11
Primitive cut-off                           ...     2.500000e-12
Primitive pair pre-selection threshold      ...     2.500000e-12

Calculating pre-screening integrals         ... done (  0.0 sec) Dimension = 51
Organizing shell pair data                  ... done (  0.1 sec)
Shell pair information
Total number of shell pairs                 ...      1326
Shell pairs after pre-screening             ...      1237
Total number of primitive shell pairs       ...      4842
Primitive shell pairs kept                  ...      3389
          la=0 lb=0:    604 shell pairs
          la=1 lb=0:    350 shell pairs
          la=1 lb=1:     55 shell pairs
          la=2 lb=0:    164 shell pairs
          la=2 lb=1:     50 shell pairs
          la=2 lb=2:     14 shell pairs

Calculating one electron integrals          ... done (  0.0 sec)
Calculating RI/J V-Matrix + Cholesky decomp.... done (  0.2 sec)
Calculating Nuclear repulsion               ... done (  0.0 sec) ENN=    153.261853568173 Eh

SHARK setup successfully completed in   0.8 seconds

Maximum memory used throughout the entire GTOINT-calculation: 10.0 MB


           ************************************************************
           *        Program running with 4 parallel MPI-processes     *
           *              working on a common directory               *
           ************************************************************
-------------------------------------------------------------------------------
                                 ORCA SCF
-------------------------------------------------------------------------------

------------
SCF SETTINGS
------------
Hamiltonian:
 Density Functional     Method          .... DFT(GTOs)
 Exchange Functional    Exchange        .... PBE
   PBE kappa parameter   XKappa         ....  1.024500
   PBE mue parameter    XMuePBE         ....  0.123457
 Correlation Functional Correlation     .... PBE
   PBE beta parameter  CBetaPBE         ....  0.030000
 LDA part of GGA corr.  LDAOpt          .... PW91-LDA
 Gradients option       PostSCFGGA      .... off
 Hybrid DFT is turned on
   Fraction HF Exchange ScalHFX         ....  0.420000
   Scaling of DF-GGA-X  ScalDFX         ....  0.580000
   Scaling of DF-GGA-C  ScalDFC         ....  1.000000
   Scaling of DF-LDA-C  ScalLDAC        ....  1.000000
   Perturbative correction              ....  0.000000
   Density functional embedding theory  .... OFF
 RI-approximation to the Coulomb term is turned on
   Number of AuxJ basis functions       .... 333
   RIJ-ON(X) (HFX calculated with O(N)) .... on
   Number of AuxJ basis functions       .... 333
   RIJ-COSX (HFX calculated with COS-X)).... on


General Settings:
 Integral files         IntName         .... pbeh-3c
 Hartree-Fock type      HFTyp           .... RHF
 Total Charge           Charge          ....    0
 Multiplicity           Mult            ....    1
 Number of Electrons    NEL             ....   38
 Basis Dimension        Dim             ....   91
 Nuclear Repulsion      ENuc            ....    153.2618535682 Eh

Convergence Acceleration:
 DIIS                   CNVDIIS         .... on
   Start iteration      DIISMaxIt       ....    12
   Startup error        DIISStart       ....  0.200000
   # of expansion vecs  DIISMaxEq       ....     5
   Bias factor          DIISBfac        ....   1.050
   Max. coefficient     DIISMaxC        ....  10.000
 Trust-Rad. Augm. Hess. CNVTRAH         .... auto
   Auto Start mean grad. ratio tolernc. ....  1.125000
   Auto Start start iteration           ....    20
   Auto Start num. interpolation iter.  ....    10
   Max. Number of Micro iterations      ....    16
   Max. Number of Macro iterations      .... Maxiter - #DIIS iter
   Number of Davidson start vectors     ....     2
   Converg. threshold I  (grad. norm)   ....   1.000e-05
   Converg. threshold II (energy diff.) ....   1.000e-08
   Grad. Scal. Fac. for Micro threshold ....   0.100
   Minimum threshold for Micro iter.    ....   0.010
   NR start threshold (gradient norm)   ....   0.001
   Initial trust radius                 ....   0.400
   Minimum AH scaling param. (alpha)    ....   1.000
   Maximum AH scaling param. (alpha)    .... 1000.000
   Orbital update algorithm             .... Taylor
   White noise on init. David. guess    .... on
   Maximum white noise                  ....   0.010
   Quad. conv. algorithm                .... NR
   COSX micro iterations for RIJONX calc.... off
 SOSCF                  CNVSOSCF        .... on
   Start iteration      SOSCFMaxIt      ....   150
   Startup grad/error   SOSCFStart      ....  0.003300
 Level Shifting         CNVShift        .... on
   Level shift para.    LevelShift      ....    0.2500
   Turn off err/grad.   ShiftErr        ....    0.0010
 Zerner damping         CNVZerner       .... off
 Static damping         CNVDamp         .... on
   Fraction old density DampFac         ....    0.7000
   Max. Damping (<1)    DampMax         ....    0.9800
   Min. Damping (>=0)   DampMin         ....    0.0000
   Turn off err/grad.   DampErr         ....    0.1000
 Fernandez-Rico         CNVRico         .... off

SCF Procedure:
 Maximum # iterations   MaxIter         ....   125
 SCF integral mode      SCFMode         .... Direct
   Integral package                     .... SHARK and LIBINT hybrid scheme
 Reset frequency        DirectResetFreq ....    20
 Integral Threshold     Thresh          ....  2.500e-11 Eh
 Primitive CutOff       TCut            ....  2.500e-12 Eh

Convergence Tolerance:
 Convergence Check Mode ConvCheckMode   .... Total+1el-Energy
 Convergence forced     ConvForced      .... 0
 Energy Change          TolE            ....  1.000e-08 Eh
 1-El. energy change                    ....  1.000e-05 Eh
 Orbital Gradient       TolG            ....  1.000e-05
 Orbital Rotation angle TolX            ....  1.000e-05
 DIIS Error             TolErr          ....  5.000e-07


Diagonalization of the overlap matrix:
Smallest eigenvalue                        ... 7.061e-04
Time for diagonalization                   ...    0.002 sec
Threshold for overlap eigenvalues          ... 1.000e-08
Number of eigenvalues below threshold      ... 0
Time for construction of square roots      ...    0.167 sec
Total time needed                          ...    0.169 sec

--------------------------------
INITIAL GUESS: MINIMAL BASIS EHT
--------------------------------
The minimal basis has 33 functions
EHT matrix was diagonalized
Basis set overlap was calculated now projecting the orbitals
Using GuessMode=FMatrix for the initial guess
C*T matrix was formed
Effective Fockian was calculated
Effective Fockian was diagonalized
Initial density was built
                      ------------------
                      INITIAL GUESS DONE
                      ------------------
-------------------
DFT GRID GENERATION
-------------------

General Integration Accuracy     IntAcc      ... 4.959
Radial Grid Type                 RadialGrid  ... OptM3 with GC (2021)
Angular Grid (max. ang.)         AngularGrid ... 6 (Lebedev-590)
Angular grid pruning method      GridPruning ... 4 (adaptive)
Weight generation scheme         WeightScheme... Becke
Basis function cutoff            BFCut       ... 1.0000e-11
Integration weight cutoff        WCut        ... 1.0000e-14
Angular grids for H and He will be reduced by one unit
Partially contracted basis set               ... off
Rotationally invariant grid construction     ... off

Total number of grid points                  ...   142122
Total number of batches                      ...     2226
Average number of points per batch           ...       63
Average number of grid points per atom       ...    10932
Time for grid setup =    2.188 sec

--------------------
COSX GRID GENERATION
--------------------

GRIDX 1
-------
General Integration Accuracy     IntAcc      ... 4.020
Radial Grid Type                 RadialGrid  ... OptM3 with GC (2021)
Angular Grid (max. ang.)         AngularGrid ... 2 (Lebedev-110)
Angular grid pruning method      GridPruning ... 4 (adaptive)
Weight generation scheme         WeightScheme... Becke
Basis function cutoff            BFCut       ... 1.0000e-11
Integration weight cutoff        WCut        ... 1.0000e-14
Angular grids for H and He will be reduced by one unit
Partially contracted basis set               ... on
Rotationally invariant grid construction     ... off

Total number of grid points                  ...    15294
Total number of batches                      ...      246
Average number of points per batch           ...       62
Average number of grid points per atom       ...     1176
UseSFitting                                  ... on

GRIDX 2
-------
General Integration Accuracy     IntAcc      ... 4.338
Radial Grid Type                 RadialGrid  ... OptM3 with GC (2021)
Angular Grid (max. ang.)         AngularGrid ... 3 (Lebedev-194)
Angular grid pruning method      GridPruning ... 4 (adaptive)
Weight generation scheme         WeightScheme... Becke
Basis function cutoff            BFCut       ... 1.0000e-11
Integration weight cutoff        WCut        ... 1.0000e-14
Angular grids for H and He will be reduced by one unit
Partially contracted basis set               ... on
Rotationally invariant grid construction     ... off

Total number of grid points                  ...    33521
Total number of batches                      ...      532
Average number of points per batch           ...       63
Average number of grid points per atom       ...     2579
UseSFitting                                  ... on

GRIDX 3
-------
General Integration Accuracy     IntAcc      ... 4.871
Radial Grid Type                 RadialGrid  ... OptM3 with GC (2021)
Angular Grid (max. ang.)         AngularGrid ... 4 (Lebedev-302)
Angular grid pruning method      GridPruning ... 4 (adaptive)
Weight generation scheme         WeightScheme... Becke
Basis function cutoff            BFCut       ... 1.0000e-11
Integration weight cutoff        WCut        ... 1.0000e-14
Angular grids for H and He will be reduced by one unit
Partially contracted basis set               ... on
Rotationally invariant grid construction     ... off

Total number of grid points                  ...    66061
Total number of batches                      ...     1040
Average number of points per batch           ...       63
Average number of grid points per atom       ...     5082
UseSFitting                                  ... on

Time for X-Grid setup             =    2.962 sec

--------------
SCF ITERATIONS
--------------
ITER       Energy         Delta-E        Max-DP      RMS-DP      [F,P]     Damp
               ***  Starting incremental Fock matrix formation  ***
  0   -194.3038921659   0.000000000000 0.08971970  0.00414418  0.4655421 0.7000
  1   -194.4629530450  -0.159060879111 0.06776721  0.00298130  0.3299623 0.7000
  2   -194.5756091503  -0.112656105307 0.04566149  0.00210894  0.2318608 0.7000
                               ***Turning on DIIS***
  3   -194.6556756183  -0.080066467996 0.03297710  0.00150665  0.1631413 0.7000
  4   -194.7125681695  -0.056892551221 0.02457825  0.00114059  0.1146467 0.7000
  5   -194.7528742512  -0.040306081706 0.05835883  0.00279964  0.0804096 0.0000
                      *** Initiating the SOSCF procedure ***
                           *** Shutting down DIIS ***
                      *** Re-Reading the Fockian *** 
                      *** Removing any level shift *** 
ITER      Energy       Delta-E        Grad      Rot      Max-DP    RMS-DP
  6   -194.84883640  -0.0959621465  0.001538  0.001538  0.002095  0.000123
               *** Restarting incremental Fock matrix formation ***
  7   -194.84888072  -0.0000443237  0.000530  0.000634  0.001091  0.000073
  8   -194.84888682  -0.0000060949  0.000114  0.000234  0.000478  0.000028
  9   -194.84888692  -0.0000001070  0.000142  0.000175  0.000259  0.000011
 10   -194.84888722  -0.0000002990  0.000052  0.000092  0.000114  0.000005
 11   -194.84888721   0.0000000078  0.000044  0.000046  0.000054  0.000003
                  ***Gradient check signals convergence***
              ***Rediagonalizing the Fockian in SOSCF/NRSCF***

               *****************************************************
               *                     SUCCESS                       *
               *           SCF CONVERGED AFTER  12 CYCLES          *
               *****************************************************

Old exchange energy                            =    -12.033060637 Eh
New exchange energy                            =    -12.033057711 Eh
Exchange energy change after final integration =      0.000002925 Eh
Total energy after final integration           =   -194.848884321 Eh
Final COS-X integration done in                =     3.089 sec

----------------
TOTAL SCF ENERGY
----------------

Total Energy       :         -194.84888432 Eh           -5302.10770 eV

Components:
Nuclear Repulsion  :          153.26185357 Eh            4170.46706 eV
Electronic Energy  :         -348.11073789 Eh           -9472.57475 eV
One Electron Energy:         -564.12908949 Eh          -15350.73294 eV
Two Electron Energy:          216.01835161 Eh            5878.15819 eV
Max COSX asymmetry :            0.00000059 Eh               0.00002 eV

Virial components:
Potential Energy   :         -387.89453692 Eh          -10555.14696 eV
Kinetic Energy     :          193.04565259 Eh            5253.03927 eV
Virial Ratio       :            2.00934096


DFT components:
N(Alpha)           :       18.999999699138 electrons
N(Beta)            :       18.999999699138 electrons
N(Total)           :       37.999999398277 electrons
E(X)               :      -15.955722103106 Eh       
E(C)               :       -1.596956184622 Eh       
E(XC)              :      -17.552678287728 Eh       
DFET-embed. en.    :        0.000000000000 Eh       

---------------
SCF CONVERGENCE
---------------

  Last Energy change         ...   -3.2011e-08  Tolerance :   1.0000e-08
  Last MAX-Density change    ...    1.8874e-15  Tolerance :   1.0000e-07
  Last RMS-Density change    ...    4.8390e-17  Tolerance :   5.0000e-09
  Last Orbital Gradient      ...    9.0282e-07  Tolerance :   1.0000e-05
  Last Orbital Rotation      ...    1.2615e-06  Tolerance :   1.0000e-05

             **** THE GBW FILE WAS UPDATED (pbeh-3c.gbw) ****
             **** DENSITY pbeh-3c.scfp WAS UPDATED ****
             **** ENERGY FILE WAS UPDATED (pbeh-3c.en.tmp) ****
             **** THE GBW FILE WAS UPDATED (pbeh-3c.gbw) ****
             **** DENSITY pbeh-3c.scfp WAS UPDATED ****
----------------
ORBITAL ENERGIES
----------------

  NO   OCC          E(Eh)            E(eV) 
   0   2.0000     -10.464650      -284.7576 
   1   2.0000     -10.449296      -284.3398 
   2   2.0000     -10.446662      -284.2681 
   3   2.0000     -10.437115      -284.0083 
   4   2.0000     -10.433973      -283.9229 
   5   2.0000      -0.901366       -24.5274 
   6   2.0000      -0.833554       -22.6822 
   7   2.0000      -0.771697       -20.9990 
   8   2.0000      -0.675389       -18.3783 
   9   2.0000      -0.591960       -16.1081 
  10   2.0000      -0.533892       -14.5279 
  11   2.0000      -0.528196       -14.3729 
  12   2.0000      -0.477544       -12.9946 
  13   2.0000      -0.457951       -12.4615 
  14   2.0000      -0.421989       -11.4829 
  15   2.0000      -0.404019       -10.9939 
  16   2.0000      -0.390009       -10.6127 
  17   2.0000      -0.310590        -8.4516 
  18   2.0000      -0.310300        -8.4437 
  19   0.0000       0.079120         2.1530 
  20   0.0000       0.083795         2.2802 
  21   0.0000       0.140104         3.8124 
  22   0.0000       0.180327         4.9069 
  23   0.0000       0.182509         4.9663 
  24   0.0000       0.190361         5.1800 
  25   0.0000       0.198389         5.3985 
  26   0.0000       0.211741         5.7618 
  27   0.0000       0.222897         6.0653 
  28   0.0000       0.255606         6.9554 
  29   0.0000       0.259508         7.0616 
  30   0.0000       0.276964         7.5366 
  31   0.0000       0.307636         8.3712 
  32   0.0000       0.419979        11.4282 
  33   0.0000       0.479159        13.0386 
  34   0.0000       0.493112        13.4183 
  35   0.0000       0.518658        14.1134 
  36   0.0000       0.522095        14.2069 
  37   0.0000       0.533400        14.5146 
  38   0.0000       0.582421        15.8485 
  39   0.0000       0.609621        16.5886 
  40   0.0000       0.622926        16.9507 
  41   0.0000       0.659502        17.9460 
  42   0.0000       0.697664        18.9844 
  43   0.0000       0.705356        19.1937 
  44   0.0000       0.722060        19.6482 
  45   0.0000       0.821293        22.3485 
  46   0.0000       0.830092        22.5880 
  47   0.0000       0.897407        24.4197 
  48   0.0000       0.945883        25.7388 
  49   0.0000       0.968729        26.3604 
  50   0.0000       1.022030        27.8108 
  51   0.0000       1.022546        27.8249 
  52   0.0000       1.026205        27.9245 
  53   0.0000       1.054994        28.7079 
  54   0.0000       1.058784        28.8110 
  55   0.0000       1.071009        29.1436 
  56   0.0000       1.224022        33.3073 
  57   0.0000       1.251967        34.0677 
  58   0.0000       1.419907        38.6376 
  59   0.0000       1.426007        38.8036 
  60   0.0000       1.465340        39.8739 
  61   0.0000       1.518532        41.3214 
  62   0.0000       1.598590        43.4998 
  63   0.0000       1.606379        43.7118 
  64   0.0000       1.635017        44.4911 
  65   0.0000       1.678042        45.6619 
  66   0.0000       1.790206        48.7140 
  67   0.0000       1.862772        50.6886 
  68   0.0000       1.938253        52.7425 
  69   0.0000       1.952004        53.1167 
  70   0.0000       1.990751        54.1711 
  71   0.0000       1.991149        54.1819 
  72   0.0000       2.054869        55.9158 
  73   0.0000       2.076091        56.4933 
  74   0.0000       2.105190        57.2851 
  75   0.0000       2.239582        60.9421 
  76   0.0000       2.287930        62.2577 
  77   0.0000       2.384883        64.8960 
  78   0.0000       2.402289        65.3696 
  79   0.0000       2.447749        66.6066 
  80   0.0000       2.580709        70.2247 
  81   0.0000       2.623864        71.3990 
  82   0.0000       2.785577        75.7994 
  83   0.0000       2.838424        77.2374 
  84   0.0000       2.905110        79.0520 
  85   0.0000       3.555498        96.7500 
  86   0.0000      13.330511       362.7417 
  87   0.0000      13.692294       372.5863 
  88   0.0000      13.904795       378.3687 
  89   0.0000      14.046364       382.2210 
  90   0.0000      14.575598       396.6222 

                    ********************************
                    * MULLIKEN POPULATION ANALYSIS *
                    ********************************

-----------------------
MULLIKEN ATOMIC CHARGES
-----------------------
   0 C :   -0.644525
   1 H :    0.211370
   2 H :    0.211468
   3 H :    0.227022
   4 C :   -0.413838
   5 H :    0.225424
   6 H :    0.224984
   7 C :   -0.560586
   8 H :    0.241399
   9 H :    0.241564
  10 C :    0.320167
  11 C :   -0.507458
  12 H :    0.223009
Sum of atomic charges:   -0.0000000

--------------------------------
MULLIKEN REDUCED ORBITAL CHARGES
--------------------------------
  0 C s       :     3.383734  s :     3.383734
      pz      :     1.029955  p :     3.224233
      px      :     1.087685
      py      :     1.106593
      dz2     :     0.008255  d :     0.036558
      dxz     :     0.005598
      dyz     :     0.008509
      dx2y2   :     0.012190
      dxy     :     0.002006
  1 H s       :     0.788630  s :     0.788630
  2 H s       :     0.788532  s :     0.788532
  3 H s       :     0.772978  s :     0.772978
  4 C s       :     3.330300  s :     3.330300
      pz      :     1.030684  p :     3.040384
      px      :     0.885836
      py      :     1.123864
      dz2     :     0.008854  d :     0.043154
      dxz     :     0.007943
      dyz     :     0.008957
      dx2y2   :     0.012490
      dxy     :     0.004912
  5 H s       :     0.774576  s :     0.774576
  6 H s       :     0.775016  s :     0.775016
  7 C s       :     3.403558  s :     3.403558
      pz      :     1.034380  p :     3.111268
      px      :     0.939802
      py      :     1.137086
      dz2     :     0.008809  d :     0.045759
      dxz     :     0.010375
      dyz     :     0.008655
      dx2y2   :     0.011354
      dxy     :     0.006567
  8 H s       :     0.758601  s :     0.758601
  9 H s       :     0.758436  s :     0.758436
 10 C s       :     3.149320  s :     3.149320
      pz      :     0.741767  p :     2.496777
      px      :     0.841480
      py      :     0.913531
      dz2     :     0.010263  d :     0.033735
      dxz     :     0.006577
      dyz     :     0.007066
      dx2y2   :     0.005483
      dxy     :     0.004346
 11 C s       :     3.466927  s :     3.466927
      pz      :     0.988942  p :     3.015273
      px      :     1.000079
      py      :     1.026252
      dz2     :     0.006353  d :     0.025258
      dxz     :     0.007599
      dyz     :     0.004905
      dx2y2   :     0.003134
      dxy     :     0.003267
 12 H s       :     0.776991  s :     0.776991


                     *******************************
                     * LOEWDIN POPULATION ANALYSIS *
                     *******************************

----------------------
LOEWDIN ATOMIC CHARGES
----------------------
   0 C :   -0.363472
   1 H :    0.124958
   2 H :    0.124991
   3 H :    0.131492
   4 C :   -0.235760
   5 H :    0.129931
   6 H :    0.129737
   7 C :   -0.242965
   8 H :    0.146846
   9 H :    0.146697
  10 C :   -0.039219
  11 C :   -0.215431
  12 H :    0.162193

-------------------------------
LOEWDIN REDUCED ORBITAL CHARGES
-------------------------------
  0 C s       :     2.958308  s :     2.958308
      pz      :     1.100323  p :     3.337261
      px      :     1.110340
      py      :     1.126598
      dz2     :     0.015612  d :     0.067903
      dxz     :     0.011812
      dyz     :     0.015602
      dx2y2   :     0.021109
      dxy     :     0.003769
  1 H s       :     0.875042  s :     0.875042
  2 H s       :     0.875009  s :     0.875009
  3 H s       :     0.868508  s :     0.868508
  4 C s       :     2.918943  s :     2.918943
      pz      :     1.091684  p :     3.229785
      px      :     1.020794
      py      :     1.117307
      dz2     :     0.017551  d :     0.087032
      dxz     :     0.018119
      dyz     :     0.016095
      dx2y2   :     0.025095
      dxy     :     0.010172
  5 H s       :     0.870069  s :     0.870069
  6 H s       :     0.870263  s :     0.870263
  7 C s       :     2.902060  s :     2.902060
      pz      :     1.081111  p :     3.247934
      px      :     1.055009
      py      :     1.111814
      dz2     :     0.018183  d :     0.092971
      dxz     :     0.022440
      dyz     :     0.016210
      dx2y2   :     0.023681
      dxy     :     0.012458
  8 H s       :     0.853154  s :     0.853154
  9 H s       :     0.853303  s :     0.853303
 10 C s       :     2.914915  s :     2.914915
      pz      :     1.056972  p :     3.048787
      px      :     1.015906
      py      :     0.975908
      dz2     :     0.021933  d :     0.075517
      dxz     :     0.016688
      dyz     :     0.015403
      dx2y2   :     0.011699
      dxy     :     0.009793
 11 C s       :     2.988027  s :     2.988027
      pz      :     1.083275  p :     3.180012
      px      :     1.057912
      py      :     1.038825
      dz2     :     0.012011  d :     0.047392
      dxz     :     0.014024
      dyz     :     0.009227
      dx2y2   :     0.005961
      dxy     :     0.006170
 12 H s       :     0.837807  s :     0.837807


                      *****************************
                      * MAYER POPULATION ANALYSIS *
                      *****************************

  NA   - Mulliken gross atomic population
  ZA   - Total nuclear charge
  QA   - Mulliken gross atomic charge
  VA   - Mayer's total valence
  BVA  - Mayer's bonded valence
  FA   - Mayer's free valence

  ATOM       NA         ZA         QA         VA         BVA        FA
  0 C      6.6445     6.0000    -0.6445     3.7312     3.7312    -0.0000
  1 H      0.7886     1.0000     0.2114     0.9144     0.9144     0.0000
  2 H      0.7885     1.0000     0.2115     0.9144     0.9144    -0.0000
  3 H      0.7730     1.0000     0.2270     0.9126     0.9126    -0.0000
  4 C      6.4138     6.0000    -0.4138     3.7284     3.7284     0.0000
  5 H      0.7746     1.0000     0.2254     0.9032     0.9032     0.0000
  6 H      0.7750     1.0000     0.2250     0.9034     0.9034     0.0000
  7 C      6.5606     6.0000    -0.5606     3.6572     3.6572    -0.0000
  8 H      0.7586     1.0000     0.2414     0.8961     0.8961     0.0000
  9 H      0.7584     1.0000     0.2416     0.8960     0.8960    -0.0000
 10 C      5.6798     6.0000     0.3202     3.5698     3.5698     0.0000
 11 C      6.5075     6.0000    -0.5075     3.6585     3.6585     0.0000
 12 H      0.7770     1.0000     0.2230     0.9377     0.9377     0.0000

  Mayer bond orders larger than 0.100000
B(  0-C ,  1-H ) :   0.9279 B(  0-C ,  2-H ) :   0.9278 B(  0-C ,  3-H ) :   0.9295 
B(  0-C ,  4-C ) :   0.9884 B(  4-C ,  5-H ) :   0.9165 B(  4-C ,  6-H ) :   0.9166 
B(  4-C ,  7-C ) :   0.9658 B(  7-C ,  8-H ) :   0.9014 B(  7-C ,  9-H ) :   0.9015 
B(  7-C , 10-C ) :   0.9714 B( 10-C , 11-C ) :   2.6752 B( 11-C , 12-H ) :   0.9501 


-------
TIMINGS
-------

Total SCF time: 0 days 0 hours 1 min 3 sec 

Total time                  ....      63.750 sec
Sum of individual times     ....      59.164 sec  ( 92.8%)

Fock matrix formation       ....      49.300 sec  ( 77.3%)
  Split-RI-J                ....       6.165 sec  ( 12.5% of F)
  Chain of spheres X        ....      15.694 sec  ( 31.8% of F)
  XC integration            ....      13.465 sec  ( 27.3% of F)
    Basis function eval.    ....       1.839 sec  ( 13.7% of XC)
    Density eval.           ....       1.210 sec  (  9.0% of XC)
    XC-Functional eval.     ....       1.134 sec  (  8.4% of XC)
    XC-Potential eval.      ....       0.634 sec  (  4.7% of XC)
Diagonalization             ....       0.633 sec  (  1.0%)
Density matrix formation    ....       0.047 sec  (  0.1%)
Population analysis         ....       1.004 sec  (  1.6%)
Initial guess               ....       0.007 sec  (  0.0%)
Orbital Transformation      ....       0.000 sec  (  0.0%)
Orbital Orthonormalization  ....       0.000 sec  (  0.0%)
DIIS solution               ....       1.877 sec  (  2.9%)
SOSCF solution              ....       1.147 sec  (  1.8%)
Grid generation             ....       5.150 sec  (  8.1%)

Maximum memory used throughout the entire SCF-calculation: 50.2 MB


-------------------------------------------------------------------------------
                          DFT DISPERSION CORRECTION                            
                                                                               
                              DFTD3 V3.1  Rev 1                                
                          USING Becke-Johnson damping                          
-------------------------------------------------------------------------------
The PBEh-3c composite method is recognized
Using three-body term ABC
Active option DFTDOPT                   ...         4   

molecular C6(AA) [au] = 1420.056708 


            DFT-D V3
 parameters
 s6 scaling factor         :     1.0000 
 a1 scaling factor         :     0.4860 
 s8 scaling factor         :     0.0000 
 a2 scaling factor         :     4.5000 
 Damping factor alpha9(ATM):    16.0000 
 ad hoc parameters k1-k3   :    16.0000     1.3333    -4.0000 

 Edisp/kcal,au: -3.130439462916  -0.004988672296 
 E6   /kcal   :  -3.131955442 
 E8   /kcal   :  -0.000000000 
 E6(ABC)      :   0.001515980 
 % E8         :   0.000000000 
 % E6(ABC)    :  -0.048427053 

-------------------------   ----------------
Dispersion correction           -0.004988672
-------------------------   ----------------

------------------   -----------------
gCP correction             0.014800941
------------------   -----------------

-------------------------   --------------------
FINAL SINGLE POINT ENERGY      -194.839072052097
-------------------------   --------------------


                            ***************************************
                            *     ORCA property calculations      *
                            ***************************************

                                    ---------------------
                                    Active property flags
                                    ---------------------
   (+) Dipole Moment


------------------------------------------------------------------------------
                       ORCA ELECTRIC PROPERTIES CALCULATION
------------------------------------------------------------------------------

Dipole Moment Calculation                       ... on
Quadrupole Moment Calculation                   ... off
Polarizability Calculation                      ... off
GBWName                                         ... pbeh-3c.gbw
Electron density                                ... pbeh-3c.scfp
The origin for moment calculation is the CENTER OF MASS  = ( 0.743167,  0.192881  0.477392)

-------------
DIPOLE MOMENT
-------------
                                X             Y             Z
Electronic contribution:      4.97986       1.28189       3.17362
Nuclear contribution   :     -5.23580      -1.35890      -3.36335
                        -----------------------------------------
Total Dipole Moment    :     -0.25595      -0.07701      -0.18974
                        -----------------------------------------
Magnitude (a.u.)       :      0.32778
Magnitude (Debye)      :      0.83314



--------------------
Rotational spectrum 
--------------------
 
Rotational constants in cm-1:     0.785759     0.073529     0.069871 
Rotational constants in MHz : 23556.466932  2204.340770  2094.692476 

 Dipole components along the rotational axes: 
x,y,z [a.u.] :     0.326946     0.023313     0.000871 
x,y,z [Debye]:     0.831031     0.059256     0.002214 

 

Timings for individual modules:

Sum of individual times         ...       66.274 sec (=   1.105 min)
GTO integral calculation        ...        1.605 sec (=   0.027 min)   2.4 %
SCF iterations                  ...       64.669 sec (=   1.078 min)  97.6 %
                             ****ORCA TERMINATED NORMALLY****
TOTAL RUN TIME: 0 days 0 hours 1 minutes 10 seconds 738 msec
