
                                 *****************
                                 * O   R   C   A *
                                 *****************

                                            #,                                       
                                            ###                                      
                                            ####                                     
                                            #####                                    
                                            ######                                   
                                           ########,                                 
                                     ,,################,,,,,                         
                               ,,#################################,,                 
                          ,,##########################################,,             
                       ,#########################################, ''#####,          
                    ,#############################################,,   '####,        
                  ,##################################################,,,,####,       
                ,###########''''           ''''###############################       
              ,#####''   ,,,,##########,,,,          '''####'''          '####       
            ,##' ,,,,###########################,,,                        '##       
           ' ,,###''''                  '''############,,,                           
         ,,##''                                '''############,,,,        ,,,,,,###''
      ,#''                                            '''#######################'''  
     '                                                          ''''####''''         
             ,#######,   #######,   ,#######,      ##                                
            ,#'     '#,  ##    ##  ,#'     '#,    #''#        ######   ,####,        
            ##       ##  ##   ,#'  ##            #'  '#       #        #'  '#        
            ##       ##  #######   ##           ,######,      #####,   #    #        
            '#,     ,#'  ##    ##  '#,     ,#' ,#      #,         ##   #,  ,#        
             '#######'   ##     ##  '#######'  #'      '#     #####' # '####'        



                  #######################################################
                  #                        -***-                        #
                  #          Department of theory and spectroscopy      #
                  #    Directorship and core code : Frank Neese         #
                  #        Max Planck Institute fuer Kohlenforschung    #
                  #                Kaiser Wilhelm Platz 1               #
                  #                 D-45470 Muelheim/Ruhr               #
                  #                      Germany                        #
                  #                                                     #
                  #                  All rights reserved                #
                  #                        -***-                        #
                  #######################################################


                         Program Version 5.0.3 -  RELEASE  -


 With contributions from (in alphabetic order):
   Daniel Aravena         : Magnetic Suceptibility
   Michael Atanasov       : Ab Initio Ligand Field Theory (pilot matlab implementation)
   Alexander A. Auer      : GIAO ZORA, VPT2 properties, NMR spectrum
   Ute Becker             : Parallelization
   Giovanni Bistoni       : ED, misc. LED, open-shell LED, HFLD
   Martin Brehm           : Molecular dynamics
   Dmytro Bykov           : SCF Hessian
   Vijay G. Chilkuri      : MRCI spin determinant printing, contributions to CSF-ICE
   Dipayan Datta          : RHF DLPNO-CCSD density
   Achintya Kumar Dutta   : EOM-CC, STEOM-CC
   Dmitry Ganyushin       : Spin-Orbit,Spin-Spin,Magnetic field MRCI
   Miquel Garcia          : C-PCM and meta-GGA Hessian, CC/C-PCM, Gaussian charge scheme
   Yang Guo               : DLPNO-NEVPT2, F12-NEVPT2, CIM, IAO-localization
   Andreas Hansen         : Spin unrestricted coupled pair/coupled cluster methods
   Benjamin Helmich-Paris : MC-RPA, TRAH-SCF, COSX integrals
   Lee Huntington         : MR-EOM, pCC
   Robert Izsak           : Overlap fitted RIJCOSX, COSX-SCS-MP3, EOM
   Marcus Kettner         : VPT2
   Christian Kollmar      : KDIIS, OOCD, Brueckner-CCSD(T), CCSD density, CASPT2, CASPT2-K
   Simone Kossmann        : Meta GGA functionals, TD-DFT gradient, OOMP2, MP2 Hessian
   Martin Krupicka        : Initial AUTO-CI
   Lucas Lang             : DCDCAS
   Marvin Lechner         : AUTO-CI (C++ implementation), FIC-MRCC
   Dagmar Lenk            : GEPOL surface, SMD
   Dimitrios Liakos       : Extrapolation schemes; Compound Job, initial MDCI parallelization
   Dimitrios Manganas     : Further ROCIS development; embedding schemes
   Dimitrios Pantazis     : SARC Basis sets
   Anastasios Papadopoulos: AUTO-CI, single reference methods and gradients
   Taras Petrenko         : DFT Hessian,TD-DFT gradient, ASA, ECA, R-Raman, ABS, FL, XAS/XES, NRVS
   Peter Pinski           : DLPNO-MP2, DLPNO-MP2 Gradient
   Christoph Reimann      : Effective Core Potentials
   Marius Retegan         : Local ZFS, SOC
   Christoph Riplinger    : Optimizer, TS searches, QM/MM, DLPNO-CCSD(T), (RO)-DLPNO pert. Triples
   Tobias Risthaus        : Range-separated hybrids, TD-DFT gradient, RPA, STAB
   Michael Roemelt        : Original ROCIS implementation
   Masaaki Saitow         : Open-shell DLPNO-CCSD energy and density
   Barbara Sandhoefer     : DKH picture change effects
   Avijit Sen             : IP-ROCIS
   Kantharuban Sivalingam : CASSCF convergence, NEVPT2, FIC-MRCI
   Bernardo de Souza      : ESD, SOC TD-DFT
   Georgi Stoychev        : AutoAux, RI-MP2 NMR, DLPNO-MP2 response
   Willem Van den Heuvel  : Paramagnetic NMR
   Boris Wezisla          : Elementary symmetry handling
   Frank Wennmohs         : Technical directorship


 We gratefully acknowledge several colleagues who have allowed us to
 interface, adapt or use parts of their codes:
   Stefan Grimme, W. Hujo, H. Kruse, P. Pracht,  : VdW corrections, initial TS optimization,
                  C. Bannwarth, S. Ehlert          DFT functionals, gCP, sTDA/sTD-DF
   Ed Valeev, F. Pavosevic, A. Kumar             : LibInt (2-el integral package), F12 methods
   Garnet Chan, S. Sharma, J. Yang, R. Olivares  : DMRG
   Ulf Ekstrom                                   : XCFun DFT Library
   Mihaly Kallay                                 : mrcc  (arbitrary order and MRCC methods)
   Jiri Pittner, Ondrej Demel                    : Mk-CCSD
   Frank Weinhold                                : gennbo (NPA and NBO analysis)
   Christopher J. Cramer and Donald G. Truhlar   : smd solvation model
   Lars Goerigk                                  : TD-DFT with DH, B97 family of functionals
   V. Asgeirsson, H. Jonsson                     : NEB implementation
   FAccTs GmbH                                   : IRC, NEB, NEB-TS, DLPNO-Multilevel, CI-OPT
                                                   MM, QMMM, 2- and 3-layer-ONIOM, Crystal-QMMM,
                                                   LR-CPCM, SF, NACMEs, symmetry and pop. for TD-DFT,
                                                   nearIR, NL-DFT gradient (VV10), updates on ESD,
                                                   ML-optimized integration grids
   S Lehtola, MJT Oliveira, MAL Marques          : LibXC Library
   Liviu Ungur et al                             : ANISO software


 Your calculation uses the libint2 library for the computation of 2-el integrals
 For citations please refer to: http://libint.valeyev.net

 Your ORCA version has been built with support for libXC version: 5.1.0
 For citations please refer to: https://tddft.org/programs/libxc/

 This ORCA versions uses:
   CBLAS   interface :  Fast vector & matrix operations
   LAPACKE interface :  Fast linear algebra routines
   SCALAPACK package :  Parallel linear algebra routines
   Shared memory     :  Shared parallel matrices
   BLAS/LAPACK       :  OpenBLAS 0.3.15  USE64BITINT DYNAMIC_ARCH NO_AFFINITY Haswell SINGLE_THREADED
        Core in use  :  Haswell
   Copyright (c) 2011-2014, The OpenBLAS Project




***************************************
The coordinates will be read from file: FCCH.xyz
***************************************


Your calculation utilizes the geometrical counterpoise correction gCP
Please cite in your paper:
H.Kruse, S. Grimme J.Chem.Phys., 136, (2012), 154101 
   

Your calculation utilizes the atom-pairwise dispersion correction
with the Becke-Johnson damping scheme (D3BJ)
Cite in your paper:
S.Grimme, S.Ehrlich, L.Goerigk, J Comput Chem, (2011), 32, 1456–1465 
S.Grimme, J.Antony, S.Ehrlich and H.Krieg, J.Chem.Phys., 132, (2010), 154104 
   

Your calculation employs the composite approach PBEh-3c.
Please cite in your paper:
S. Grimme, J. G. Brandenburg, C. Bannwarth, A. Hansen J.Chem.Phys., 143, (2015), 054107 
   

================================================================================

----- Orbital basis set information -----
Your calculation utilizes the basis: def2-mSVP

----- AuxJ basis set information -----
Your calculation utilizes the auxiliary basis: def2/J
   F. Weigend, Phys. Chem. Chem. Phys. 8, 1057 (2006).

================================================================================
                                        WARNINGS
                       Please study these warnings very carefully!
================================================================================


INFO   : the flag for use of the SHARK integral package has been found!

================================================================================
                                       INPUT FILE
================================================================================
NAME = pbeh-3c.inp
|  1> ! PBEh-3c def2/J TightSCF DefGrid3
|  2> 
|  3> %maxcore 60000
|  4> 
|  5> %pal
|  6> nprocs 4
|  7> end
|  8> 
|  9> *xyzfile 0 1 FCCH.xyz
| 10> 
| 11>                          ****END OF INPUT****
================================================================================

                       ****************************
                       * Single Point Calculation *
                       ****************************

---------------------------------
CARTESIAN COORDINATES (ANGSTROEM)
---------------------------------
  C      0.000000    0.000000   -0.095444
  C      0.000000    0.000000   -1.284149
  F      0.000000    0.000000    1.180380
  H      0.000000    0.000000   -2.345863

----------------------------
CARTESIAN COORDINATES (A.U.)
----------------------------
  NO LB      ZA    FRAG     MASS         X           Y           Z
   0 C     6.0000    0    12.011    0.000000    0.000000   -0.180363
   1 C     6.0000    0    12.011    0.000000    0.000000   -2.426690
   2 F     9.0000    0    18.998    0.000000    0.000000    2.230595
   3 H     1.0000    0     1.008    0.000000    0.000000   -4.433038

--------------------------------
INTERNAL COORDINATES (ANGSTROEM)
--------------------------------
 C      0   0   0     0.000000000000     0.00000000     0.00000000
 C      1   0   0     1.188704900000     0.00000000     0.00000000
 F      1   2   0     1.275823900000   180.00000000     0.00000000
 H      2   1   3     1.061713900000   180.00000000     0.00000000

---------------------------
INTERNAL COORDINATES (A.U.)
---------------------------
 C      0   0   0     0.000000000000     0.00000000     0.00000000
 C      1   0   0     2.246326715050     0.00000000     0.00000000
 F      1   2   0     2.410957766111   180.00000000     0.00000000
 H      2   1   3     2.006348503577   180.00000000     0.00000000

---------------------
BASIS SET INFORMATION
---------------------
There are 3 groups of distinct atoms

 Group   1 Type C   : 8s4p1d contracted to 4s2p1d pattern {5111/31/1}
 Group   2 Type F   : 8s4p1d contracted to 4s2p1d pattern {5111/31/1}
 Group   3 Type H   : 4s contracted to 2s pattern {31}

Atom   0C    basis set group =>   1
Atom   1C    basis set group =>   1
Atom   2F    basis set group =>   2
Atom   3H    basis set group =>   3
---------------------------------
AUXILIARY/J BASIS SET INFORMATION
---------------------------------
There are 3 groups of distinct atoms

 Group   1 Type C   : 12s5p4d2f1g contracted to 6s4p3d1f1g pattern {711111/2111/211/2/1}
 Group   2 Type F   : 12s5p4d2f1g contracted to 6s4p3d1f1g pattern {711111/2111/211/2/1}
 Group   3 Type H   : 5s2p1d contracted to 3s1p1d pattern {311/2/1}

Atom   0C    basis set group =>   1
Atom   1C    basis set group =>   1
Atom   2F    basis set group =>   2
Atom   3H    basis set group =>   3


           ************************************************************
           *        Program running with 4 parallel MPI-processes     *
           *              working on a common directory               *
           ************************************************************
------------------------------------------------------------------------------
                           ORCA GTO INTEGRAL CALCULATION
                           -- RI-GTO INTEGRALS CHOSEN --
------------------------------------------------------------------------------
------------------------------------------------------------------------------
                   ___                                                        
                  /   \      - P O W E R E D   B Y -                         
                 /     \                                                     
                 |  |  |   _    _      __       _____    __    __             
                 |  |  |  | |  | |    /  \     |  _  \  |  |  /  |          
                  \  \/   | |  | |   /    \    | | | |  |  | /  /          
                 / \  \   | |__| |  /  /\  \   | |_| |  |  |/  /          
                |  |  |   |  __  | /  /__\  \  |    /   |      \           
                |  |  |   | |  | | |   __   |  |    \   |  |\   \          
                \     /   | |  | | |  |  |  |  | |\  \  |  | \   \       
                 \___/    |_|  |_| |__|  |__|  |_| \__\ |__|  \__/        
                                                                              
                      - O R C A' S   B I G   F R I E N D -                    
                                      &                                       
                       - I N T E G R A L  F E E D E R -                       
                                                                              
 v1 FN, 2020, v2 2021                                                         
------------------------------------------------------------------------------


Reading SHARK input file pbeh-3c.SHARKINP.tmp ... ok
----------------------
SHARK INTEGRAL PACKAGE
----------------------

Number of atoms                             ...      4
Number of basis functions                   ...     47
Number of shells                            ...     23
Maximum angular momentum                    ...      2
Integral batch strategy                     ... SHARK/LIBINT Hybrid
RI-J (if used) integral strategy            ... SPLIT-RIJ (Revised 2003 algorithm where possible)
Printlevel                                  ...      1
Contraction scheme used                     ... SEGMENTED contraction
Coulomb Range Separation                    ... NOT USED
Exchange Range Separation                   ... NOT USED
Finite Nucleus Model                        ... NOT USED
Auxiliary Coulomb fitting basis             ... AVAILABLE
   # of basis functions in Aux-J            ...    158
   # of shells in Aux-J                     ...     50
   Maximum angular momentum in Aux-J        ...      4
Auxiliary J/K fitting basis                 ... NOT available
Auxiliary Correlation fitting basis         ... NOT available
Auxiliary 'external' fitting basis          ... NOT available
Integral threshold                          ...     2.500000e-11
Primitive cut-off                           ...     2.500000e-12
Primitive pair pre-selection threshold      ...     2.500000e-12

Calculating pre-screening integrals         ... done (  0.0 sec) Dimension = 23
Organizing shell pair data                  ... done (  0.3 sec)
Shell pair information
Total number of shell pairs                 ...       276
Shell pairs after pre-screening             ...       266
Total number of primitive shell pairs       ...       988
Primitive shell pairs kept                  ...       801
          la=0 lb=0:     95 shell pairs
          la=1 lb=0:     84 shell pairs
          la=1 lb=1:     21 shell pairs
          la=2 lb=0:     42 shell pairs
          la=2 lb=1:     18 shell pairs
          la=2 lb=2:      6 shell pairs

Calculating one electron integrals          ... done (  0.0 sec)
Calculating RI/J V-Matrix + Cholesky decomp.... done (  0.3 sec)
Calculating Nuclear repulsion               ... done (  0.0 sec) ENN=     55.770639712065 Eh

SHARK setup successfully completed in   2.1 seconds

Maximum memory used throughout the entire GTOINT-calculation: 9.0 MB


           ************************************************************
           *        Program running with 4 parallel MPI-processes     *
           *              working on a common directory               *
           ************************************************************
-------------------------------------------------------------------------------
                                 ORCA SCF
-------------------------------------------------------------------------------

------------
SCF SETTINGS
------------
Hamiltonian:
 Density Functional     Method          .... DFT(GTOs)
 Exchange Functional    Exchange        .... PBE
   PBE kappa parameter   XKappa         ....  1.024500
   PBE mue parameter    XMuePBE         ....  0.123457
 Correlation Functional Correlation     .... PBE
   PBE beta parameter  CBetaPBE         ....  0.030000
 LDA part of GGA corr.  LDAOpt          .... PW91-LDA
 Gradients option       PostSCFGGA      .... off
 Hybrid DFT is turned on
   Fraction HF Exchange ScalHFX         ....  0.420000
   Scaling of DF-GGA-X  ScalDFX         ....  0.580000
   Scaling of DF-GGA-C  ScalDFC         ....  1.000000
   Scaling of DF-LDA-C  ScalLDAC        ....  1.000000
   Perturbative correction              ....  0.000000
   Density functional embedding theory  .... OFF
 RI-approximation to the Coulomb term is turned on
   Number of AuxJ basis functions       .... 158
   RIJ-ON(X) (HFX calculated with O(N)) .... on
   Number of AuxJ basis functions       .... 158
   RIJ-COSX (HFX calculated with COS-X)).... on


General Settings:
 Integral files         IntName         .... pbeh-3c
 Hartree-Fock type      HFTyp           .... RHF
 Total Charge           Charge          ....    0
 Multiplicity           Mult            ....    1
 Number of Electrons    NEL             ....   22
 Basis Dimension        Dim             ....   47
 Nuclear Repulsion      ENuc            ....     55.7706397121 Eh

Convergence Acceleration:
 DIIS                   CNVDIIS         .... on
   Start iteration      DIISMaxIt       ....    12
   Startup error        DIISStart       ....  0.200000
   # of expansion vecs  DIISMaxEq       ....     5
   Bias factor          DIISBfac        ....   1.050
   Max. coefficient     DIISMaxC        ....  10.000
 Trust-Rad. Augm. Hess. CNVTRAH         .... auto
   Auto Start mean grad. ratio tolernc. ....  1.125000
   Auto Start start iteration           ....    20
   Auto Start num. interpolation iter.  ....    10
   Max. Number of Micro iterations      ....    16
   Max. Number of Macro iterations      .... Maxiter - #DIIS iter
   Number of Davidson start vectors     ....     2
   Converg. threshold I  (grad. norm)   ....   1.000e-05
   Converg. threshold II (energy diff.) ....   1.000e-08
   Grad. Scal. Fac. for Micro threshold ....   0.100
   Minimum threshold for Micro iter.    ....   0.010
   NR start threshold (gradient norm)   ....   0.001
   Initial trust radius                 ....   0.400
   Minimum AH scaling param. (alpha)    ....   1.000
   Maximum AH scaling param. (alpha)    .... 1000.000
   Orbital update algorithm             .... Taylor
   White noise on init. David. guess    .... on
   Maximum white noise                  ....   0.010
   Quad. conv. algorithm                .... NR
   COSX micro iterations for RIJONX calc.... off
 SOSCF                  CNVSOSCF        .... on
   Start iteration      SOSCFMaxIt      ....   150
   Startup grad/error   SOSCFStart      ....  0.003300
 Level Shifting         CNVShift        .... on
   Level shift para.    LevelShift      ....    0.2500
   Turn off err/grad.   ShiftErr        ....    0.0010
 Zerner damping         CNVZerner       .... off
 Static damping         CNVDamp         .... on
   Fraction old density DampFac         ....    0.7000
   Max. Damping (<1)    DampMax         ....    0.9800
   Min. Damping (>=0)   DampMin         ....    0.0000
   Turn off err/grad.   DampErr         ....    0.1000
 Fernandez-Rico         CNVRico         .... off

SCF Procedure:
 Maximum # iterations   MaxIter         ....   125
 SCF integral mode      SCFMode         .... Direct
   Integral package                     .... SHARK and LIBINT hybrid scheme
 Reset frequency        DirectResetFreq ....    20
 Integral Threshold     Thresh          ....  2.500e-11 Eh
 Primitive CutOff       TCut            ....  2.500e-12 Eh

Convergence Tolerance:
 Convergence Check Mode ConvCheckMode   .... Total+1el-Energy
 Convergence forced     ConvForced      .... 0
 Energy Change          TolE            ....  1.000e-08 Eh
 1-El. energy change                    ....  1.000e-05 Eh
 Orbital Gradient       TolG            ....  1.000e-05
 Orbital Rotation angle TolX            ....  1.000e-05
 DIIS Error             TolErr          ....  5.000e-07


Diagonalization of the overlap matrix:
Smallest eigenvalue                        ... 1.473e-03
Time for diagonalization                   ...    0.001 sec
Threshold for overlap eigenvalues          ... 1.000e-08
Number of eigenvalues below threshold      ... 0
Time for construction of square roots      ...    0.013 sec
Total time needed                          ...    0.014 sec

--------------------------------
INITIAL GUESS: MINIMAL BASIS EHT
--------------------------------
The minimal basis has 16 functions
EHT matrix was diagonalized
Basis set overlap was calculated now projecting the orbitals
Using GuessMode=FMatrix for the initial guess
C*T matrix was formed
Effective Fockian was calculated
Effective Fockian was diagonalized
Initial density was built
                      ------------------
                      INITIAL GUESS DONE
                      ------------------
-------------------
DFT GRID GENERATION
-------------------

General Integration Accuracy     IntAcc      ... 4.959
Radial Grid Type                 RadialGrid  ... OptM3 with GC (2021)
Angular Grid (max. ang.)         AngularGrid ... 6 (Lebedev-590)
Angular grid pruning method      GridPruning ... 4 (adaptive)
Weight generation scheme         WeightScheme... Becke
Basis function cutoff            BFCut       ... 1.0000e-11
Integration weight cutoff        WCut        ... 1.0000e-14
Angular grids for H and He will be reduced by one unit
Partially contracted basis set               ... off
Rotationally invariant grid construction     ... off

Total number of grid points                  ...    52556
Total number of batches                      ...      823
Average number of points per batch           ...       63
Average number of grid points per atom       ...    13139
Time for grid setup =    1.434 sec

--------------------
COSX GRID GENERATION
--------------------

GRIDX 1
-------
General Integration Accuracy     IntAcc      ... 4.020
Radial Grid Type                 RadialGrid  ... OptM3 with GC (2021)
Angular Grid (max. ang.)         AngularGrid ... 2 (Lebedev-110)
Angular grid pruning method      GridPruning ... 4 (adaptive)
Weight generation scheme         WeightScheme... Becke
Basis function cutoff            BFCut       ... 1.0000e-11
Integration weight cutoff        WCut        ... 1.0000e-14
Angular grids for H and He will be reduced by one unit
Partially contracted basis set               ... on
Rotationally invariant grid construction     ... off

Total number of grid points                  ...     6422
Total number of batches                      ...      103
Average number of points per batch           ...       62
Average number of grid points per atom       ...     1606
UseSFitting                                  ... on

GRIDX 2
-------
General Integration Accuracy     IntAcc      ... 4.338
Radial Grid Type                 RadialGrid  ... OptM3 with GC (2021)
Angular Grid (max. ang.)         AngularGrid ... 3 (Lebedev-194)
Angular grid pruning method      GridPruning ... 4 (adaptive)
Weight generation scheme         WeightScheme... Becke
Basis function cutoff            BFCut       ... 1.0000e-11
Integration weight cutoff        WCut        ... 1.0000e-14
Angular grids for H and He will be reduced by one unit
Partially contracted basis set               ... on
Rotationally invariant grid construction     ... off

Total number of grid points                  ...    14262
Total number of batches                      ...      225
Average number of points per batch           ...       63
Average number of grid points per atom       ...     3566
UseSFitting                                  ... on

GRIDX 3
-------
General Integration Accuracy     IntAcc      ... 4.871
Radial Grid Type                 RadialGrid  ... OptM3 with GC (2021)
Angular Grid (max. ang.)         AngularGrid ... 4 (Lebedev-302)
Angular grid pruning method      GridPruning ... 4 (adaptive)
Weight generation scheme         WeightScheme... Becke
Basis function cutoff            BFCut       ... 1.0000e-11
Integration weight cutoff        WCut        ... 1.0000e-14
Angular grids for H and He will be reduced by one unit
Partially contracted basis set               ... on
Rotationally invariant grid construction     ... off

Total number of grid points                  ...    26269
Total number of batches                      ...      413
Average number of points per batch           ...       63
Average number of grid points per atom       ...     6567
UseSFitting                                  ... on

Time for X-Grid setup             =    2.201 sec

--------------
SCF ITERATIONS
--------------
ITER       Energy         Delta-E        Max-DP      RMS-DP      [F,P]     Damp
               ***  Starting incremental Fock matrix formation  ***
  0   -175.4305515987   0.000000000000 0.18522044  0.01389505  0.7869208 0.7000
  1   -175.6906609910  -0.260109392272 0.12105997  0.00769931  0.5600554 0.7000
  2   -175.8349257793  -0.144264788317 0.07066253  0.00431589  0.3960195 0.7000
  3   -175.9347182837  -0.099792504394 0.04224458  0.00286075  0.2795610 0.7000
                               ***Turning on DIIS***
  4   -176.0058813668  -0.071163083136 0.02747062  0.00203664  0.1969164 0.7000
  5   -176.0562595356  -0.050378168756 0.01978752  0.00152631  0.1384928 0.7000
  6   -176.0918054843  -0.035545948761 0.04770891  0.00372795  0.0971438 0.0000
                      *** Initiating the SOSCF procedure ***
                           *** Shutting down DIIS ***
                      *** Re-Reading the Fockian *** 
                      *** Removing any level shift *** 
ITER      Energy       Delta-E        Grad      Rot      Max-DP    RMS-DP
  7   -176.17588118  -0.0840756907  0.001257  0.001257  0.002007  0.000151
               *** Restarting incremental Fock matrix formation ***
  8   -176.17590773  -0.0000265558  0.000565  0.000705  0.001038  0.000078
  9   -176.17591168  -0.0000039515  0.000148  0.000253  0.000452  0.000030
 10   -176.17591177  -0.0000000883  0.000172  0.000102  0.000194  0.000014
 11   -176.17591195  -0.0000001841  0.000026  0.000045  0.000082  0.000004
 12   -176.17591195   0.0000000018  0.000028  0.000023  0.000043  0.000002
                  ***Gradient check signals convergence***
              ***Rediagonalizing the Fockian in SOSCF/NRSCF***

               *****************************************************
               *                     SUCCESS                       *
               *           SCF CONVERGED AFTER  13 CYCLES          *
               *****************************************************

Old exchange energy                            =     -8.691055700 Eh
New exchange energy                            =     -8.691057700 Eh
Exchange energy change after final integration =     -0.000002000 Eh
Total energy after final integration           =   -176.175913960 Eh
Final COS-X integration done in                =     0.366 sec

----------------
TOTAL SCF ENERGY
----------------

Total Energy       :         -176.17591396 Eh           -4793.99034 eV

Components:
Nuclear Repulsion  :           55.77063971 Eh            1517.59626 eV
Electronic Energy  :         -231.94655367 Eh           -6311.58660 eV
One Electron Energy:         -351.68282726 Eh           -9569.77625 eV
Two Electron Energy:          119.73627358 Eh            3258.18965 eV
Max COSX asymmetry :            0.00000300 Eh               0.00008 eV

Virial components:
Potential Energy   :         -351.22103734 Eh           -9557.21031 eV
Kinetic Energy     :          175.04512338 Eh            4763.21996 eV
Virial Ratio       :            2.00645999


DFT components:
N(Alpha)           :       10.999998996046 electrons
N(Beta)            :       10.999998996046 electrons
N(Total)           :       21.999997992092 electrons
E(X)               :      -11.579436103884 Eh       
E(C)               :       -0.975021269025 Eh       
E(XC)              :      -12.554457372908 Eh       
DFET-embed. en.    :        0.000000000000 Eh       

---------------
SCF CONVERGENCE
---------------

  Last Energy change         ...   -7.1132e-09  Tolerance :   1.0000e-08
  Last MAX-Density change    ...    9.9920e-16  Tolerance :   1.0000e-07
  Last RMS-Density change    ...    5.2982e-17  Tolerance :   5.0000e-09
  Last Orbital Gradient      ...    2.1207e-06  Tolerance :   1.0000e-05
  Last Orbital Rotation      ...    2.7542e-06  Tolerance :   1.0000e-05

             **** THE GBW FILE WAS UPDATED (pbeh-3c.gbw) ****
             **** DENSITY pbeh-3c.scfp WAS UPDATED ****
             **** ENERGY FILE WAS UPDATED (pbeh-3c.en.tmp) ****
             **** THE GBW FILE WAS UPDATED (pbeh-3c.gbw) ****
             **** DENSITY pbeh-3c.scfp WAS UPDATED ****
----------------
ORBITAL ENERGIES
----------------

  NO   OCC          E(Eh)            E(eV) 
   0   2.0000     -25.183483      -685.2774 
   1   2.0000     -10.547976      -287.0250 
   2   2.0000     -10.460204      -284.6366 
   3   2.0000      -1.430551       -38.9273 
   4   2.0000      -0.864936       -23.5361 
   5   2.0000      -0.711489       -19.3606 
   6   2.0000      -0.600176       -16.3316 
   7   2.0000      -0.600176       -16.3316 
   8   2.0000      -0.597312       -16.2537 
   9   2.0000      -0.340868        -9.2755 
  10   2.0000      -0.340868        -9.2755 
  11   0.0000       0.097343         2.6488 
  12   0.0000       0.097343         2.6488 
  13   0.0000       0.121570         3.3081 
  14   0.0000       0.203870         5.5476 
  15   0.0000       0.405423        11.0321 
  16   0.0000       0.495798        13.4914 
  17   0.0000       0.495798        13.4914 
  18   0.0000       0.543002        14.7758 
  19   0.0000       0.624517        16.9940 
  20   0.0000       0.624517        16.9940 
  21   0.0000       0.691168        18.8076 
  22   0.0000       0.815854        22.2005 
  23   0.0000       1.101544        29.9745 
  24   0.0000       1.147782        31.2327 
  25   0.0000       1.147784        31.2328 
  26   0.0000       1.210882        32.9498 
  27   0.0000       1.210882        32.9498 
  28   0.0000       1.271835        34.6084 
  29   0.0000       1.271835        34.6084 
  30   0.0000       1.307436        35.5771 
  31   0.0000       1.421513        38.6813 
  32   0.0000       1.601380        43.5758 
  33   0.0000       1.601381        43.5758 
  34   0.0000       1.920895        52.2702 
  35   0.0000       1.920895        52.2702 
  36   0.0000       2.005830        54.5814 
  37   0.0000       2.020789        54.9885 
  38   0.0000       2.020790        54.9885 
  39   0.0000       2.587931        70.4212 
  40   0.0000       2.814006        76.5730 
  41   0.0000       2.814006        76.5730 
  42   0.0000       2.937041        79.9209 
  43   0.0000       3.490340        94.9770 
  44   0.0000      13.432659       365.5212 
  45   0.0000      14.545059       395.7912 
  46   0.0000      32.738886       890.8704 

                    ********************************
                    * MULLIKEN POPULATION ANALYSIS *
                    ********************************

-----------------------
MULLIKEN ATOMIC CHARGES
-----------------------
   0 C :    0.340306
   1 C :   -0.413161
   2 F :   -0.178269
   3 H :    0.251124
Sum of atomic charges:   -0.0000000

--------------------------------
MULLIKEN REDUCED ORBITAL CHARGES
--------------------------------
  0 C s       :     2.930474  s :     2.930474
      pz      :     0.698166  p :     2.650410
      px      :     0.976122
      py      :     0.976122
      dz2     :     0.025776  d :     0.078811
      dxz     :     0.026517
      dyz     :     0.026517
      dx2y2   :     0.000000
      dxy     :     0.000000
  1 C s       :     3.292622  s :     3.292622
      pz      :     0.950725  p :     3.090775
      px      :     1.070025
      py      :     1.070025
      dz2     :     0.012856  d :     0.029764
      dxz     :     0.008454
      dyz     :     0.008454
      dx2y2   :     0.000000
      dxy     :     0.000000
  2 F s       :     3.883393  s :     3.883393
      pz      :     1.448321  p :     5.264383
      px      :     1.908031
      py      :     1.908031
      dz2     :     0.008792  d :     0.030493
      dxz     :     0.010851
      dyz     :     0.010851
      dx2y2   :     0.000000
      dxy     :     0.000000
  3 H s       :     0.748876  s :     0.748876


                     *******************************
                     * LOEWDIN POPULATION ANALYSIS *
                     *******************************

----------------------
LOEWDIN ATOMIC CHARGES
----------------------
   0 C :    0.138872
   1 C :   -0.266350
   2 F :   -0.044169
   3 H :    0.171647

-------------------------------
LOEWDIN REDUCED ORBITAL CHARGES
-------------------------------
  0 C s       :     2.828544  s :     2.828544
      pz      :     0.934850  p :     2.843448
      px      :     0.954299
      py      :     0.954299
      dz2     :     0.059609  d :     0.189137
      dxz     :     0.064764
      dyz     :     0.064764
      dx2y2   :     0.000000
      dxy     :     0.000000
  1 C s       :     2.986686  s :     2.986686
      pz      :     1.120756  p :     3.225748
      px      :     1.052496
      py      :     1.052496
      dz2     :     0.024008  d :     0.053916
      dxz     :     0.014954
      dyz     :     0.014954
      dx2y2   :     0.000000
      dxy     :     0.000000
  2 F s       :     3.670553  s :     3.670553
      pz      :     1.517428  p :     5.284730
      px      :     1.883651
      py      :     1.883651
      dz2     :     0.029213  d :     0.088885
      dxz     :     0.029836
      dyz     :     0.029836
      dx2y2   :     0.000000
      dxy     :     0.000000
  3 H s       :     0.828353  s :     0.828353


                      *****************************
                      * MAYER POPULATION ANALYSIS *
                      *****************************

  NA   - Mulliken gross atomic population
  ZA   - Total nuclear charge
  QA   - Mulliken gross atomic charge
  VA   - Mayer's total valence
  BVA  - Mayer's bonded valence
  FA   - Mayer's free valence

  ATOM       NA         ZA         QA         VA         BVA        FA
  0 C      5.6597     6.0000     0.3403     3.9612     3.9612    -0.0000
  1 C      6.4132     6.0000    -0.4132     3.7819     3.7819    -0.0000
  2 F      9.1783     9.0000    -0.1783     1.2796     1.2796    -0.0000
  3 H      0.7489     1.0000     0.2511     0.9223     0.9223    -0.0000

  Mayer bond orders larger than 0.100000
B(  0-C ,  1-C ) :   2.7712 B(  0-C ,  2-F ) :   1.1922 B(  1-C ,  3-H ) :   0.9239 


-------
TIMINGS
-------

Total SCF time: 0 days 0 hours 0 min 55 sec 

Total time                  ....      55.225 sec
Sum of individual times     ....      47.783 sec  ( 86.5%)

Fock matrix formation       ....      39.259 sec  ( 71.1%)
  Split-RI-J                ....       4.433 sec  ( 11.3% of F)
  Chain of spheres X        ....       5.525 sec  ( 14.1% of F)
  XC integration            ....      12.207 sec  ( 31.1% of F)
    Basis function eval.    ....       0.474 sec  (  3.9% of XC)
    Density eval.           ....       0.492 sec  (  4.0% of XC)
    XC-Functional eval.     ....       0.631 sec  (  5.2% of XC)
    XC-Potential eval.      ....       0.165 sec  (  1.3% of XC)
Diagonalization             ....       0.722 sec  (  1.3%)
Density matrix formation    ....       0.061 sec  (  0.1%)
Population analysis         ....       1.971 sec  (  3.6%)
Initial guess               ....       0.002 sec  (  0.0%)
Orbital Transformation      ....       0.000 sec  (  0.0%)
Orbital Orthonormalization  ....       0.000 sec  (  0.0%)
DIIS solution               ....       1.431 sec  (  2.6%)
SOSCF solution              ....       0.702 sec  (  1.3%)
Grid generation             ....       3.635 sec  (  6.6%)

Maximum memory used throughout the entire SCF-calculation: 44.7 MB


-------------------------------------------------------------------------------
                          DFT DISPERSION CORRECTION                            
                                                                               
                              DFTD3 V3.1  Rev 1                                
                          USING Becke-Johnson damping                          
-------------------------------------------------------------------------------
The PBEh-3c composite method is recognized
Using three-body term ABC
Active option DFTDOPT                   ...         4   

molecular C6(AA) [au] = 228.611813 


            DFT-D V3
 parameters
 s6 scaling factor         :     1.0000 
 a1 scaling factor         :     0.4860 
 s8 scaling factor         :     0.0000 
 a2 scaling factor         :     4.5000 
 Damping factor alpha9(ATM):    16.0000 
 ad hoc parameters k1-k3   :    16.0000     1.3333    -4.0000 

 Edisp/kcal,au: -0.463411239198  -0.000738492738 
 E6   /kcal   :  -0.463318368 
 E8   /kcal   :  -0.000000000 
 E6(ABC)      :  -0.000092872 
 % E8         :   0.000000000 
 % E6(ABC)    :   0.020040880 

-------------------------   ----------------
Dispersion correction           -0.000738493
-------------------------   ----------------

------------------   -----------------
gCP correction             0.002418077
------------------   -----------------

-------------------------   --------------------
FINAL SINGLE POINT ENERGY      -176.174234375661
-------------------------   --------------------


                            ***************************************
                            *     ORCA property calculations      *
                            ***************************************

                                    ---------------------
                                    Active property flags
                                    ---------------------
   (+) Dipole Moment


------------------------------------------------------------------------------
                       ORCA ELECTRIC PROPERTIES CALCULATION
------------------------------------------------------------------------------

Dipole Moment Calculation                       ... on
Quadrupole Moment Calculation                   ... off
Polarizability Calculation                      ... off
GBWName                                         ... pbeh-3c.gbw
Electron density                                ... pbeh-3c.scfp
The origin for moment calculation is the CENTER OF MASS  = ( 0.000000,  0.000000  0.149792)

-------------
DIPOLE MOMENT
-------------
                                X             Y             Z
Electronic contribution:      0.00000       0.00000       3.04799
Nuclear contribution   :      0.00000       0.00000      -3.29542
                        -----------------------------------------
Total Dipole Moment    :      0.00000       0.00000      -0.24743
                        -----------------------------------------
Magnitude (a.u.)       :      0.24743
Magnitude (Debye)      :      0.62892



--------------------
Rotational spectrum 
--------------------
 
Rotational constants in cm-1:     0.000000     0.326342     0.326342 
Rotational constants in MHz :     0.000000  9783.495963  9783.495963 

 Dipole components along the rotational axes: 
x,y,z [a.u.] :    -0.247430     0.000000     0.000000 
x,y,z [Debye]:    -0.628916     0.000000     0.000000 

 

Timings for individual modules:

Sum of individual times         ...       58.887 sec (=   0.981 min)
GTO integral calculation        ...        2.881 sec (=   0.048 min)   4.9 %
SCF iterations                  ...       56.006 sec (=   0.933 min)  95.1 %
                             ****ORCA TERMINATED NORMALLY****
TOTAL RUN TIME: 0 days 0 hours 1 minutes 5 seconds 637 msec
