
                                 *****************
                                 * O   R   C   A *
                                 *****************

                                            #,                                       
                                            ###                                      
                                            ####                                     
                                            #####                                    
                                            ######                                   
                                           ########,                                 
                                     ,,################,,,,,                         
                               ,,#################################,,                 
                          ,,##########################################,,             
                       ,#########################################, ''#####,          
                    ,#############################################,,   '####,        
                  ,##################################################,,,,####,       
                ,###########''''           ''''###############################       
              ,#####''   ,,,,##########,,,,          '''####'''          '####       
            ,##' ,,,,###########################,,,                        '##       
           ' ,,###''''                  '''############,,,                           
         ,,##''                                '''############,,,,        ,,,,,,###''
      ,#''                                            '''#######################'''  
     '                                                          ''''####''''         
             ,#######,   #######,   ,#######,      ##                                
            ,#'     '#,  ##    ##  ,#'     '#,    #''#        ######   ,####,        
            ##       ##  ##   ,#'  ##            #'  '#       #        #'  '#        
            ##       ##  #######   ##           ,######,      #####,   #    #        
            '#,     ,#'  ##    ##  '#,     ,#' ,#      #,         ##   #,  ,#        
             '#######'   ##     ##  '#######'  #'      '#     #####' # '####'        



                  #######################################################
                  #                        -***-                        #
                  #          Department of theory and spectroscopy      #
                  #    Directorship and core code : Frank Neese         #
                  #        Max Planck Institute fuer Kohlenforschung    #
                  #                Kaiser Wilhelm Platz 1               #
                  #                 D-45470 Muelheim/Ruhr               #
                  #                      Germany                        #
                  #                                                     #
                  #                  All rights reserved                #
                  #                        -***-                        #
                  #######################################################


                         Program Version 5.0.3 -  RELEASE  -


 With contributions from (in alphabetic order):
   Daniel Aravena         : Magnetic Suceptibility
   Michael Atanasov       : Ab Initio Ligand Field Theory (pilot matlab implementation)
   Alexander A. Auer      : GIAO ZORA, VPT2 properties, NMR spectrum
   Ute Becker             : Parallelization
   Giovanni Bistoni       : ED, misc. LED, open-shell LED, HFLD
   Martin Brehm           : Molecular dynamics
   Dmytro Bykov           : SCF Hessian
   Vijay G. Chilkuri      : MRCI spin determinant printing, contributions to CSF-ICE
   Dipayan Datta          : RHF DLPNO-CCSD density
   Achintya Kumar Dutta   : EOM-CC, STEOM-CC
   Dmitry Ganyushin       : Spin-Orbit,Spin-Spin,Magnetic field MRCI
   Miquel Garcia          : C-PCM and meta-GGA Hessian, CC/C-PCM, Gaussian charge scheme
   Yang Guo               : DLPNO-NEVPT2, F12-NEVPT2, CIM, IAO-localization
   Andreas Hansen         : Spin unrestricted coupled pair/coupled cluster methods
   Benjamin Helmich-Paris : MC-RPA, TRAH-SCF, COSX integrals
   Lee Huntington         : MR-EOM, pCC
   Robert Izsak           : Overlap fitted RIJCOSX, COSX-SCS-MP3, EOM
   Marcus Kettner         : VPT2
   Christian Kollmar      : KDIIS, OOCD, Brueckner-CCSD(T), CCSD density, CASPT2, CASPT2-K
   Simone Kossmann        : Meta GGA functionals, TD-DFT gradient, OOMP2, MP2 Hessian
   Martin Krupicka        : Initial AUTO-CI
   Lucas Lang             : DCDCAS
   Marvin Lechner         : AUTO-CI (C++ implementation), FIC-MRCC
   Dagmar Lenk            : GEPOL surface, SMD
   Dimitrios Liakos       : Extrapolation schemes; Compound Job, initial MDCI parallelization
   Dimitrios Manganas     : Further ROCIS development; embedding schemes
   Dimitrios Pantazis     : SARC Basis sets
   Anastasios Papadopoulos: AUTO-CI, single reference methods and gradients
   Taras Petrenko         : DFT Hessian,TD-DFT gradient, ASA, ECA, R-Raman, ABS, FL, XAS/XES, NRVS
   Peter Pinski           : DLPNO-MP2, DLPNO-MP2 Gradient
   Christoph Reimann      : Effective Core Potentials
   Marius Retegan         : Local ZFS, SOC
   Christoph Riplinger    : Optimizer, TS searches, QM/MM, DLPNO-CCSD(T), (RO)-DLPNO pert. Triples
   Tobias Risthaus        : Range-separated hybrids, TD-DFT gradient, RPA, STAB
   Michael Roemelt        : Original ROCIS implementation
   Masaaki Saitow         : Open-shell DLPNO-CCSD energy and density
   Barbara Sandhoefer     : DKH picture change effects
   Avijit Sen             : IP-ROCIS
   Kantharuban Sivalingam : CASSCF convergence, NEVPT2, FIC-MRCI
   Bernardo de Souza      : ESD, SOC TD-DFT
   Georgi Stoychev        : AutoAux, RI-MP2 NMR, DLPNO-MP2 response
   Willem Van den Heuvel  : Paramagnetic NMR
   Boris Wezisla          : Elementary symmetry handling
   Frank Wennmohs         : Technical directorship


 We gratefully acknowledge several colleagues who have allowed us to
 interface, adapt or use parts of their codes:
   Stefan Grimme, W. Hujo, H. Kruse, P. Pracht,  : VdW corrections, initial TS optimization,
                  C. Bannwarth, S. Ehlert          DFT functionals, gCP, sTDA/sTD-DF
   Ed Valeev, F. Pavosevic, A. Kumar             : LibInt (2-el integral package), F12 methods
   Garnet Chan, S. Sharma, J. Yang, R. Olivares  : DMRG
   Ulf Ekstrom                                   : XCFun DFT Library
   Mihaly Kallay                                 : mrcc  (arbitrary order and MRCC methods)
   Jiri Pittner, Ondrej Demel                    : Mk-CCSD
   Frank Weinhold                                : gennbo (NPA and NBO analysis)
   Christopher J. Cramer and Donald G. Truhlar   : smd solvation model
   Lars Goerigk                                  : TD-DFT with DH, B97 family of functionals
   V. Asgeirsson, H. Jonsson                     : NEB implementation
   FAccTs GmbH                                   : IRC, NEB, NEB-TS, DLPNO-Multilevel, CI-OPT
                                                   MM, QMMM, 2- and 3-layer-ONIOM, Crystal-QMMM,
                                                   LR-CPCM, SF, NACMEs, symmetry and pop. for TD-DFT,
                                                   nearIR, NL-DFT gradient (VV10), updates on ESD,
                                                   ML-optimized integration grids
   S Lehtola, MJT Oliveira, MAL Marques          : LibXC Library
   Liviu Ungur et al                             : ANISO software


 Your calculation uses the libint2 library for the computation of 2-el integrals
 For citations please refer to: http://libint.valeyev.net

 Your ORCA version has been built with support for libXC version: 5.1.0
 For citations please refer to: https://tddft.org/programs/libxc/

 This ORCA versions uses:
   CBLAS   interface :  Fast vector & matrix operations
   LAPACKE interface :  Fast linear algebra routines
   SCALAPACK package :  Parallel linear algebra routines
   Shared memory     :  Shared parallel matrices
   BLAS/LAPACK       :  OpenBLAS 0.3.15  USE64BITINT DYNAMIC_ARCH NO_AFFINITY Haswell SINGLE_THREADED
        Core in use  :  Haswell
   Copyright (c) 2011-2014, The OpenBLAS Project




***************************************
The coordinates will be read from file: 16A.xyz
***************************************


Your calculation utilizes the geometrical counterpoise correction gCP
Please cite in your paper:
H.Kruse, S. Grimme J.Chem.Phys., 136, (2012), 154101 
   

Your calculation utilizes the atom-pairwise dispersion correction
with the Becke-Johnson damping scheme (D3BJ)
Cite in your paper:
S.Grimme, S.Ehrlich, L.Goerigk, J Comput Chem, (2011), 32, 1456–1465 
S.Grimme, J.Antony, S.Ehrlich and H.Krieg, J.Chem.Phys., 132, (2010), 154104 
   

Your calculation employs the composite approach PBEh-3c.
Please cite in your paper:
S. Grimme, J. G. Brandenburg, C. Bannwarth, A. Hansen J.Chem.Phys., 143, (2015), 054107 
   

================================================================================

----- Orbital basis set information -----
Your calculation utilizes the basis: def2-mSVP

----- AuxJ basis set information -----
Your calculation utilizes the auxiliary basis: def2/J
   F. Weigend, Phys. Chem. Chem. Phys. 8, 1057 (2006).

================================================================================
                                        WARNINGS
                       Please study these warnings very carefully!
================================================================================


INFO   : the flag for use of the SHARK integral package has been found!

================================================================================
                                       INPUT FILE
================================================================================
NAME = pbeh-3c.inp
|  1> ! PBEh-3c def2/J TightSCF DefGrid3
|  2> 
|  3> %maxcore 60000
|  4> 
|  5> %pal
|  6> nprocs 4
|  7> end
|  8> 
|  9> *xyzfile 0 1 16A.xyz
| 10> 
| 11>                          ****END OF INPUT****
================================================================================

                       ****************************
                       * Single Point Calculation *
                       ****************************

---------------------------------
CARTESIAN COORDINATES (ANGSTROEM)
---------------------------------
  C      0.515413   -0.473460    1.756757
  H      1.575035   -0.398468    1.526072
  H      0.288021   -1.480514    2.098541
  H      0.270089    0.209396    2.566655
  C     -0.375218   -0.155954    0.576958
  O     -1.597606   -0.183547    0.667022
  N      0.286297    0.155071   -0.567930
  H      1.293526    0.155909   -0.563751
  C     -0.418407    0.481569   -1.785663
  H     -1.480654    0.408420   -1.573763
  H     -0.190587    1.494438   -2.115204
  H     -0.165909   -0.212860   -2.585694

----------------------------
CARTESIAN COORDINATES (A.U.)
----------------------------
  NO LB      ZA    FRAG     MASS         X           Y           Z
   0 C     6.0000    0    12.011    0.973989   -0.894710    3.319790
   1 H     1.0000    0     1.008    2.976386   -0.752995    2.883858
   2 H     1.0000    0     1.008    0.544280   -2.797766    3.965667
   3 H     1.0000    0     1.008    0.510395    0.395701    4.850274
   4 C     6.0000    0    12.011   -0.709059   -0.294710    1.090294
   5 O     8.0000    0    15.999   -3.019039   -0.346853    1.260489
   6 N     7.0000    0    14.007    0.541023    0.293042   -1.073233
   7 H     1.0000    0     1.008    2.444410    0.294625   -1.065334
   8 C     6.0000    0    12.011   -0.790674    0.910034   -3.374415
   9 H     1.0000    0     1.008   -2.798032    0.771802   -2.973981
  10 H     1.0000    0     1.008   -0.360158    2.824078   -3.997157
  11 H     1.0000    0     1.008   -0.313522   -0.402247   -4.886253

--------------------------------
INTERNAL COORDINATES (ANGSTROEM)
--------------------------------
 C      0   0   0     0.000000000000     0.00000000     0.00000000
 H      1   0   0     1.087032735590     0.00000000     0.00000000
 H      1   2   0     1.087511028551   109.53613287     0.00000000
 H      1   2   3     1.087386774535   109.55165728   117.65297424
 C      1   2   3     1.511938484464   113.21156996   238.82762477
 O      5   1   2     1.226012738338   121.68673401   180.53708822
 N      5   1   2     1.358347572463   114.76561895     0.58433893
 H      7   5   1     1.007237920319   118.92655905     0.00000000
 C      7   5   1     1.444327613196   121.65277978   179.92680407
 H      9   7   5     1.085644114641   107.31367698   359.32199793
 H      9   7   5     1.089220863634   111.29936114   118.56025729
 H      9   7   5     1.089052436671   111.22895797   240.05655573

---------------------------
INTERNAL COORDINATES (A.U.)
---------------------------
 C      0   0   0     0.000000000000     0.00000000     0.00000000
 H      1   0   0     2.054194168873     0.00000000     0.00000000
 H      1   2   0     2.055098011580   109.53613287     0.00000000
 H      1   2   3     2.054863205520   109.55165728   117.65297424
 C      1   2   3     2.857149666973   113.21156996   238.82762477
 O      5   1   2     2.316828312157   121.68673401   180.53708822
 N      5   1   2     2.566904906632   114.76561895     0.58433893
 H      7   5   1     1.903403821103   118.92655905     0.00000000
 C      7   5   1     2.729383636600   121.65277978   179.92680407
 H      9   7   5     2.051570055575   107.31367698   359.32199793
 H      9   7   5     2.058329131622   111.29936114   118.56025729
 H      9   7   5     2.058010850787   111.22895797   240.05655573

---------------------
BASIS SET INFORMATION
---------------------
There are 4 groups of distinct atoms

 Group   1 Type C   : 8s4p1d contracted to 4s2p1d pattern {5111/31/1}
 Group   2 Type H   : 4s contracted to 2s pattern {31}
 Group   3 Type O   : 8s4p1d contracted to 4s2p1d pattern {5111/31/1}
 Group   4 Type N   : 8s4p1d contracted to 4s2p1d pattern {5111/31/1}

Atom   0C    basis set group =>   1
Atom   1H    basis set group =>   2
Atom   2H    basis set group =>   2
Atom   3H    basis set group =>   2
Atom   4C    basis set group =>   1
Atom   5O    basis set group =>   3
Atom   6N    basis set group =>   4
Atom   7H    basis set group =>   2
Atom   8C    basis set group =>   1
Atom   9H    basis set group =>   2
Atom  10H    basis set group =>   2
Atom  11H    basis set group =>   2
---------------------------------
AUXILIARY/J BASIS SET INFORMATION
---------------------------------
There are 4 groups of distinct atoms

 Group   1 Type C   : 12s5p4d2f1g contracted to 6s4p3d1f1g pattern {711111/2111/211/2/1}
 Group   2 Type H   : 5s2p1d contracted to 3s1p1d pattern {311/2/1}
 Group   3 Type O   : 12s5p4d2f1g contracted to 6s4p3d1f1g pattern {711111/2111/211/2/1}
 Group   4 Type N   : 12s5p4d2f1g contracted to 6s4p3d1f1g pattern {711111/2111/211/2/1}

Atom   0C    basis set group =>   1
Atom   1H    basis set group =>   2
Atom   2H    basis set group =>   2
Atom   3H    basis set group =>   2
Atom   4C    basis set group =>   1
Atom   5O    basis set group =>   3
Atom   6N    basis set group =>   4
Atom   7H    basis set group =>   2
Atom   8C    basis set group =>   1
Atom   9H    basis set group =>   2
Atom  10H    basis set group =>   2
Atom  11H    basis set group =>   2


           ************************************************************
           *        Program running with 4 parallel MPI-processes     *
           *              working on a common directory               *
           ************************************************************
------------------------------------------------------------------------------
                           ORCA GTO INTEGRAL CALCULATION
                           -- RI-GTO INTEGRALS CHOSEN --
------------------------------------------------------------------------------
------------------------------------------------------------------------------
                   ___                                                        
                  /   \      - P O W E R E D   B Y -                         
                 /     \                                                     
                 |  |  |   _    _      __       _____    __    __             
                 |  |  |  | |  | |    /  \     |  _  \  |  |  /  |          
                  \  \/   | |  | |   /    \    | | | |  |  | /  /          
                 / \  \   | |__| |  /  /\  \   | |_| |  |  |/  /          
                |  |  |   |  __  | /  /__\  \  |    /   |      \           
                |  |  |   | |  | | |   __   |  |    \   |  |\   \          
                \     /   | |  | | |  |  |  |  | |\  \  |  | \   \       
                 \___/    |_|  |_| |__|  |__|  |_| \__\ |__|  \__/        
                                                                              
                      - O R C A' S   B I G   F R I E N D -                    
                                      &                                       
                       - I N T E G R A L  F E E D E R -                       
                                                                              
 v1 FN, 2020, v2 2021                                                         
------------------------------------------------------------------------------


Reading SHARK input file pbeh-3c.SHARKINP.tmp ... ok
----------------------
SHARK INTEGRAL PACKAGE
----------------------

Number of atoms                             ...     12
Number of basis functions                   ...     89
Number of shells                            ...     49
Maximum angular momentum                    ...      2
Integral batch strategy                     ... SHARK/LIBINT Hybrid
RI-J (if used) integral strategy            ... SPLIT-RIJ (Revised 2003 algorithm where possible)
Printlevel                                  ...      1
Contraction scheme used                     ... SEGMENTED contraction
Coulomb Range Separation                    ... NOT USED
Exchange Range Separation                   ... NOT USED
Finite Nucleus Model                        ... NOT USED
Auxiliary Coulomb fitting basis             ... AVAILABLE
   # of basis functions in Aux-J            ...    322
   # of shells in Aux-J                     ...    110
   Maximum angular momentum in Aux-J        ...      4
Auxiliary J/K fitting basis                 ... NOT available
Auxiliary Correlation fitting basis         ... NOT available
Auxiliary 'external' fitting basis          ... NOT available
Integral threshold                          ...     2.500000e-11
Primitive cut-off                           ...     2.500000e-12
Primitive pair pre-selection threshold      ...     2.500000e-12

Calculating pre-screening integrals         ... done (  0.0 sec) Dimension = 49
Organizing shell pair data                  ... done (  0.2 sec)
Shell pair information
Total number of shell pairs                 ...      1225
Shell pairs after pre-screening             ...      1170
Total number of primitive shell pairs       ...      4457
Primitive shell pairs kept                  ...      3201
          la=0 lb=0:    544 shell pairs
          la=1 lb=0:    340 shell pairs
          la=1 lb=1:     55 shell pairs
          la=2 lb=0:    166 shell pairs
          la=2 lb=1:     50 shell pairs
          la=2 lb=2:     15 shell pairs

Calculating one electron integrals          ... done (  0.0 sec)
Calculating RI/J V-Matrix + Cholesky decomp.... done (  0.7 sec)
Calculating Nuclear repulsion               ... done (  0.0 sec) ENN=    180.570907346322 Eh

SHARK setup successfully completed in   2.4 seconds

Maximum memory used throughout the entire GTOINT-calculation: 9.9 MB


           ************************************************************
           *        Program running with 4 parallel MPI-processes     *
           *              working on a common directory               *
           ************************************************************
-------------------------------------------------------------------------------
                                 ORCA SCF
-------------------------------------------------------------------------------

------------
SCF SETTINGS
------------
Hamiltonian:
 Density Functional     Method          .... DFT(GTOs)
 Exchange Functional    Exchange        .... PBE
   PBE kappa parameter   XKappa         ....  1.024500
   PBE mue parameter    XMuePBE         ....  0.123457
 Correlation Functional Correlation     .... PBE
   PBE beta parameter  CBetaPBE         ....  0.030000
 LDA part of GGA corr.  LDAOpt          .... PW91-LDA
 Gradients option       PostSCFGGA      .... off
 Hybrid DFT is turned on
   Fraction HF Exchange ScalHFX         ....  0.420000
   Scaling of DF-GGA-X  ScalDFX         ....  0.580000
   Scaling of DF-GGA-C  ScalDFC         ....  1.000000
   Scaling of DF-LDA-C  ScalLDAC        ....  1.000000
   Perturbative correction              ....  0.000000
   Density functional embedding theory  .... OFF
 RI-approximation to the Coulomb term is turned on
   Number of AuxJ basis functions       .... 322
   RIJ-ON(X) (HFX calculated with O(N)) .... on
   Number of AuxJ basis functions       .... 322
   RIJ-COSX (HFX calculated with COS-X)).... on


General Settings:
 Integral files         IntName         .... pbeh-3c
 Hartree-Fock type      HFTyp           .... RHF
 Total Charge           Charge          ....    0
 Multiplicity           Mult            ....    1
 Number of Electrons    NEL             ....   40
 Basis Dimension        Dim             ....   89
 Nuclear Repulsion      ENuc            ....    180.5709073463 Eh

Convergence Acceleration:
 DIIS                   CNVDIIS         .... on
   Start iteration      DIISMaxIt       ....    12
   Startup error        DIISStart       ....  0.200000
   # of expansion vecs  DIISMaxEq       ....     5
   Bias factor          DIISBfac        ....   1.050
   Max. coefficient     DIISMaxC        ....  10.000
 Trust-Rad. Augm. Hess. CNVTRAH         .... auto
   Auto Start mean grad. ratio tolernc. ....  1.125000
   Auto Start start iteration           ....    20
   Auto Start num. interpolation iter.  ....    10
   Max. Number of Micro iterations      ....    16
   Max. Number of Macro iterations      .... Maxiter - #DIIS iter
   Number of Davidson start vectors     ....     2
   Converg. threshold I  (grad. norm)   ....   1.000e-05
   Converg. threshold II (energy diff.) ....   1.000e-08
   Grad. Scal. Fac. for Micro threshold ....   0.100
   Minimum threshold for Micro iter.    ....   0.010
   NR start threshold (gradient norm)   ....   0.001
   Initial trust radius                 ....   0.400
   Minimum AH scaling param. (alpha)    ....   1.000
   Maximum AH scaling param. (alpha)    .... 1000.000
   Orbital update algorithm             .... Taylor
   White noise on init. David. guess    .... on
   Maximum white noise                  ....   0.010
   Quad. conv. algorithm                .... NR
   COSX micro iterations for RIJONX calc.... off
 SOSCF                  CNVSOSCF        .... on
   Start iteration      SOSCFMaxIt      ....   150
   Startup grad/error   SOSCFStart      ....  0.003300
 Level Shifting         CNVShift        .... on
   Level shift para.    LevelShift      ....    0.2500
   Turn off err/grad.   ShiftErr        ....    0.0010
 Zerner damping         CNVZerner       .... off
 Static damping         CNVDamp         .... on
   Fraction old density DampFac         ....    0.7000
   Max. Damping (<1)    DampMax         ....    0.9800
   Min. Damping (>=0)   DampMin         ....    0.0000
   Turn off err/grad.   DampErr         ....    0.1000
 Fernandez-Rico         CNVRico         .... off

SCF Procedure:
 Maximum # iterations   MaxIter         ....   125
 SCF integral mode      SCFMode         .... Direct
   Integral package                     .... SHARK and LIBINT hybrid scheme
 Reset frequency        DirectResetFreq ....    20
 Integral Threshold     Thresh          ....  2.500e-11 Eh
 Primitive CutOff       TCut            ....  2.500e-12 Eh

Convergence Tolerance:
 Convergence Check Mode ConvCheckMode   .... Total+1el-Energy
 Convergence forced     ConvForced      .... 0
 Energy Change          TolE            ....  1.000e-08 Eh
 1-El. energy change                    ....  1.000e-05 Eh
 Orbital Gradient       TolG            ....  1.000e-05
 Orbital Rotation angle TolX            ....  1.000e-05
 DIIS Error             TolErr          ....  5.000e-07


Diagonalization of the overlap matrix:
Smallest eigenvalue                        ... 6.450e-03
Time for diagonalization                   ...    0.002 sec
Threshold for overlap eigenvalues          ... 1.000e-08
Number of eigenvalues below threshold      ... 0
Time for construction of square roots      ...    0.234 sec
Total time needed                          ...    0.236 sec

--------------------------------
INITIAL GUESS: MINIMAL BASIS EHT
--------------------------------
The minimal basis has 32 functions
EHT matrix was diagonalized
Basis set overlap was calculated now projecting the orbitals
Using GuessMode=FMatrix for the initial guess
C*T matrix was formed
Effective Fockian was calculated
Effective Fockian was diagonalized
Initial density was built
                      ------------------
                      INITIAL GUESS DONE
                      ------------------
-------------------
DFT GRID GENERATION
-------------------

General Integration Accuracy     IntAcc      ... 4.959
Radial Grid Type                 RadialGrid  ... OptM3 with GC (2021)
Angular Grid (max. ang.)         AngularGrid ... 6 (Lebedev-590)
Angular grid pruning method      GridPruning ... 4 (adaptive)
Weight generation scheme         WeightScheme... Becke
Basis function cutoff            BFCut       ... 1.0000e-11
Integration weight cutoff        WCut        ... 1.0000e-14
Angular grids for H and He will be reduced by one unit
Partially contracted basis set               ... off
Rotationally invariant grid construction     ... off

Total number of grid points                  ...   133611
Total number of batches                      ...     2095
Average number of points per batch           ...       63
Average number of grid points per atom       ...    11134
Time for grid setup =    2.491 sec

--------------------
COSX GRID GENERATION
--------------------

GRIDX 1
-------
General Integration Accuracy     IntAcc      ... 4.020
Radial Grid Type                 RadialGrid  ... OptM3 with GC (2021)
Angular Grid (max. ang.)         AngularGrid ... 2 (Lebedev-110)
Angular grid pruning method      GridPruning ... 4 (adaptive)
Weight generation scheme         WeightScheme... Becke
Basis function cutoff            BFCut       ... 1.0000e-11
Integration weight cutoff        WCut        ... 1.0000e-14
Angular grids for H and He will be reduced by one unit
Partially contracted basis set               ... on
Rotationally invariant grid construction     ... off

Total number of grid points                  ...    14546
Total number of batches                      ...      233
Average number of points per batch           ...       62
Average number of grid points per atom       ...     1212
UseSFitting                                  ... on

GRIDX 2
-------
General Integration Accuracy     IntAcc      ... 4.338
Radial Grid Type                 RadialGrid  ... OptM3 with GC (2021)
Angular Grid (max. ang.)         AngularGrid ... 3 (Lebedev-194)
Angular grid pruning method      GridPruning ... 4 (adaptive)
Weight generation scheme         WeightScheme... Becke
Basis function cutoff            BFCut       ... 1.0000e-11
Integration weight cutoff        WCut        ... 1.0000e-14
Angular grids for H and He will be reduced by one unit
Partially contracted basis set               ... on
Rotationally invariant grid construction     ... off

Total number of grid points                  ...    31961
Total number of batches                      ...      506
Average number of points per batch           ...       63
Average number of grid points per atom       ...     2663
UseSFitting                                  ... on

GRIDX 3
-------
General Integration Accuracy     IntAcc      ... 4.871
Radial Grid Type                 RadialGrid  ... OptM3 with GC (2021)
Angular Grid (max. ang.)         AngularGrid ... 4 (Lebedev-302)
Angular grid pruning method      GridPruning ... 4 (adaptive)
Weight generation scheme         WeightScheme... Becke
Basis function cutoff            BFCut       ... 1.0000e-11
Integration weight cutoff        WCut        ... 1.0000e-14
Angular grids for H and He will be reduced by one unit
Partially contracted basis set               ... on
Rotationally invariant grid construction     ... off

Total number of grid points                  ...    62576
Total number of batches                      ...      983
Average number of points per batch           ...       63
Average number of grid points per atom       ...     5215
UseSFitting                                  ... on

Time for X-Grid setup             =    4.444 sec

--------------
SCF ITERATIONS
--------------
ITER       Energy         Delta-E        Max-DP      RMS-DP      [F,P]     Damp
               ***  Starting incremental Fock matrix formation  ***
  0   -247.1611727853   0.000000000000 0.20784849  0.00859606  0.5790760 0.7000
  1   -247.4855074392  -0.324334653900 0.11404800  0.00455702  0.2923446 0.7000
  2   -247.6364098123  -0.150902373163 0.04866240  0.00232289  0.2063361 0.7000
                               ***Turning on DIIS***
  3   -247.7435254277  -0.107115615399 0.03454519  0.00155041  0.1450144 0.7000
  4   -247.8212081568  -0.077682729036 0.02164759  0.00114966  0.1020050 0.7000
  5   -247.8759587018  -0.054750545075 0.05915177  0.00283479  0.0714171 0.0000
  6   -248.0053958203  -0.129437118423 0.00643293  0.00019127  0.0047099 0.0000
                      *** Initiating the SOSCF procedure ***
                           *** Shutting down DIIS ***
                      *** Re-Reading the Fockian *** 
                      *** Removing any level shift *** 
ITER      Energy       Delta-E        Grad      Rot      Max-DP    RMS-DP
  7   -248.00547264  -0.0000768229  0.000721  0.000721  0.001606  0.000091
               *** Restarting incremental Fock matrix formation ***
  8   -248.00550024  -0.0000276006  0.000770  0.002085  0.001587  0.000075
  9   -248.00550652  -0.0000062773  0.000249  0.000751  0.001537  0.000070
 10   -248.00550642   0.0000000962  0.000266  0.000237  0.000746  0.000032
 11   -248.00550771  -0.0000012807  0.000014  0.000026  0.000050  0.000002
 12   -248.00550771  -0.0000000009  0.000012  0.000012  0.000024  0.000001
                  ***Gradient check signals convergence***
              ***Rediagonalizing the Fockian in SOSCF/NRSCF***

               *****************************************************
               *                     SUCCESS                       *
               *           SCF CONVERGED AFTER  13 CYCLES          *
               *****************************************************

Old exchange energy                            =    -13.814450092 Eh
New exchange energy                            =    -13.814453498 Eh
Exchange energy change after final integration =     -0.000003406 Eh
Total energy after final integration           =   -248.005511118 Eh
Final COS-X integration done in                =     1.597 sec

----------------
TOTAL SCF ENERGY
----------------

Total Energy       :         -248.00551112 Eh           -6748.57305 eV

Components:
Nuclear Repulsion  :          180.57090735 Eh            4913.58419 eV
Electronic Energy  :         -428.57641846 Eh          -11662.15724 eV
One Electron Energy:         -694.08965287 Eh          -18887.13966 eV
Two Electron Energy:          265.51323440 Eh            7224.98242 eV
Max COSX asymmetry :            0.00000137 Eh               0.00004 eV

Virial components:
Potential Energy   :         -494.17316990 Eh          -13447.13559 eV
Kinetic Energy     :          246.16765878 Eh            6698.56254 eV
Virial Ratio       :            2.00746586


DFT components:
N(Alpha)           :       20.000000193258 electrons
N(Beta)            :       20.000000193258 electrons
N(Total)           :       40.000000386516 electrons
E(X)               :      -18.365506935141 Eh       
E(C)               :       -1.740640711720 Eh       
E(XC)              :      -20.106147646861 Eh       
DFET-embed. en.    :        0.000000000000 Eh       

---------------
SCF CONVERGENCE
---------------

  Last Energy change         ...   -5.0131e-09  Tolerance :   1.0000e-08
  Last MAX-Density change    ...    1.4433e-15  Tolerance :   1.0000e-07
  Last RMS-Density change    ...    5.1894e-17  Tolerance :   5.0000e-09
  Last Orbital Gradient      ...    8.7664e-07  Tolerance :   1.0000e-05
  Last Orbital Rotation      ...    8.7927e-07  Tolerance :   1.0000e-05

             **** THE GBW FILE WAS UPDATED (pbeh-3c.gbw) ****
             **** DENSITY pbeh-3c.scfp WAS UPDATED ****
             **** ENERGY FILE WAS UPDATED (pbeh-3c.en.tmp) ****
             **** THE GBW FILE WAS UPDATED (pbeh-3c.gbw) ****
             **** DENSITY pbeh-3c.scfp WAS UPDATED ****
----------------
ORBITAL ENERGIES
----------------

  NO   OCC          E(Eh)            E(eV) 
   0   2.0000     -19.446716      -529.1720 
   1   2.0000     -14.662115      -398.9764 
   2   2.0000     -10.543021      -286.8902 
   3   2.0000     -10.463700      -284.7318 
   4   2.0000     -10.439388      -284.0702 
   5   2.0000      -1.133231       -30.8368 
   6   2.0000      -1.019021       -27.7290 
   7   2.0000      -0.840331       -22.8666 
   8   2.0000      -0.768232       -20.9047 
   9   2.0000      -0.655528       -17.8378 
  10   2.0000      -0.569062       -15.4850 
  11   2.0000      -0.529739       -14.4149 
  12   2.0000      -0.520638       -14.1673 
  13   2.0000      -0.482292       -13.1238 
  14   2.0000      -0.461702       -12.5635 
  15   2.0000      -0.451454       -12.2847 
  16   2.0000      -0.441448       -12.0124 
  17   2.0000      -0.403854       -10.9894 
  18   2.0000      -0.302177        -8.2227 
  19   2.0000      -0.299137        -8.1399 
  20   0.0000       0.070365         1.9147 
  21   0.0000       0.118694         3.2298 
  22   0.0000       0.176750         4.8096 
  23   0.0000       0.188772         5.1368 
  24   0.0000       0.201931         5.4948 
  25   0.0000       0.214182         5.8282 
  26   0.0000       0.220439         5.9984 
  27   0.0000       0.231116         6.2890 
  28   0.0000       0.232696         6.3320 
  29   0.0000       0.271659         7.3922 
  30   0.0000       0.356759         9.7079 
  31   0.0000       0.456129        12.4119 
  32   0.0000       0.489721        13.3260 
  33   0.0000       0.510173        13.8825 
  34   0.0000       0.516762        14.0618 
  35   0.0000       0.528617        14.3844 
  36   0.0000       0.571847        15.5608 
  37   0.0000       0.596885        16.2421 
  38   0.0000       0.657785        17.8993 
  39   0.0000       0.691648        18.8207 
  40   0.0000       0.725032        19.7291 
  41   0.0000       0.802895        21.8479 
  42   0.0000       0.869706        23.6659 
  43   0.0000       0.879749        23.9392 
  44   0.0000       0.938398        25.5351 
  45   0.0000       0.980496        26.6807 
  46   0.0000       1.021173        27.7875 
  47   0.0000       1.031252        28.0618 
  48   0.0000       1.032466        28.0948 
  49   0.0000       1.056042        28.7364 
  50   0.0000       1.057372        28.7725 
  51   0.0000       1.075331        29.2612 
  52   0.0000       1.139039        30.9948 
  53   0.0000       1.163702        31.6659 
  54   0.0000       1.264012        34.3955 
  55   0.0000       1.341090        36.4929 
  56   0.0000       1.386014        37.7154 
  57   0.0000       1.409469        38.3536 
  58   0.0000       1.466005        39.8920 
  59   0.0000       1.594264        43.3821 
  60   0.0000       1.605552        43.6893 
  61   0.0000       1.799793        48.9749 
  62   0.0000       1.835332        49.9419 
  63   0.0000       1.876292        51.0565 
  64   0.0000       1.883378        51.2493 
  65   0.0000       1.924861        52.3781 
  66   0.0000       1.954490        53.1844 
  67   0.0000       2.025645        55.1206 
  68   0.0000       2.138026        58.1787 
  69   0.0000       2.143063        58.3157 
  70   0.0000       2.155959        58.6666 
  71   0.0000       2.268705        61.7346 
  72   0.0000       2.293092        62.3982 
  73   0.0000       2.322388        63.1954 
  74   0.0000       2.396750        65.2189 
  75   0.0000       2.400580        65.3231 
  76   0.0000       2.464714        67.0683 
  77   0.0000       2.477057        67.4042 
  78   0.0000       2.618987        71.2663 
  79   0.0000       2.699550        73.4585 
  80   0.0000       2.759039        75.0773 
  81   0.0000       2.944603        80.1267 
  82   0.0000       3.026722        82.3613 
  83   0.0000       3.230815        87.9149 
  84   0.0000      13.655331       371.5804 
  85   0.0000      13.765400       374.5756 
  86   0.0000      14.042569       382.1177 
  87   0.0000      19.275353       524.5090 
  88   0.0000      25.739978       700.4204 

                    ********************************
                    * MULLIKEN POPULATION ANALYSIS *
                    ********************************

-----------------------
MULLIKEN ATOMIC CHARGES
-----------------------
   0 C :   -0.746532
   1 H :    0.203950
   2 H :    0.258150
   3 H :    0.258431
   4 C :    0.521631
   5 O :   -0.432794
   6 N :   -0.626465
   7 H :    0.353113
   8 C :   -0.495207
   9 H :    0.270941
  10 H :    0.217508
  11 H :    0.217275
Sum of atomic charges:    0.0000000

--------------------------------
MULLIKEN REDUCED ORBITAL CHARGES
--------------------------------
  0 C s       :     3.404631  s :     3.404631
      pz      :     1.069895  p :     3.307806
      px      :     1.059619
      py      :     1.178293
      dz2     :     0.005610  d :     0.034094
      dxz     :     0.006872
      dyz     :     0.008093
      dx2y2   :     0.010993
      dxy     :     0.002526
  1 H s       :     0.796050  s :     0.796050
  2 H s       :     0.741850  s :     0.741850
  3 H s       :     0.741569  s :     0.741569
  4 C s       :     2.971811  s :     2.971811
      pz      :     0.796411  p :     2.383702
      px      :     0.822999
      py      :     0.764292
      dz2     :     0.019369  d :     0.122856
      dxz     :     0.049414
      dyz     :     0.011042
      dx2y2   :     0.016707
      dxy     :     0.026325
  5 O s       :     3.764075  s :     3.764075
      pz      :     1.777334  p :     4.639663
      px      :     1.372718
      py      :     1.489610
      dz2     :     0.003091  d :     0.029057
      dxz     :     0.006979
      dyz     :     0.000143
      dx2y2   :     0.008308
      dxy     :     0.010536
  6 N s       :     3.530036  s :     3.530036
      pz      :     1.167948  p :     4.061415
      px      :     1.220404
      py      :     1.673063
      dz2     :     0.011374  d :     0.035014
      dxz     :     0.007539
      dyz     :     0.005951
      dx2y2   :     0.008498
      dxy     :     0.001653
  7 H s       :     0.646887  s :     0.646887
  8 C s       :     3.338677  s :     3.338677
      pz      :     0.893944  p :     3.105610
      px      :     1.111074
      py      :     1.100593
      dz2     :     0.010989  d :     0.050920
      dxz     :     0.009778
      dyz     :     0.015211
      dx2y2   :     0.011599
      dxy     :     0.003343
  9 H s       :     0.729059  s :     0.729059
 10 H s       :     0.782492  s :     0.782492
 11 H s       :     0.782725  s :     0.782725


                     *******************************
                     * LOEWDIN POPULATION ANALYSIS *
                     *******************************

----------------------
LOEWDIN ATOMIC CHARGES
----------------------
   0 C :   -0.389782
   1 H :    0.122749
   2 H :    0.156418
   3 H :    0.156456
   4 C :    0.104337
   5 O :   -0.288126
   6 N :   -0.250879
   7 H :    0.251326
   8 C :   -0.260979
   9 H :    0.157088
  10 H :    0.120664
  11 H :    0.120727

-------------------------------
LOEWDIN REDUCED ORBITAL CHARGES
-------------------------------
  0 C s       :     2.962415  s :     2.962415
      pz      :     1.115030  p :     3.363643
      px      :     1.095337
      py      :     1.153275
      dz2     :     0.011123  d :     0.063724
      dxz     :     0.014498
      dyz     :     0.014564
      dx2y2   :     0.019468
      dxy     :     0.004071
  1 H s       :     0.877251  s :     0.877251
  2 H s       :     0.843582  s :     0.843582
  3 H s       :     0.843544  s :     0.843544
  4 C s       :     2.826409  s :     2.826409
      pz      :     0.969115  p :     2.790494
      px      :     1.028800
      py      :     0.792579
      dz2     :     0.042232  d :     0.278760
      dxz     :     0.120258
      dyz     :     0.022528
      dx2y2   :     0.038391
      dxy     :     0.055351
  5 O s       :     3.526005  s :     3.526005
      pz      :     1.759280  p :     4.707064
      px      :     1.462596
      py      :     1.485188
      dz2     :     0.007141  d :     0.055056
      dxz     :     0.013688
      dyz     :     0.000228
      dx2y2   :     0.019741
      dxy     :     0.014258
  6 N s       :     3.107919  s :     3.107919
      pz      :     1.232113  p :     4.059959
      px      :     1.201780
      py      :     1.626066
      dz2     :     0.028377  d :     0.083001
      dxz     :     0.022876
      dyz     :     0.012971
      dx2y2   :     0.014290
      dxy     :     0.004487
  7 H s       :     0.748674  s :     0.748674
  8 C s       :     2.937805  s :     2.937805
      pz      :     0.980645  p :     3.224301
      px      :     1.122649
      py      :     1.121007
      dz2     :     0.022551  d :     0.098873
      dxz     :     0.020178
      dyz     :     0.029928
      dx2y2   :     0.020264
      dxy     :     0.005952
  9 H s       :     0.842912  s :     0.842912
 10 H s       :     0.879336  s :     0.879336
 11 H s       :     0.879273  s :     0.879273


                      *****************************
                      * MAYER POPULATION ANALYSIS *
                      *****************************

  NA   - Mulliken gross atomic population
  ZA   - Total nuclear charge
  QA   - Mulliken gross atomic charge
  VA   - Mayer's total valence
  BVA  - Mayer's bonded valence
  FA   - Mayer's free valence

  ATOM       NA         ZA         QA         VA         BVA        FA
  0 C      6.7465     6.0000    -0.7465     3.6882     3.6882    -0.0000
  1 H      0.7960     1.0000     0.2040     0.9171     0.9171     0.0000
  2 H      0.7418     1.0000     0.2582     0.8993     0.8993    -0.0000
  3 H      0.7416     1.0000     0.2584     0.8994     0.8994     0.0000
  4 C      5.4784     6.0000     0.5216     4.0124     4.0124     0.0000
  5 O      8.4328     8.0000    -0.4328     2.1730     2.1730    -0.0000
  6 N      7.6265     7.0000    -0.6265     3.0102     3.0102     0.0000
  7 H      0.6469     1.0000     0.3531     0.8487     0.8487    -0.0000
  8 C      6.4952     6.0000    -0.4952     3.6823     3.6823     0.0000
  9 H      0.7291     1.0000     0.2709     0.9152     0.9152     0.0000
 10 H      0.7825     1.0000     0.2175     0.9086     0.9086    -0.0000
 11 H      0.7827     1.0000     0.2173     0.9089     0.9089    -0.0000

  Mayer bond orders larger than 0.100000
B(  0-C ,  1-H ) :   0.9230 B(  0-C ,  2-H ) :   0.9105 B(  0-C ,  3-H ) :   0.9106 
B(  0-C ,  4-C ) :   0.9246 B(  4-C ,  5-O ) :   1.9931 B(  4-C ,  6-N ) :   1.1362 
B(  6-N ,  7-H ) :   0.8286 B(  6-N ,  8-C ) :   0.9501 B(  8-C ,  9-H ) :   0.8942 
B(  8-C , 10-H ) :   0.9222 B(  8-C , 11-H ) :   0.9224 

-------
TIMINGS
-------

Total SCF time: 0 days 0 hours 1 min 17 sec 

Total time                  ....      77.485 sec
Sum of individual times     ....      69.132 sec  ( 89.2%)

Fock matrix formation       ....      55.075 sec  ( 71.1%)
  Split-RI-J                ....       8.164 sec  ( 14.8% of F)
  Chain of spheres X        ....      14.122 sec  ( 25.6% of F)
  XC integration            ....      17.355 sec  ( 31.5% of F)
    Basis function eval.    ....       2.140 sec  ( 12.3% of XC)
    Density eval.           ....       1.285 sec  (  7.4% of XC)
    XC-Functional eval.     ....       1.121 sec  (  6.5% of XC)
    XC-Potential eval.      ....       0.569 sec  (  3.3% of XC)
Diagonalization             ....       1.604 sec  (  2.1%)
Density matrix formation    ....       0.020 sec  (  0.0%)
Population analysis         ....       0.688 sec  (  0.9%)
Initial guess               ....       0.164 sec  (  0.2%)
Orbital Transformation      ....       0.000 sec  (  0.0%)
Orbital Orthonormalization  ....       0.000 sec  (  0.0%)
DIIS solution               ....       3.678 sec  (  4.7%)
SOSCF solution              ....       0.969 sec  (  1.3%)
Grid generation             ....       6.935 sec  (  8.9%)

Maximum memory used throughout the entire SCF-calculation: 49.8 MB


-------------------------------------------------------------------------------
                          DFT DISPERSION CORRECTION                            
                                                                               
                              DFTD3 V3.1  Rev 1                                
                          USING Becke-Johnson damping                          
-------------------------------------------------------------------------------
The PBEh-3c composite method is recognized
Using three-body term ABC
Active option DFTDOPT                   ...         4   

molecular C6(AA) [au] = 1110.136246 


            DFT-D V3
 parameters
 s6 scaling factor         :     1.0000 
 a1 scaling factor         :     0.4860 
 s8 scaling factor         :     0.0000 
 a2 scaling factor         :     4.5000 
 Damping factor alpha9(ATM):    16.0000 
 ad hoc parameters k1-k3   :    16.0000     1.3333    -4.0000 

 Edisp/kcal,au: -2.784367315938  -0.004437171284 
 E6   /kcal   :  -2.789866096 
 E8   /kcal   :  -0.000000000 
 E6(ABC)      :   0.005498780 
 % E8         :   0.000000000 
 % E6(ABC)    :  -0.197487599 

-------------------------   ----------------
Dispersion correction           -0.004437171
-------------------------   ----------------

------------------   -----------------
gCP correction             0.021017984
------------------   -----------------

-------------------------   --------------------
FINAL SINGLE POINT ENERGY      -247.988930305713
-------------------------   --------------------


                            ***************************************
                            *     ORCA property calculations      *
                            ***************************************

                                    ---------------------
                                    Active property flags
                                    ---------------------
   (+) Dipole Moment


------------------------------------------------------------------------------
                       ORCA ELECTRIC PROPERTIES CALCULATION
------------------------------------------------------------------------------

Dipole Moment Calculation                       ... on
Quadrupole Moment Calculation                   ... off
Polarizability Calculation                      ... off
GBWName                                         ... pbeh-3c.gbw
Electron density                                ... pbeh-3c.scfp
The origin for moment calculation is the CENTER OF MASS  = (-0.602099, -0.061078  0.223552)

-------------
DIPOLE MOMENT
-------------
                                X             Y             Z
Electronic contribution:     -2.14642      -0.25313       0.92734
Nuclear contribution   :      3.56810       0.37648      -1.37969
                        -----------------------------------------
Total Dipole Moment    :      1.42168       0.12335      -0.45236
                        -----------------------------------------
Magnitude (a.u.)       :      1.49700
Magnitude (Debye)      :      3.80507



--------------------
Rotational spectrum 
--------------------
 
Rotational constants in cm-1:     0.332783     0.130091     0.096895 
Rotational constants in MHz :  9976.595567  3900.017951  2904.836735 

 Dipole components along the rotational axes: 
x,y,z [a.u.] :    -0.338915    -1.458128     0.002081 
x,y,z [Debye]:    -0.861454    -3.706268     0.005290 

 

Timings for individual modules:

Sum of individual times         ...       82.125 sec (=   1.369 min)
GTO integral calculation        ...        3.725 sec (=   0.062 min)   4.5 %
SCF iterations                  ...       78.400 sec (=   1.307 min)  95.5 %
                             ****ORCA TERMINATED NORMALLY****
TOTAL RUN TIME: 0 days 0 hours 1 minutes 27 seconds 33 msec
