
                                 *****************
                                 * O   R   C   A *
                                 *****************

                                            #,                                       
                                            ###                                      
                                            ####                                     
                                            #####                                    
                                            ######                                   
                                           ########,                                 
                                     ,,################,,,,,                         
                               ,,#################################,,                 
                          ,,##########################################,,             
                       ,#########################################, ''#####,          
                    ,#############################################,,   '####,        
                  ,##################################################,,,,####,       
                ,###########''''           ''''###############################       
              ,#####''   ,,,,##########,,,,          '''####'''          '####       
            ,##' ,,,,###########################,,,                        '##       
           ' ,,###''''                  '''############,,,                           
         ,,##''                                '''############,,,,        ,,,,,,###''
      ,#''                                            '''#######################'''  
     '                                                          ''''####''''         
             ,#######,   #######,   ,#######,      ##                                
            ,#'     '#,  ##    ##  ,#'     '#,    #''#        ######   ,####,        
            ##       ##  ##   ,#'  ##            #'  '#       #        #'  '#        
            ##       ##  #######   ##           ,######,      #####,   #    #        
            '#,     ,#'  ##    ##  '#,     ,#' ,#      #,         ##   #,  ,#        
             '#######'   ##     ##  '#######'  #'      '#     #####' # '####'        



                  #######################################################
                  #                        -***-                        #
                  #          Department of theory and spectroscopy      #
                  #    Directorship and core code : Frank Neese         #
                  #        Max Planck Institute fuer Kohlenforschung    #
                  #                Kaiser Wilhelm Platz 1               #
                  #                 D-45470 Muelheim/Ruhr               #
                  #                      Germany                        #
                  #                                                     #
                  #                  All rights reserved                #
                  #                        -***-                        #
                  #######################################################


                         Program Version 5.0.3 -  RELEASE  -


 With contributions from (in alphabetic order):
   Daniel Aravena         : Magnetic Suceptibility
   Michael Atanasov       : Ab Initio Ligand Field Theory (pilot matlab implementation)
   Alexander A. Auer      : GIAO ZORA, VPT2 properties, NMR spectrum
   Ute Becker             : Parallelization
   Giovanni Bistoni       : ED, misc. LED, open-shell LED, HFLD
   Martin Brehm           : Molecular dynamics
   Dmytro Bykov           : SCF Hessian
   Vijay G. Chilkuri      : MRCI spin determinant printing, contributions to CSF-ICE
   Dipayan Datta          : RHF DLPNO-CCSD density
   Achintya Kumar Dutta   : EOM-CC, STEOM-CC
   Dmitry Ganyushin       : Spin-Orbit,Spin-Spin,Magnetic field MRCI
   Miquel Garcia          : C-PCM and meta-GGA Hessian, CC/C-PCM, Gaussian charge scheme
   Yang Guo               : DLPNO-NEVPT2, F12-NEVPT2, CIM, IAO-localization
   Andreas Hansen         : Spin unrestricted coupled pair/coupled cluster methods
   Benjamin Helmich-Paris : MC-RPA, TRAH-SCF, COSX integrals
   Lee Huntington         : MR-EOM, pCC
   Robert Izsak           : Overlap fitted RIJCOSX, COSX-SCS-MP3, EOM
   Marcus Kettner         : VPT2
   Christian Kollmar      : KDIIS, OOCD, Brueckner-CCSD(T), CCSD density, CASPT2, CASPT2-K
   Simone Kossmann        : Meta GGA functionals, TD-DFT gradient, OOMP2, MP2 Hessian
   Martin Krupicka        : Initial AUTO-CI
   Lucas Lang             : DCDCAS
   Marvin Lechner         : AUTO-CI (C++ implementation), FIC-MRCC
   Dagmar Lenk            : GEPOL surface, SMD
   Dimitrios Liakos       : Extrapolation schemes; Compound Job, initial MDCI parallelization
   Dimitrios Manganas     : Further ROCIS development; embedding schemes
   Dimitrios Pantazis     : SARC Basis sets
   Anastasios Papadopoulos: AUTO-CI, single reference methods and gradients
   Taras Petrenko         : DFT Hessian,TD-DFT gradient, ASA, ECA, R-Raman, ABS, FL, XAS/XES, NRVS
   Peter Pinski           : DLPNO-MP2, DLPNO-MP2 Gradient
   Christoph Reimann      : Effective Core Potentials
   Marius Retegan         : Local ZFS, SOC
   Christoph Riplinger    : Optimizer, TS searches, QM/MM, DLPNO-CCSD(T), (RO)-DLPNO pert. Triples
   Tobias Risthaus        : Range-separated hybrids, TD-DFT gradient, RPA, STAB
   Michael Roemelt        : Original ROCIS implementation
   Masaaki Saitow         : Open-shell DLPNO-CCSD energy and density
   Barbara Sandhoefer     : DKH picture change effects
   Avijit Sen             : IP-ROCIS
   Kantharuban Sivalingam : CASSCF convergence, NEVPT2, FIC-MRCI
   Bernardo de Souza      : ESD, SOC TD-DFT
   Georgi Stoychev        : AutoAux, RI-MP2 NMR, DLPNO-MP2 response
   Willem Van den Heuvel  : Paramagnetic NMR
   Boris Wezisla          : Elementary symmetry handling
   Frank Wennmohs         : Technical directorship


 We gratefully acknowledge several colleagues who have allowed us to
 interface, adapt or use parts of their codes:
   Stefan Grimme, W. Hujo, H. Kruse, P. Pracht,  : VdW corrections, initial TS optimization,
                  C. Bannwarth, S. Ehlert          DFT functionals, gCP, sTDA/sTD-DF
   Ed Valeev, F. Pavosevic, A. Kumar             : LibInt (2-el integral package), F12 methods
   Garnet Chan, S. Sharma, J. Yang, R. Olivares  : DMRG
   Ulf Ekstrom                                   : XCFun DFT Library
   Mihaly Kallay                                 : mrcc  (arbitrary order and MRCC methods)
   Jiri Pittner, Ondrej Demel                    : Mk-CCSD
   Frank Weinhold                                : gennbo (NPA and NBO analysis)
   Christopher J. Cramer and Donald G. Truhlar   : smd solvation model
   Lars Goerigk                                  : TD-DFT with DH, B97 family of functionals
   V. Asgeirsson, H. Jonsson                     : NEB implementation
   FAccTs GmbH                                   : IRC, NEB, NEB-TS, DLPNO-Multilevel, CI-OPT
                                                   MM, QMMM, 2- and 3-layer-ONIOM, Crystal-QMMM,
                                                   LR-CPCM, SF, NACMEs, symmetry and pop. for TD-DFT,
                                                   nearIR, NL-DFT gradient (VV10), updates on ESD,
                                                   ML-optimized integration grids
   S Lehtola, MJT Oliveira, MAL Marques          : LibXC Library
   Liviu Ungur et al                             : ANISO software


 Your calculation uses the libint2 library for the computation of 2-el integrals
 For citations please refer to: http://libint.valeyev.net

 Your ORCA version has been built with support for libXC version: 5.1.0
 For citations please refer to: https://tddft.org/programs/libxc/

 This ORCA versions uses:
   CBLAS   interface :  Fast vector & matrix operations
   LAPACKE interface :  Fast linear algebra routines
   SCALAPACK package :  Parallel linear algebra routines
   Shared memory     :  Shared parallel matrices
   BLAS/LAPACK       :  OpenBLAS 0.3.15  USE64BITINT DYNAMIC_ARCH NO_AFFINITY Haswell SINGLE_THREADED
        Core in use  :  Haswell
   Copyright (c) 2011-2014, The OpenBLAS Project




***************************************
The coordinates will be read from file: 2N.xyz
***************************************


Your calculation utilizes the geometrical counterpoise correction gCP
Please cite in your paper:
H.Kruse, S. Grimme J.Chem.Phys., 136, (2012), 154101 
   

Your calculation utilizes the atom-pairwise dispersion correction
with the Becke-Johnson damping scheme (D3BJ)
Cite in your paper:
S.Grimme, S.Ehrlich, L.Goerigk, J Comput Chem, (2011), 32, 1456–1465 
S.Grimme, J.Antony, S.Ehrlich and H.Krieg, J.Chem.Phys., 132, (2010), 154104 
   

Your calculation employs the composite approach PBEh-3c.
Please cite in your paper:
S. Grimme, J. G. Brandenburg, C. Bannwarth, A. Hansen J.Chem.Phys., 143, (2015), 054107 
   

================================================================================

----- Orbital basis set information -----
Your calculation utilizes the basis: def2-mSVP

----- AuxJ basis set information -----
Your calculation utilizes the auxiliary basis: def2/J
   F. Weigend, Phys. Chem. Chem. Phys. 8, 1057 (2006).

================================================================================
                                        WARNINGS
                       Please study these warnings very carefully!
================================================================================


INFO   : the flag for use of the SHARK integral package has been found!

================================================================================
                                       INPUT FILE
================================================================================
NAME = pbeh-3c.inp
|  1> ! PBEh-3c def2/J TightSCF DefGrid3
|  2> 
|  3> %maxcore 60000
|  4> 
|  5> %pal
|  6> nprocs 4
|  7> end
|  8> 
|  9> *xyzfile 0 1 2N.xyz
| 10> 
| 11>                          ****END OF INPUT****
================================================================================

                       ****************************
                       * Single Point Calculation *
                       ****************************

---------------------------------
CARTESIAN COORDINATES (ANGSTROEM)
---------------------------------
  N     -2.487166    0.174617   -0.120451
  H     -1.493607    0.124901   -0.322120
  H     -2.795487    1.088367   -0.423437
  H     -2.939264   -0.491707   -0.730841
  C      0.890151   -0.015014   -0.537022
  Cl     1.930476   -0.169816   -1.881413
  C      1.635581   -0.130506    0.728037
  H      2.727688   -0.135668    0.707958
  H      1.256034    0.629113    1.417068
  H      1.275594   -1.074287    1.162220

----------------------------
CARTESIAN COORDINATES (A.U.)
----------------------------
  NO LB      ZA    FRAG     MASS         X           Y           Z
   0 N     7.0000    0    14.007   -4.700062    0.329978   -0.227619
   1 H     1.0000    0     1.008   -2.822507    0.236029   -0.608718
   2 H     1.0000    0     1.008   -5.282704    2.056715   -0.800180
   3 H     1.0000    0     1.008   -5.554403   -0.929192   -1.381090
   4 C     6.0000    0    12.011    1.682142   -0.028372   -1.014824
   5 Cl   17.0000    0    35.453    3.648070   -0.320906   -3.555356
   6 C     6.0000    0    12.011    3.090800   -0.246621    1.375790
   7 H     1.0000    0     1.008    5.154582   -0.256375    1.337847
   8 H     1.0000    0     1.008    2.373560    1.188851    2.677871
   9 H     1.0000    0     1.008    2.410523   -2.030109    2.196278

--------------------------------
INTERNAL COORDINATES (ANGSTROEM)
--------------------------------
 N      0   0   0     0.000000000000     0.00000000     0.00000000
 H      1   0   0     1.015037904576     0.00000000     0.00000000
 H      1   2   0     1.010841813666   106.45620585     0.00000000
 H      1   2   3     1.010423959038   106.59739345   113.02523924
 C      2   1   3     2.397511280659   173.66390122   116.72567462
 Cl     5   2   1     1.706935172556   132.98938743   171.30555015
 C      5   2   1     1.472880241087   115.51758781   358.69232310
 H      7   5   2     1.092303350734   119.37967752   183.79163845
 H      7   5   2     1.093545407409   108.12301148   312.19831344
 H      7   5   2     1.099467739326   103.93283350    61.75078714

---------------------------
INTERNAL COORDINATES (A.U.)
---------------------------
 N      0   0   0     0.000000000000     0.00000000     0.00000000
 H      1   0   0     1.918143655198     0.00000000     0.00000000
 H      1   2   0     1.910214192545   106.45620585     0.00000000
 H      1   2   3     1.909424561735   106.59739345   113.02523924
 C      2   1   3     4.530639723432   173.66390122   116.72567462
 Cl     5   2   1     3.225640004489   132.98938743   171.30555015
 C      5   2   1     2.783340283719   115.51758781   358.69232310
 H      7   5   2     2.064154188052   119.37967752   183.79163845
 H      7   5   2     2.066501335011   108.12301148   312.19831344
 H      7   5   2     2.077692920409   103.93283350    61.75078714

---------------------
BASIS SET INFORMATION
---------------------
There are 4 groups of distinct atoms

 Group   1 Type N   : 8s4p1d contracted to 4s2p1d pattern {5111/31/1}
 Group   2 Type H   : 4s contracted to 2s pattern {31}
 Group   3 Type C   : 8s4p1d contracted to 4s2p1d pattern {5111/31/1}
 Group   4 Type Cl  : 10s7p1d contracted to 4s3p1d pattern {5311/511/1}

Atom   0N    basis set group =>   1
Atom   1H    basis set group =>   2
Atom   2H    basis set group =>   2
Atom   3H    basis set group =>   2
Atom   4C    basis set group =>   3
Atom   5Cl   basis set group =>   4
Atom   6C    basis set group =>   3
Atom   7H    basis set group =>   2
Atom   8H    basis set group =>   2
Atom   9H    basis set group =>   2
---------------------------------
AUXILIARY/J BASIS SET INFORMATION
---------------------------------
There are 4 groups of distinct atoms

 Group   1 Type N   : 12s5p4d2f1g contracted to 6s4p3d1f1g pattern {711111/2111/211/2/1}
 Group   2 Type H   : 5s2p1d contracted to 3s1p1d pattern {311/2/1}
 Group   3 Type C   : 12s5p4d2f1g contracted to 6s4p3d1f1g pattern {711111/2111/211/2/1}
 Group   4 Type Cl  : 14s5p5d2f1g contracted to 8s4p3d1f1g pattern {71111111/2111/311/2/1}

Atom   0N    basis set group =>   1
Atom   1H    basis set group =>   2
Atom   2H    basis set group =>   2
Atom   3H    basis set group =>   2
Atom   4C    basis set group =>   3
Atom   5Cl   basis set group =>   4
Atom   6C    basis set group =>   3
Atom   7H    basis set group =>   2
Atom   8H    basis set group =>   2
Atom   9H    basis set group =>   2


           ************************************************************
           *        Program running with 4 parallel MPI-processes     *
           *              working on a common directory               *
           ************************************************************
------------------------------------------------------------------------------
                           ORCA GTO INTEGRAL CALCULATION
                           -- RI-GTO INTEGRALS CHOSEN --
------------------------------------------------------------------------------
------------------------------------------------------------------------------
                   ___                                                        
                  /   \      - P O W E R E D   B Y -                         
                 /     \                                                     
                 |  |  |   _    _      __       _____    __    __             
                 |  |  |  | |  | |    /  \     |  _  \  |  |  /  |          
                  \  \/   | |  | |   /    \    | | | |  |  | /  /          
                 / \  \   | |__| |  /  /\  \   | |_| |  |  |/  /          
                |  |  |   |  __  | /  /__\  \  |    /   |      \           
                |  |  |   | |  | | |   __   |  |    \   |  |\   \          
                \     /   | |  | | |  |  |  |  | |\  \  |  | \   \       
                 \___/    |_|  |_| |__|  |__|  |_| \__\ |__|  \__/        
                                                                              
                      - O R C A' S   B I G   F R I E N D -                    
                                      &                                       
                       - I N T E G R A L  F E E D E R -                       
                                                                              
 v1 FN, 2020, v2 2021                                                         
------------------------------------------------------------------------------


Reading SHARK input file pbeh-3c.SHARKINP.tmp ... ok
----------------------
SHARK INTEGRAL PACKAGE
----------------------

Number of atoms                             ...     10
Number of basis functions                   ...     75
Number of shells                            ...     41
Maximum angular momentum                    ...      2
Integral batch strategy                     ... SHARK/LIBINT Hybrid
RI-J (if used) integral strategy            ... SPLIT-RIJ (Revised 2003 algorithm where possible)
Printlevel                                  ...      1
Contraction scheme used                     ... SEGMENTED contraction
Coulomb Range Separation                    ... NOT USED
Exchange Range Separation                   ... NOT USED
Finite Nucleus Model                        ... NOT USED
Auxiliary Coulomb fitting basis             ... AVAILABLE
   # of basis functions in Aux-J            ...    264
   # of shells in Aux-J                     ...     92
   Maximum angular momentum in Aux-J        ...      4
Auxiliary J/K fitting basis                 ... NOT available
Auxiliary Correlation fitting basis         ... NOT available
Auxiliary 'external' fitting basis          ... NOT available
Integral threshold                          ...     2.500000e-11
Primitive cut-off                           ...     2.500000e-12
Primitive pair pre-selection threshold      ...     2.500000e-12

Calculating pre-screening integrals         ... done (  0.1 sec) Dimension = 41
Organizing shell pair data                  ... done (  0.5 sec)
Shell pair information
Total number of shell pairs                 ...       861
Shell pairs after pre-screening             ...       772
Total number of primitive shell pairs       ...      3401
Primitive shell pairs kept                  ...      2206
          la=0 lb=0:    352 shell pairs
          la=1 lb=0:    232 shell pairs
          la=1 lb=1:     43 shell pairs
          la=2 lb=0:    100 shell pairs
          la=2 lb=1:     35 shell pairs
          la=2 lb=2:     10 shell pairs

Calculating one electron integrals          ... done (  0.0 sec)
Calculating RI/J V-Matrix + Cholesky decomp.... done (  0.4 sec)
Calculating Nuclear repulsion               ... done (  0.0 sec) ENN=    139.625959139289 Eh

SHARK setup successfully completed in   1.3 seconds

Maximum memory used throughout the entire GTOINT-calculation: 9.5 MB


           ************************************************************
           *        Program running with 4 parallel MPI-processes     *
           *              working on a common directory               *
           ************************************************************
-------------------------------------------------------------------------------
                                 ORCA SCF
-------------------------------------------------------------------------------

------------
SCF SETTINGS
------------
Hamiltonian:
 Density Functional     Method          .... DFT(GTOs)
 Exchange Functional    Exchange        .... PBE
   PBE kappa parameter   XKappa         ....  1.024500
   PBE mue parameter    XMuePBE         ....  0.123457
 Correlation Functional Correlation     .... PBE
   PBE beta parameter  CBetaPBE         ....  0.030000
 LDA part of GGA corr.  LDAOpt          .... PW91-LDA
 Gradients option       PostSCFGGA      .... off
 Hybrid DFT is turned on
   Fraction HF Exchange ScalHFX         ....  0.420000
   Scaling of DF-GGA-X  ScalDFX         ....  0.580000
   Scaling of DF-GGA-C  ScalDFC         ....  1.000000
   Scaling of DF-LDA-C  ScalLDAC        ....  1.000000
   Perturbative correction              ....  0.000000
   Density functional embedding theory  .... OFF
 RI-approximation to the Coulomb term is turned on
   Number of AuxJ basis functions       .... 264
   RIJ-ON(X) (HFX calculated with O(N)) .... on
   Number of AuxJ basis functions       .... 264
   RIJ-COSX (HFX calculated with COS-X)).... on


General Settings:
 Integral files         IntName         .... pbeh-3c
 Hartree-Fock type      HFTyp           .... RHF
 Total Charge           Charge          ....    0
 Multiplicity           Mult            ....    1
 Number of Electrons    NEL             ....   42
 Basis Dimension        Dim             ....   75
 Nuclear Repulsion      ENuc            ....    139.6259591393 Eh

Convergence Acceleration:
 DIIS                   CNVDIIS         .... on
   Start iteration      DIISMaxIt       ....    12
   Startup error        DIISStart       ....  0.200000
   # of expansion vecs  DIISMaxEq       ....     5
   Bias factor          DIISBfac        ....   1.050
   Max. coefficient     DIISMaxC        ....  10.000
 Trust-Rad. Augm. Hess. CNVTRAH         .... auto
   Auto Start mean grad. ratio tolernc. ....  1.125000
   Auto Start start iteration           ....    20
   Auto Start num. interpolation iter.  ....    10
   Max. Number of Micro iterations      ....    16
   Max. Number of Macro iterations      .... Maxiter - #DIIS iter
   Number of Davidson start vectors     ....     2
   Converg. threshold I  (grad. norm)   ....   1.000e-05
   Converg. threshold II (energy diff.) ....   1.000e-08
   Grad. Scal. Fac. for Micro threshold ....   0.100
   Minimum threshold for Micro iter.    ....   0.010
   NR start threshold (gradient norm)   ....   0.001
   Initial trust radius                 ....   0.400
   Minimum AH scaling param. (alpha)    ....   1.000
   Maximum AH scaling param. (alpha)    .... 1000.000
   Orbital update algorithm             .... Taylor
   White noise on init. David. guess    .... on
   Maximum white noise                  ....   0.010
   Quad. conv. algorithm                .... NR
   COSX micro iterations for RIJONX calc.... off
 SOSCF                  CNVSOSCF        .... on
   Start iteration      SOSCFMaxIt      ....   150
   Startup grad/error   SOSCFStart      ....  0.003300
 Level Shifting         CNVShift        .... on
   Level shift para.    LevelShift      ....    0.2500
   Turn off err/grad.   ShiftErr        ....    0.0010
 Zerner damping         CNVZerner       .... off
 Static damping         CNVDamp         .... on
   Fraction old density DampFac         ....    0.7000
   Max. Damping (<1)    DampMax         ....    0.9800
   Min. Damping (>=0)   DampMin         ....    0.0000
   Turn off err/grad.   DampErr         ....    0.1000
 Fernandez-Rico         CNVRico         .... off

SCF Procedure:
 Maximum # iterations   MaxIter         ....   125
 SCF integral mode      SCFMode         .... Direct
   Integral package                     .... SHARK and LIBINT hybrid scheme
 Reset frequency        DirectResetFreq ....    20
 Integral Threshold     Thresh          ....  2.500e-11 Eh
 Primitive CutOff       TCut            ....  2.500e-12 Eh

Convergence Tolerance:
 Convergence Check Mode ConvCheckMode   .... Total+1el-Energy
 Convergence forced     ConvForced      .... 0
 Energy Change          TolE            ....  1.000e-08 Eh
 1-El. energy change                    ....  1.000e-05 Eh
 Orbital Gradient       TolG            ....  1.000e-05
 Orbital Rotation angle TolX            ....  1.000e-05
 DIIS Error             TolErr          ....  5.000e-07


Diagonalization of the overlap matrix:
Smallest eigenvalue                        ... 9.203e-03
Time for diagonalization                   ...    0.001 sec
Threshold for overlap eigenvalues          ... 1.000e-08
Number of eigenvalues below threshold      ... 0
Time for construction of square roots      ...    0.003 sec
Total time needed                          ...    0.004 sec

--------------------------------
INITIAL GUESS: MINIMAL BASIS EHT
--------------------------------
The minimal basis has 30 functions
EHT matrix was diagonalized
Basis set overlap was calculated now projecting the orbitals
Using GuessMode=FMatrix for the initial guess
C*T matrix was formed
Effective Fockian was calculated
Effective Fockian was diagonalized
Initial density was built
                      ------------------
                      INITIAL GUESS DONE
                      ------------------
-------------------
DFT GRID GENERATION
-------------------

General Integration Accuracy     IntAcc      ... 4.959
Radial Grid Type                 RadialGrid  ... OptM3 with GC (2021)
Angular Grid (max. ang.)         AngularGrid ... 6 (Lebedev-590)
Angular grid pruning method      GridPruning ... 4 (adaptive)
Weight generation scheme         WeightScheme... Becke
Basis function cutoff            BFCut       ... 1.0000e-11
Integration weight cutoff        WCut        ... 1.0000e-14
Angular grids for H and He will be reduced by one unit
Partially contracted basis set               ... off
Rotationally invariant grid construction     ... off

Total number of grid points                  ...   113168
Total number of batches                      ...     1774
Average number of points per batch           ...       63
Average number of grid points per atom       ...    11317
Time for grid setup =    1.690 sec

--------------------
COSX GRID GENERATION
--------------------

GRIDX 1
-------
General Integration Accuracy     IntAcc      ... 4.020
Radial Grid Type                 RadialGrid  ... OptM3 with GC (2021)
Angular Grid (max. ang.)         AngularGrid ... 2 (Lebedev-110)
Angular grid pruning method      GridPruning ... 4 (adaptive)
Weight generation scheme         WeightScheme... Becke
Basis function cutoff            BFCut       ... 1.0000e-11
Integration weight cutoff        WCut        ... 1.0000e-14
Angular grids for H and He will be reduced by one unit
Partially contracted basis set               ... on
Rotationally invariant grid construction     ... off

Total number of grid points                  ...    12222
Total number of batches                      ...      195
Average number of points per batch           ...       62
Average number of grid points per atom       ...     1222
UseSFitting                                  ... on

GRIDX 2
-------
General Integration Accuracy     IntAcc      ... 4.338
Radial Grid Type                 RadialGrid  ... OptM3 with GC (2021)
Angular Grid (max. ang.)         AngularGrid ... 3 (Lebedev-194)
Angular grid pruning method      GridPruning ... 4 (adaptive)
Weight generation scheme         WeightScheme... Becke
Basis function cutoff            BFCut       ... 1.0000e-11
Integration weight cutoff        WCut        ... 1.0000e-14
Angular grids for H and He will be reduced by one unit
Partially contracted basis set               ... on
Rotationally invariant grid construction     ... off

Total number of grid points                  ...    27502
Total number of batches                      ...      435
Average number of points per batch           ...       63
Average number of grid points per atom       ...     2750
UseSFitting                                  ... on

GRIDX 3
-------
General Integration Accuracy     IntAcc      ... 4.871
Radial Grid Type                 RadialGrid  ... OptM3 with GC (2021)
Angular Grid (max. ang.)         AngularGrid ... 4 (Lebedev-302)
Angular grid pruning method      GridPruning ... 4 (adaptive)
Weight generation scheme         WeightScheme... Becke
Basis function cutoff            BFCut       ... 1.0000e-11
Integration weight cutoff        WCut        ... 1.0000e-14
Angular grids for H and He will be reduced by one unit
Partially contracted basis set               ... on
Rotationally invariant grid construction     ... off

Total number of grid points                  ...    53746
Total number of batches                      ...      845
Average number of points per batch           ...       63
Average number of grid points per atom       ...     5375
UseSFitting                                  ... on

Time for X-Grid setup             =    1.313 sec

--------------
SCF ITERATIONS
--------------
ITER       Energy         Delta-E        Max-DP      RMS-DP      [F,P]     Damp
               ***  Starting incremental Fock matrix formation  ***
  0   -593.2496502301   0.000000000000 0.16607620  0.00603397  0.4074977 0.7000
  1   -593.4404412499  -0.190791019769 0.12384750  0.00432848  0.2904201 0.7000
  2   -593.5643711616  -0.123929911695 0.09069771  0.00305464  0.2060940 0.7000
                               ***Turning on DIIS***
  3   -593.6498066672  -0.085435505666 0.06680021  0.00220640  0.1459406 0.7000
  4   -593.7101924751  -0.060385807869 0.05354732  0.00171839  0.1031090 0.7000
  5   -593.7530625637  -0.042870088570 0.13972944  0.00452909  0.0722458 0.0000
  6   -593.8560166117  -0.102954047972 0.01503556  0.00046548  0.0059322 0.0000
                      *** Initiating the SOSCF procedure ***
                           *** Shutting down DIIS ***
                      *** Re-Reading the Fockian *** 
                      *** Removing any level shift *** 
ITER      Energy       Delta-E        Grad      Rot      Max-DP    RMS-DP
  7   -593.85619815  -0.0001815370  0.001158  0.001158  0.006858  0.000233
               *** Restarting incremental Fock matrix formation ***
  8   -593.85622808  -0.0000299318  0.000836  0.002420  0.007168  0.000205
  9   -593.85624166  -0.0000135811  0.000361  0.000788  0.003336  0.000122
 10   -593.85624410  -0.0000024393  0.000220  0.000265  0.001258  0.000043
 11   -593.85624488  -0.0000007777  0.000047  0.000095  0.000233  0.000008
 12   -593.85624489  -0.0000000141  0.000052  0.000050  0.000126  0.000004
 13   -593.85624492  -0.0000000257  0.000005  0.000027  0.000023  0.000001
                  ***Gradient check signals convergence***
              ***Rediagonalizing the Fockian in SOSCF/NRSCF***

               *****************************************************
               *                     SUCCESS                       *
               *           SCF CONVERGED AFTER  14 CYCLES          *
               *****************************************************

Old exchange energy                            =    -19.557905932 Eh
New exchange energy                            =    -19.557905815 Eh
Exchange energy change after final integration =      0.000000116 Eh
Total energy after final integration           =   -593.856244803 Eh
Final COS-X integration done in                =     0.810 sec

----------------
TOTAL SCF ENERGY
----------------

Total Energy       :         -593.85624480 Eh          -16159.64996 eV

Components:
Nuclear Repulsion  :          139.62595914 Eh            3799.41551 eV
Electronic Energy  :         -733.48220394 Eh          -19959.06547 eV
One Electron Energy:        -1092.46824411 Eh          -29727.57224 eV
Two Electron Energy:          358.98604016 Eh            9768.50677 eV
Max COSX asymmetry :            0.00000040 Eh               0.00001 eV

Virial components:
Potential Energy   :        -1186.26370165 Eh          -32279.87640 eV
Kinetic Energy     :          592.40745685 Eh           16120.22644 eV
Virial Ratio       :            2.00244559


DFT components:
N(Alpha)           :       20.999999948072 electrons
N(Beta)            :       20.999999948072 electrons
N(Total)           :       41.999999896144 electrons
E(X)               :      -26.047133929520 Eh       
E(C)               :       -1.932245737130 Eh       
E(XC)              :      -27.979379666650 Eh       
DFET-embed. en.    :        0.000000000000 Eh       

---------------
SCF CONVERGENCE
---------------

  Last Energy change         ...   -8.9290e-10  Tolerance :   1.0000e-08
  Last MAX-Density change    ...    2.6645e-15  Tolerance :   1.0000e-07
  Last RMS-Density change    ...    8.8403e-17  Tolerance :   5.0000e-09
  Last Orbital Gradient      ...    2.4616e-06  Tolerance :   1.0000e-05
  Last Orbital Rotation      ...    2.7168e-05  Tolerance :   1.0000e-05

             **** THE GBW FILE WAS UPDATED (pbeh-3c.gbw) ****
             **** DENSITY pbeh-3c.scfp WAS UPDATED ****
             **** ENERGY FILE WAS UPDATED (pbeh-3c.en.tmp) ****
             **** THE GBW FILE WAS UPDATED (pbeh-3c.gbw) ****
             **** DENSITY pbeh-3c.scfp WAS UPDATED ****
----------------
ORBITAL ENERGIES
----------------

  NO   OCC          E(Eh)            E(eV) 
   0   2.0000    -102.333275     -2784.6300 
   1   2.0000     -14.568160      -396.4198 
   2   2.0000     -10.545503      -286.9577 
   3   2.0000     -10.462794      -284.7071 
   4   2.0000      -9.801598      -266.7150 
   5   2.0000      -7.487751      -203.7521 
   6   2.0000      -7.483179      -203.6277 
   7   2.0000      -7.479720      -203.5335 
   8   2.0000      -0.994404       -27.0591 
   9   2.0000      -0.908954       -24.7339 
  10   2.0000      -0.853227       -23.2175 
  11   2.0000      -0.644619       -17.5410 
  12   2.0000      -0.527246       -14.3471 
  13   2.0000      -0.505758       -13.7624 
  14   2.0000      -0.488372       -13.2893 
  15   2.0000      -0.486270       -13.2321 
  16   2.0000      -0.480894       -13.0858 
  17   2.0000      -0.417333       -11.3562 
  18   2.0000      -0.398012       -10.8305 
  19   2.0000      -0.290071        -7.8932 
  20   2.0000      -0.277330        -7.5465 
  21   0.0000      -0.071853        -1.9552 
  22   0.0000       0.090656         2.4669 
  23   0.0000       0.152743         4.1563 
  24   0.0000       0.170960         4.6520 
  25   0.0000       0.183766         5.0005 
  26   0.0000       0.201717         5.4890 
  27   0.0000       0.245403         6.6778 
  28   0.0000       0.253495         6.8979 
  29   0.0000       0.297845         8.1048 
  30   0.0000       0.451432        12.2841 
  31   0.0000       0.479326        13.0431 
  32   0.0000       0.499770        13.5994 
  33   0.0000       0.562915        15.3177 
  34   0.0000       0.570758        15.5311 
  35   0.0000       0.659210        17.9380 
  36   0.0000       0.717590        19.5266 
  37   0.0000       0.762762        20.7558 
  38   0.0000       0.779822        21.2200 
  39   0.0000       0.789051        21.4712 
  40   0.0000       0.810201        22.0467 
  41   0.0000       0.814076        22.1521 
  42   0.0000       0.828417        22.5424 
  43   0.0000       0.851439        23.1688 
  44   0.0000       0.875363        23.8198 
  45   0.0000       0.918027        24.9808 
  46   0.0000       0.931872        25.3575 
  47   0.0000       0.967766        26.3343 
  48   0.0000       1.007330        27.4108 
  49   0.0000       1.032021        28.0827 
  50   0.0000       1.048227        28.5237 
  51   0.0000       1.071690        29.1622 
  52   0.0000       1.073068        29.1997 
  53   0.0000       1.193026        32.4639 
  54   0.0000       1.217045        33.1175 
  55   0.0000       1.366562        37.1860 
  56   0.0000       1.476302        40.1722 
  57   0.0000       1.539335        41.8874 
  58   0.0000       1.651699        44.9450 
  59   0.0000       1.763233        47.9800 
  60   0.0000       1.763766        47.9945 
  61   0.0000       1.831721        49.8437 
  62   0.0000       1.978897        53.8485 
  63   0.0000       2.078691        56.5641 
  64   0.0000       2.092426        56.9378 
  65   0.0000       2.165588        58.9287 
  66   0.0000       2.217046        60.3289 
  67   0.0000       2.332203        63.4625 
  68   0.0000       2.474115        67.3241 
  69   0.0000       2.535636        68.9982 
  70   0.0000       2.536377        69.0183 
  71   0.0000       2.613883        71.1274 
  72   0.0000      13.421810       365.2260 
  73   0.0000      13.874460       377.5433 
  74   0.0000      19.103121       519.8224 

                    ********************************
                    * MULLIKEN POPULATION ANALYSIS *
                    ********************************

-----------------------
MULLIKEN ATOMIC CHARGES
-----------------------
   0 N :   -0.988634
   1 H :    0.367353
   2 H :    0.300905
   3 H :    0.301398
   4 C :   -0.016587
   5 Cl:   -0.035733
   6 C :   -0.729123
   7 H :    0.241489
   8 H :    0.278274
   9 H :    0.280658
Sum of atomic charges:   -0.0000000

--------------------------------
MULLIKEN REDUCED ORBITAL CHARGES
--------------------------------
  0 N s       :     3.675423  s :     3.675423
      pz      :     1.772174  p :     4.280571
      px      :     1.290017
      py      :     1.218380
      dz2     :     0.003628  d :     0.032641
      dxz     :     0.006911
      dyz     :     0.010916
      dx2y2   :     0.009022
      dxy     :     0.002164
  1 H s       :     0.632647  s :     0.632647
  2 H s       :     0.699095  s :     0.699095
  3 H s       :     0.698602  s :     0.698602
  4 C s       :     3.662214  s :     3.662214
      pz      :     0.724475  p :     2.308519
      px      :     1.263221
      py      :     0.320823
      dz2     :     0.007310  d :     0.045854
      dxz     :     0.021358
      dyz     :     0.006969
      dx2y2   :     0.005800
      dxy     :     0.004417
  5 Cls       :     5.939646  s :     5.939646
      pz      :     3.560556  p :    11.051753
      px      :     3.724614
      py      :     3.766583
      dz2     :     0.013479  d :     0.044334
      dxz     :     0.018757
      dyz     :     0.004279
      dx2y2   :     0.005727
      dxy     :     0.002092
  6 C s       :     3.399150  s :     3.399150
      pz      :     0.995433  p :     3.294426
      px      :     1.145459
      py      :     1.153534
      dz2     :     0.007522  d :     0.035547
      dxz     :     0.008270
      dyz     :     0.005321
      dx2y2   :     0.009909
      dxy     :     0.004525
  7 H s       :     0.758511  s :     0.758511
  8 H s       :     0.721726  s :     0.721726
  9 H s       :     0.719342  s :     0.719342


                     *******************************
                     * LOEWDIN POPULATION ANALYSIS *
                     *******************************

----------------------
LOEWDIN ATOMIC CHARGES
----------------------
   0 N :   -0.671168
   1 H :    0.220515
   2 H :    0.210080
   3 H :    0.210225
   4 C :   -0.175840
   5 Cl:    0.151432
   6 C :   -0.428536
   7 H :    0.127169
   8 H :    0.171032
   9 H :    0.185090

-------------------------------
LOEWDIN REDUCED ORBITAL CHARGES
-------------------------------
  0 N s       :     3.315023  s :     3.315023
      pz      :     1.776359  p :     4.309773
      px      :     1.290520
      py      :     1.242894
      dz2     :     0.004312  d :     0.046373
      dxz     :     0.008151
      dyz     :     0.014126
      dx2y2   :     0.014558
      dxy     :     0.005225
  1 H s       :     0.779485  s :     0.779485
  2 H s       :     0.789920  s :     0.789920
  3 H s       :     0.789775  s :     0.789775
  4 C s       :     3.353252  s :     3.353252
      pz      :     0.952885  p :     2.734099
      px      :     1.403093
      py      :     0.378122
      dz2     :     0.019678  d :     0.088489
      dxz     :     0.040985
      dyz     :     0.013346
      dx2y2   :     0.008141
      dxy     :     0.006339
  5 Cls       :     5.776133  s :     5.776133
      pz      :     3.566156  p :    11.020376
      px      :     3.723093
      py      :     3.731127
      dz2     :     0.015132  d :     0.052059
      dxz     :     0.023965
      dyz     :     0.003713
      dx2y2   :     0.007338
      dxy     :     0.001911
  6 C s       :     2.975167  s :     2.975167
      pz      :     1.114975  p :     3.384697
      px      :     1.138895
      py      :     1.130827
      dz2     :     0.016571  d :     0.068672
      dxz     :     0.018216
      dyz     :     0.009787
      dx2y2   :     0.017918
      dxy     :     0.006179
  7 H s       :     0.872831  s :     0.872831
  8 H s       :     0.828968  s :     0.828968
  9 H s       :     0.814910  s :     0.814910


                      *****************************
                      * MAYER POPULATION ANALYSIS *
                      *****************************

  NA   - Mulliken gross atomic population
  ZA   - Total nuclear charge
  QA   - Mulliken gross atomic charge
  VA   - Mayer's total valence
  BVA  - Mayer's bonded valence
  FA   - Mayer's free valence

  ATOM       NA         ZA         QA         VA         BVA        FA
  0 N      7.9886     7.0000    -0.9886     2.6042     2.6042    -0.0000
  1 H      0.6326     1.0000     0.3674     0.8527     0.8527    -0.0000
  2 H      0.6991     1.0000     0.3009     0.8779     0.8779     0.0000
  3 H      0.6986     1.0000     0.3014     0.8776     0.8776     0.0000
  4 C      6.0166     6.0000    -0.0166     2.4042     2.4042     0.0000
  5 Cl    17.0357    17.0000    -0.0357     1.3223     1.3223    -0.0000
  6 C      6.7291     6.0000    -0.7291     3.6812     3.6812     0.0000
  7 H      0.7585     1.0000     0.2415     0.9056     0.9056    -0.0000
  8 H      0.7217     1.0000     0.2783     0.8869     0.8869     0.0000
  9 H      0.7193     1.0000     0.2807     0.8870     0.8870    -0.0000

  Mayer bond orders larger than 0.100000
B(  0-N ,  1-H ) :   0.8119 B(  0-N ,  2-H ) :   0.8892 B(  0-N ,  3-H ) :   0.8888 
B(  4-C ,  5-Cl) :   1.2660 B(  4-C ,  6-C ) :   1.0413 B(  6-C ,  7-H ) :   0.8957 
B(  6-C ,  8-H ) :   0.8785 B(  6-C ,  9-H ) :   0.8621 

-------
TIMINGS
-------

Total SCF time: 0 days 0 hours 0 min 24 sec 

Total time                  ....      24.902 sec
Sum of individual times     ....      23.578 sec  ( 94.7%)

Fock matrix formation       ....      18.729 sec  ( 75.2%)
  Split-RI-J                ....       2.313 sec  ( 12.4% of F)
  Chain of spheres X        ....       6.416 sec  ( 34.3% of F)
  XC integration            ....       5.804 sec  ( 31.0% of F)
    Basis function eval.    ....       1.210 sec  ( 20.9% of XC)
    Density eval.           ....       0.625 sec  ( 10.8% of XC)
    XC-Functional eval.     ....       0.876 sec  ( 15.1% of XC)
    XC-Potential eval.      ....       0.323 sec  (  5.6% of XC)
Diagonalization             ....       0.364 sec  (  1.5%)
Density matrix formation    ....       0.051 sec  (  0.2%)
Population analysis         ....       0.266 sec  (  1.1%)
Initial guess               ....       0.005 sec  (  0.0%)
Orbital Transformation      ....       0.000 sec  (  0.0%)
Orbital Orthonormalization  ....       0.000 sec  (  0.0%)
DIIS solution               ....       0.888 sec  (  3.6%)
SOSCF solution              ....       0.271 sec  (  1.1%)
Grid generation             ....       3.003 sec  ( 12.1%)

Maximum memory used throughout the entire SCF-calculation: 48.1 MB


-------------------------------------------------------------------------------
                          DFT DISPERSION CORRECTION                            
                                                                               
                              DFTD3 V3.1  Rev 1                                
                          USING Becke-Johnson damping                          
-------------------------------------------------------------------------------
The PBEh-3c composite method is recognized
Using three-body term ABC
Active option DFTDOPT                   ...         4   

molecular C6(AA) [au] = 1132.740383 


            DFT-D V3
 parameters
 s6 scaling factor         :     1.0000 
 a1 scaling factor         :     0.4860 
 s8 scaling factor         :     0.0000 
 a2 scaling factor         :     4.5000 
 Damping factor alpha9(ATM):    16.0000 
 ad hoc parameters k1-k3   :    16.0000     1.3333    -4.0000 

 Edisp/kcal,au: -1.885257745173  -0.003004349133 
 E6   /kcal   :  -1.889674224 
 E8   /kcal   :  -0.000000000 
 E6(ABC)      :   0.004416478 
 % E8         :   0.000000000 
 % E6(ABC)    :  -0.234263909 

-------------------------   ----------------
Dispersion correction           -0.003004349
-------------------------   ----------------

------------------   -----------------
gCP correction             0.007376977
------------------   -----------------

-------------------------   --------------------
FINAL SINGLE POINT ENERGY      -593.851872175881
-------------------------   --------------------


                            ***************************************
                            *     ORCA property calculations      *
                            ***************************************

                                    ---------------------
                                    Active property flags
                                    ---------------------
   (+) Dipole Moment


------------------------------------------------------------------------------
                       ORCA ELECTRIC PROPERTIES CALCULATION
------------------------------------------------------------------------------

Dipole Moment Calculation                       ... on
Quadrupole Moment Calculation                   ... off
Polarizability Calculation                      ... off
GBWName                                         ... pbeh-3c.gbw
Electron density                                ... pbeh-3c.scfp
The origin for moment calculation is the CENTER OF MASS  = ( 1.472128, -0.123098 -1.527114)

-------------
DIPOLE MOMENT
-------------
                                X             Y             Z
Electronic contribution:      8.75036      -0.65871      -7.74355
Nuclear contribution   :     -7.79592       0.64052       7.69219
                        -----------------------------------------
Total Dipole Moment    :      0.95444      -0.01819      -0.05135
                        -----------------------------------------
Magnitude (a.u.)       :      0.95599
Magnitude (Debye)      :      2.42994



--------------------
Rotational spectrum 
--------------------
 
Rotational constants in cm-1:     0.232982     0.063653     0.050843 
Rotational constants in MHz :  6984.621076  1908.282857  1524.223717 

 Dipole components along the rotational axes: 
x,y,z [a.u.] :    -0.921187     0.249267    -0.056563 
x,y,z [Debye]:    -2.341470     0.633586    -0.143772 

 

Timings for individual modules:

Sum of individual times         ...       26.988 sec (=   0.450 min)
GTO integral calculation        ...        1.722 sec (=   0.029 min)   6.4 %
SCF iterations                  ...       25.266 sec (=   0.421 min)  93.6 %
                             ****ORCA TERMINATED NORMALLY****
TOTAL RUN TIME: 0 days 0 hours 0 minutes 28 seconds 42 msec
