
                                 *****************
                                 * O   R   C   A *
                                 *****************

                                            #,                                       
                                            ###                                      
                                            ####                                     
                                            #####                                    
                                            ######                                   
                                           ########,                                 
                                     ,,################,,,,,                         
                               ,,#################################,,                 
                          ,,##########################################,,             
                       ,#########################################, ''#####,          
                    ,#############################################,,   '####,        
                  ,##################################################,,,,####,       
                ,###########''''           ''''###############################       
              ,#####''   ,,,,##########,,,,          '''####'''          '####       
            ,##' ,,,,###########################,,,                        '##       
           ' ,,###''''                  '''############,,,                           
         ,,##''                                '''############,,,,        ,,,,,,###''
      ,#''                                            '''#######################'''  
     '                                                          ''''####''''         
             ,#######,   #######,   ,#######,      ##                                
            ,#'     '#,  ##    ##  ,#'     '#,    #''#        ######   ,####,        
            ##       ##  ##   ,#'  ##            #'  '#       #        #'  '#        
            ##       ##  #######   ##           ,######,      #####,   #    #        
            '#,     ,#'  ##    ##  '#,     ,#' ,#      #,         ##   #,  ,#        
             '#######'   ##     ##  '#######'  #'      '#     #####' # '####'        



                  #######################################################
                  #                        -***-                        #
                  #          Department of theory and spectroscopy      #
                  #    Directorship and core code : Frank Neese         #
                  #        Max Planck Institute fuer Kohlenforschung    #
                  #                Kaiser Wilhelm Platz 1               #
                  #                 D-45470 Muelheim/Ruhr               #
                  #                      Germany                        #
                  #                                                     #
                  #                  All rights reserved                #
                  #                        -***-                        #
                  #######################################################


                         Program Version 5.0.3 -  RELEASE  -


 With contributions from (in alphabetic order):
   Daniel Aravena         : Magnetic Suceptibility
   Michael Atanasov       : Ab Initio Ligand Field Theory (pilot matlab implementation)
   Alexander A. Auer      : GIAO ZORA, VPT2 properties, NMR spectrum
   Ute Becker             : Parallelization
   Giovanni Bistoni       : ED, misc. LED, open-shell LED, HFLD
   Martin Brehm           : Molecular dynamics
   Dmytro Bykov           : SCF Hessian
   Vijay G. Chilkuri      : MRCI spin determinant printing, contributions to CSF-ICE
   Dipayan Datta          : RHF DLPNO-CCSD density
   Achintya Kumar Dutta   : EOM-CC, STEOM-CC
   Dmitry Ganyushin       : Spin-Orbit,Spin-Spin,Magnetic field MRCI
   Miquel Garcia          : C-PCM and meta-GGA Hessian, CC/C-PCM, Gaussian charge scheme
   Yang Guo               : DLPNO-NEVPT2, F12-NEVPT2, CIM, IAO-localization
   Andreas Hansen         : Spin unrestricted coupled pair/coupled cluster methods
   Benjamin Helmich-Paris : MC-RPA, TRAH-SCF, COSX integrals
   Lee Huntington         : MR-EOM, pCC
   Robert Izsak           : Overlap fitted RIJCOSX, COSX-SCS-MP3, EOM
   Marcus Kettner         : VPT2
   Christian Kollmar      : KDIIS, OOCD, Brueckner-CCSD(T), CCSD density, CASPT2, CASPT2-K
   Simone Kossmann        : Meta GGA functionals, TD-DFT gradient, OOMP2, MP2 Hessian
   Martin Krupicka        : Initial AUTO-CI
   Lucas Lang             : DCDCAS
   Marvin Lechner         : AUTO-CI (C++ implementation), FIC-MRCC
   Dagmar Lenk            : GEPOL surface, SMD
   Dimitrios Liakos       : Extrapolation schemes; Compound Job, initial MDCI parallelization
   Dimitrios Manganas     : Further ROCIS development; embedding schemes
   Dimitrios Pantazis     : SARC Basis sets
   Anastasios Papadopoulos: AUTO-CI, single reference methods and gradients
   Taras Petrenko         : DFT Hessian,TD-DFT gradient, ASA, ECA, R-Raman, ABS, FL, XAS/XES, NRVS
   Peter Pinski           : DLPNO-MP2, DLPNO-MP2 Gradient
   Christoph Reimann      : Effective Core Potentials
   Marius Retegan         : Local ZFS, SOC
   Christoph Riplinger    : Optimizer, TS searches, QM/MM, DLPNO-CCSD(T), (RO)-DLPNO pert. Triples
   Tobias Risthaus        : Range-separated hybrids, TD-DFT gradient, RPA, STAB
   Michael Roemelt        : Original ROCIS implementation
   Masaaki Saitow         : Open-shell DLPNO-CCSD energy and density
   Barbara Sandhoefer     : DKH picture change effects
   Avijit Sen             : IP-ROCIS
   Kantharuban Sivalingam : CASSCF convergence, NEVPT2, FIC-MRCI
   Bernardo de Souza      : ESD, SOC TD-DFT
   Georgi Stoychev        : AutoAux, RI-MP2 NMR, DLPNO-MP2 response
   Willem Van den Heuvel  : Paramagnetic NMR
   Boris Wezisla          : Elementary symmetry handling
   Frank Wennmohs         : Technical directorship


 We gratefully acknowledge several colleagues who have allowed us to
 interface, adapt or use parts of their codes:
   Stefan Grimme, W. Hujo, H. Kruse, P. Pracht,  : VdW corrections, initial TS optimization,
                  C. Bannwarth, S. Ehlert          DFT functionals, gCP, sTDA/sTD-DF
   Ed Valeev, F. Pavosevic, A. Kumar             : LibInt (2-el integral package), F12 methods
   Garnet Chan, S. Sharma, J. Yang, R. Olivares  : DMRG
   Ulf Ekstrom                                   : XCFun DFT Library
   Mihaly Kallay                                 : mrcc  (arbitrary order and MRCC methods)
   Jiri Pittner, Ondrej Demel                    : Mk-CCSD
   Frank Weinhold                                : gennbo (NPA and NBO analysis)
   Christopher J. Cramer and Donald G. Truhlar   : smd solvation model
   Lars Goerigk                                  : TD-DFT with DH, B97 family of functionals
   V. Asgeirsson, H. Jonsson                     : NEB implementation
   FAccTs GmbH                                   : IRC, NEB, NEB-TS, DLPNO-Multilevel, CI-OPT
                                                   MM, QMMM, 2- and 3-layer-ONIOM, Crystal-QMMM,
                                                   LR-CPCM, SF, NACMEs, symmetry and pop. for TD-DFT,
                                                   nearIR, NL-DFT gradient (VV10), updates on ESD,
                                                   ML-optimized integration grids
   S Lehtola, MJT Oliveira, MAL Marques          : LibXC Library
   Liviu Ungur et al                             : ANISO software


 Your calculation uses the libint2 library for the computation of 2-el integrals
 For citations please refer to: http://libint.valeyev.net

 Your ORCA version has been built with support for libXC version: 5.1.0
 For citations please refer to: https://tddft.org/programs/libxc/

 This ORCA versions uses:
   CBLAS   interface :  Fast vector & matrix operations
   LAPACKE interface :  Fast linear algebra routines
   SCALAPACK package :  Parallel linear algebra routines
   Shared memory     :  Shared parallel matrices
   BLAS/LAPACK       :  OpenBLAS 0.3.15  USE64BITINT DYNAMIC_ARCH NO_AFFINITY Haswell SINGLE_THREADED
        Core in use  :  Haswell
   Copyright (c) 2011-2014, The OpenBLAS Project




***************************************
The coordinates will be read from file: 2e.xyz
***************************************


Your calculation utilizes the geometrical counterpoise correction gCP
Please cite in your paper:
H.Kruse, S. Grimme J.Chem.Phys., 136, (2012), 154101 
   

Your calculation utilizes the atom-pairwise dispersion correction
with the Becke-Johnson damping scheme (D3BJ)
Cite in your paper:
S.Grimme, S.Ehrlich, L.Goerigk, J Comput Chem, (2011), 32, 1456–1465 
S.Grimme, J.Antony, S.Ehrlich and H.Krieg, J.Chem.Phys., 132, (2010), 154104 
   

Your calculation employs the composite approach PBEh-3c.
Please cite in your paper:
S. Grimme, J. G. Brandenburg, C. Bannwarth, A. Hansen J.Chem.Phys., 143, (2015), 054107 
   

================================================================================

----- Orbital basis set information -----
Your calculation utilizes the basis: def2-mSVP

----- AuxJ basis set information -----
Your calculation utilizes the auxiliary basis: def2/J
   F. Weigend, Phys. Chem. Chem. Phys. 8, 1057 (2006).

================================================================================
                                        WARNINGS
                       Please study these warnings very carefully!
================================================================================


WARNING: your system is open-shell and RHF/RKS was chosen
  ===> : WILL SWITCH to UHF/UKS


INFO   : the flag for use of the SHARK integral package has been found!

================================================================================
                                       INPUT FILE
================================================================================
NAME = pbeh-3c.inp
|  1> ! PBEh-3c def2/J TightSCF DefGrid3
|  2> 
|  3> %maxcore 60000
|  4> 
|  5> %pal
|  6> nprocs 4
|  7> end
|  8> 
|  9> *xyzfile 1 2 2e.xyz
| 10> 
| 11>                          ****END OF INPUT****
================================================================================

                       ****************************
                       * Single Point Calculation *
                       ****************************

---------------------------------
CARTESIAN COORDINATES (ANGSTROEM)
---------------------------------
  C     -2.398392    0.075282   -0.370624
  C     -1.161574   -0.363312    0.371299
  O      0.000000    0.000000   -0.329910
  C      1.161574    0.363312    0.371299
  C      2.398392   -0.075282   -0.370624
  H     -3.265742   -0.334609    0.148572
  H     -2.401692   -0.290198   -1.397497
  H     -2.469035    1.164189   -0.371897
  H     -1.106542   -1.476115    0.370468
  H     -1.086548   -0.039338    1.414634
  H      1.086548    0.039338    1.414634
  H      1.106542    1.476115    0.370468
  H      2.469035   -1.164189   -0.371897
  H      3.265742    0.334609    0.148572
  H      2.401692    0.290198   -1.397497

----------------------------
CARTESIAN COORDINATES (A.U.)
----------------------------
  NO LB      ZA    FRAG     MASS         X           Y           Z
   0 C     6.0000    0    12.011   -4.532303    0.142263   -0.700377
   1 C     6.0000    0    12.011   -2.195057   -0.686559    0.701654
   2 O     8.0000    0    15.999    0.000000    0.000000   -0.623439
   3 C     6.0000    0    12.011    2.195057    0.686559    0.701654
   4 C     6.0000    0    12.011    4.532303   -0.142263   -0.700377
   5 H     1.0000    0     1.008   -6.171359   -0.632319    0.280761
   6 H     1.0000    0     1.008   -4.538541   -0.548395   -2.640887
   7 H     1.0000    0     1.008   -4.665801    2.199998   -0.702784
   8 H     1.0000    0     1.008   -2.091061   -2.789454    0.700084
   9 H     1.0000    0     1.008   -2.053278   -0.074338    2.673270
  10 H     1.0000    0     1.008    2.053278    0.074338    2.673270
  11 H     1.0000    0     1.008    2.091061    2.789454    0.700084
  12 H     1.0000    0     1.008    4.665801   -2.199998   -0.702784
  13 H     1.0000    0     1.008    6.171359    0.632319    0.280761
  14 H     1.0000    0     1.008    4.538541    0.548395   -2.640887

--------------------------------
INTERNAL COORDINATES (ANGSTROEM)
--------------------------------
 C      0   0   0     0.000000000000     0.00000000     0.00000000
 C      1   0   0     1.507491804379     0.00000000     0.00000000
 O      2   1   0     1.404615383312   110.94902831     0.00000000
 C      3   2   1     1.404615383312   120.10346364   145.97314686
 C      4   3   2     1.507491804379   110.94902831   145.97314686
 H      1   2   3     1.090812708306   107.98647119   173.17322330
 H      1   2   3     1.089979944567   111.62877295    53.78894522
 H      1   2   3     1.091196670050   110.12210411   291.97657338
 H      2   1   3     1.114164069868   109.31402479   247.63359911
 H      2   1   3     1.095049891996   116.04330710   126.52849683
 H      4   3   2     1.095049891996   110.02671860    16.18663565
 H      4   3   2     1.114164069868   102.53996253   262.58634117
 H      5   4   3     1.091196670050   110.12210411   291.97657338
 H      5   4   3     1.090812708306   107.98647119   173.17322330
 H      5   4   3     1.089979944567   111.62877295    53.78894522

---------------------------
INTERNAL COORDINATES (A.U.)
---------------------------
 C      0   0   0     0.000000000000     0.00000000     0.00000000
 C      1   0   0     2.848746659407     0.00000000     0.00000000
 O      2   1   0     2.654338397953   110.94902831     0.00000000
 C      3   2   1     2.654338397953   120.10346364   145.97314686
 C      4   3   2     2.848746659407   110.94902831   145.97314686
 H      1   2   3     2.061337282099   107.98647119   173.17322330
 H      1   2   3     2.059763586698   111.62877295    53.78894522
 H      1   2   3     2.062062864642   110.12210411   291.97657338
 H      2   1   3     2.105464960306   109.31402479   247.63359911
 H      2   1   3     2.069344398853   116.04330710   126.52849683
 H      4   3   2     2.069344398853   110.02671860    16.18663565
 H      4   3   2     2.105464960306   102.53996253   262.58634117
 H      5   4   3     2.062062864642   110.12210411   291.97657338
 H      5   4   3     2.061337282099   107.98647119   173.17322330
 H      5   4   3     2.059763586698   111.62877295    53.78894522

---------------------
BASIS SET INFORMATION
---------------------
There are 3 groups of distinct atoms

 Group   1 Type C   : 8s4p1d contracted to 4s2p1d pattern {5111/31/1}
 Group   2 Type O   : 8s4p1d contracted to 4s2p1d pattern {5111/31/1}
 Group   3 Type H   : 4s contracted to 2s pattern {31}

Atom   0C    basis set group =>   1
Atom   1C    basis set group =>   1
Atom   2O    basis set group =>   2
Atom   3C    basis set group =>   1
Atom   4C    basis set group =>   1
Atom   5H    basis set group =>   3
Atom   6H    basis set group =>   3
Atom   7H    basis set group =>   3
Atom   8H    basis set group =>   3
Atom   9H    basis set group =>   3
Atom  10H    basis set group =>   3
Atom  11H    basis set group =>   3
Atom  12H    basis set group =>   3
Atom  13H    basis set group =>   3
Atom  14H    basis set group =>   3
---------------------------------
AUXILIARY/J BASIS SET INFORMATION
---------------------------------
There are 3 groups of distinct atoms

 Group   1 Type C   : 12s5p4d2f1g contracted to 6s4p3d1f1g pattern {711111/2111/211/2/1}
 Group   2 Type O   : 12s5p4d2f1g contracted to 6s4p3d1f1g pattern {711111/2111/211/2/1}
 Group   3 Type H   : 5s2p1d contracted to 3s1p1d pattern {311/2/1}

Atom   0C    basis set group =>   1
Atom   1C    basis set group =>   1
Atom   2O    basis set group =>   2
Atom   3C    basis set group =>   1
Atom   4C    basis set group =>   1
Atom   5H    basis set group =>   3
Atom   6H    basis set group =>   3
Atom   7H    basis set group =>   3
Atom   8H    basis set group =>   3
Atom   9H    basis set group =>   3
Atom  10H    basis set group =>   3
Atom  11H    basis set group =>   3
Atom  12H    basis set group =>   3
Atom  13H    basis set group =>   3
Atom  14H    basis set group =>   3


           ************************************************************
           *        Program running with 4 parallel MPI-processes     *
           *              working on a common directory               *
           ************************************************************
------------------------------------------------------------------------------
                           ORCA GTO INTEGRAL CALCULATION
                           -- RI-GTO INTEGRALS CHOSEN --
------------------------------------------------------------------------------
------------------------------------------------------------------------------
                   ___                                                        
                  /   \      - P O W E R E D   B Y -                         
                 /     \                                                     
                 |  |  |   _    _      __       _____    __    __             
                 |  |  |  | |  | |    /  \     |  _  \  |  |  /  |          
                  \  \/   | |  | |   /    \    | | | |  |  | /  /          
                 / \  \   | |__| |  /  /\  \   | |_| |  |  |/  /          
                |  |  |   |  __  | /  /__\  \  |    /   |      \           
                |  |  |   | |  | | |   __   |  |    \   |  |\   \          
                \     /   | |  | | |  |  |  |  | |\  \  |  | \   \       
                 \___/    |_|  |_| |__|  |__|  |_| \__\ |__|  \__/        
                                                                              
                      - O R C A' S   B I G   F R I E N D -                    
                                      &                                       
                       - I N T E G R A L  F E E D E R -                       
                                                                              
 v1 FN, 2020, v2 2021                                                         
------------------------------------------------------------------------------


Reading SHARK input file pbeh-3c.SHARKINP.tmp ... ok
----------------------
SHARK INTEGRAL PACKAGE
----------------------

Number of atoms                             ...     15
Number of basis functions                   ...     95
Number of shells                            ...     55
Maximum angular momentum                    ...      2
Integral batch strategy                     ... SHARK/LIBINT Hybrid
RI-J (if used) integral strategy            ... SPLIT-RIJ (Revised 2003 algorithm where possible)
Printlevel                                  ...      1
Contraction scheme used                     ... SEGMENTED contraction
Coulomb Range Separation                    ... NOT USED
Exchange Range Separation                   ... NOT USED
Finite Nucleus Model                        ... NOT USED
Auxiliary Coulomb fitting basis             ... AVAILABLE
   # of basis functions in Aux-J            ...    355
   # of shells in Aux-J                     ...    125
   Maximum angular momentum in Aux-J        ...      4
Auxiliary J/K fitting basis                 ... NOT available
Auxiliary Correlation fitting basis         ... NOT available
Auxiliary 'external' fitting basis          ... NOT available
Integral threshold                          ...     2.500000e-11
Primitive cut-off                           ...     2.500000e-12
Primitive pair pre-selection threshold      ...     2.500000e-12

Calculating pre-screening integrals         ... done (  0.0 sec) Dimension = 55
Organizing shell pair data                  ... done (  0.1 sec)
Shell pair information
Total number of shell pairs                 ...      1540
Shell pairs after pre-screening             ...      1433
Total number of primitive shell pairs       ...      5660
Primitive shell pairs kept                  ...      3878
          la=0 lb=0:    737 shell pairs
          la=1 lb=0:    394 shell pairs
          la=1 lb=1:     55 shell pairs
          la=2 lb=0:    182 shell pairs
          la=2 lb=1:     50 shell pairs
          la=2 lb=2:     15 shell pairs

Calculating one electron integrals          ... done (  0.0 sec)
Calculating RI/J V-Matrix + Cholesky decomp.... done (  0.2 sec)
Calculating Nuclear repulsion               ... done (  0.1 sec) ENN=    189.961353276133 Eh

SHARK setup successfully completed in   1.3 seconds

Maximum memory used throughout the entire GTOINT-calculation: 10.1 MB


           ************************************************************
           *        Program running with 4 parallel MPI-processes     *
           *              working on a common directory               *
           ************************************************************
-------------------------------------------------------------------------------
                                 ORCA SCF
-------------------------------------------------------------------------------

------------
SCF SETTINGS
------------
Hamiltonian:
 Density Functional     Method          .... DFT(GTOs)
 Exchange Functional    Exchange        .... PBE
   PBE kappa parameter   XKappa         ....  1.024500
   PBE mue parameter    XMuePBE         ....  0.123457
 Correlation Functional Correlation     .... PBE
   PBE beta parameter  CBetaPBE         ....  0.030000
 LDA part of GGA corr.  LDAOpt          .... PW91-LDA
 Gradients option       PostSCFGGA      .... off
 Hybrid DFT is turned on
   Fraction HF Exchange ScalHFX         ....  0.420000
   Scaling of DF-GGA-X  ScalDFX         ....  0.580000
   Scaling of DF-GGA-C  ScalDFC         ....  1.000000
   Scaling of DF-LDA-C  ScalLDAC        ....  1.000000
   Perturbative correction              ....  0.000000
   Density functional embedding theory  .... OFF
 RI-approximation to the Coulomb term is turned on
   Number of AuxJ basis functions       .... 355
   RIJ-ON(X) (HFX calculated with O(N)) .... on
   Number of AuxJ basis functions       .... 355
   RIJ-COSX (HFX calculated with COS-X)).... on


General Settings:
 Integral files         IntName         .... pbeh-3c
 Hartree-Fock type      HFTyp           .... UHF
 Total Charge           Charge          ....    1
 Multiplicity           Mult            ....    2
 Number of Electrons    NEL             ....   41
 Basis Dimension        Dim             ....   95
 Nuclear Repulsion      ENuc            ....    189.9613532761 Eh

Convergence Acceleration:
 DIIS                   CNVDIIS         .... on
   Start iteration      DIISMaxIt       ....    12
   Startup error        DIISStart       ....  0.200000
   # of expansion vecs  DIISMaxEq       ....     5
   Bias factor          DIISBfac        ....   1.050
   Max. coefficient     DIISMaxC        ....  10.000
 Trust-Rad. Augm. Hess. CNVTRAH         .... auto
   Auto Start mean grad. ratio tolernc. ....  1.125000
   Auto Start start iteration           ....    20
   Auto Start num. interpolation iter.  ....    10
   Max. Number of Micro iterations      ....    16
   Max. Number of Macro iterations      .... Maxiter - #DIIS iter
   Number of Davidson start vectors     ....     2
   Converg. threshold I  (grad. norm)   ....   1.000e-05
   Converg. threshold II (energy diff.) ....   1.000e-08
   Grad. Scal. Fac. for Micro threshold ....   0.100
   Minimum threshold for Micro iter.    ....   0.010
   NR start threshold (gradient norm)   ....   0.001
   Initial trust radius                 ....   0.400
   Minimum AH scaling param. (alpha)    ....   1.000
   Maximum AH scaling param. (alpha)    .... 1000.000
   Orbital update algorithm             .... Taylor
   White noise on init. David. guess    .... on
   Maximum white noise                  ....   0.010
   Quad. conv. algorithm                .... NR
   COSX micro iterations for RIJONX calc.... off
 SOSCF                  CNVSOSCF        .... off
 Level Shifting         CNVShift        .... on
   Level shift para.    LevelShift      ....    0.2500
   Turn off err/grad.   ShiftErr        ....    0.0010
 Zerner damping         CNVZerner       .... off
 Static damping         CNVDamp         .... on
   Fraction old density DampFac         ....    0.7000
   Max. Damping (<1)    DampMax         ....    0.9800
   Min. Damping (>=0)   DampMin         ....    0.0000
   Turn off err/grad.   DampErr         ....    0.1000
 Fernandez-Rico         CNVRico         .... off

SCF Procedure:
 Maximum # iterations   MaxIter         ....   125
 SCF integral mode      SCFMode         .... Direct
   Integral package                     .... SHARK and LIBINT hybrid scheme
 Reset frequency        DirectResetFreq ....    20
 Integral Threshold     Thresh          ....  2.500e-11 Eh
 Primitive CutOff       TCut            ....  2.500e-12 Eh

Convergence Tolerance:
 Convergence Check Mode ConvCheckMode   .... Total+1el-Energy
 Convergence forced     ConvForced      .... 0
 Energy Change          TolE            ....  1.000e-08 Eh
 1-El. energy change                    ....  1.000e-05 Eh
 DIIS Error             TolErr          ....  5.000e-07


Diagonalization of the overlap matrix:
Smallest eigenvalue                        ... 7.673e-03
Time for diagonalization                   ...    0.002 sec
Threshold for overlap eigenvalues          ... 1.000e-08
Number of eigenvalues below threshold      ... 0
Time for construction of square roots      ...    0.114 sec
Total time needed                          ...    0.119 sec

--------------------------------
INITIAL GUESS: MINIMAL BASIS EHT
--------------------------------
The minimal basis has 35 functions
EHT matrix was diagonalized
Basis set overlap was calculated now projecting the orbitals
Using GuessMode=FMatrix for the initial guess
C*T matrix was formed
Effective Fockian was calculated
Effective Fockian was diagonalized
Initial density was built
                      ------------------
                      INITIAL GUESS DONE
                      ------------------
-------------------
DFT GRID GENERATION
-------------------

General Integration Accuracy     IntAcc      ... 4.959
Radial Grid Type                 RadialGrid  ... OptM3 with GC (2021)
Angular Grid (max. ang.)         AngularGrid ... 6 (Lebedev-590)
Angular grid pruning method      GridPruning ... 4 (adaptive)
Weight generation scheme         WeightScheme... Becke
Basis function cutoff            BFCut       ... 1.0000e-11
Integration weight cutoff        WCut        ... 1.0000e-14
Angular grids for H and He will be reduced by one unit
Partially contracted basis set               ... off
Rotationally invariant grid construction     ... off

Total number of grid points                  ...   159432
Total number of batches                      ...     2497
Average number of points per batch           ...       63
Average number of grid points per atom       ...    10629
Time for grid setup =    2.580 sec

--------------------
COSX GRID GENERATION
--------------------

GRIDX 1
-------
General Integration Accuracy     IntAcc      ... 4.020
Radial Grid Type                 RadialGrid  ... OptM3 with GC (2021)
Angular Grid (max. ang.)         AngularGrid ... 2 (Lebedev-110)
Angular grid pruning method      GridPruning ... 4 (adaptive)
Weight generation scheme         WeightScheme... Becke
Basis function cutoff            BFCut       ... 1.0000e-11
Integration weight cutoff        WCut        ... 1.0000e-14
Angular grids for H and He will be reduced by one unit
Partially contracted basis set               ... on
Rotationally invariant grid construction     ... off

Total number of grid points                  ...    16778
Total number of batches                      ...      268
Average number of points per batch           ...       62
Average number of grid points per atom       ...     1119
UseSFitting                                  ... on

GRIDX 2
-------
General Integration Accuracy     IntAcc      ... 4.338
Radial Grid Type                 RadialGrid  ... OptM3 with GC (2021)
Angular Grid (max. ang.)         AngularGrid ... 3 (Lebedev-194)
Angular grid pruning method      GridPruning ... 4 (adaptive)
Weight generation scheme         WeightScheme... Becke
Basis function cutoff            BFCut       ... 1.0000e-11
Integration weight cutoff        WCut        ... 1.0000e-14
Angular grids for H and He will be reduced by one unit
Partially contracted basis set               ... on
Rotationally invariant grid construction     ... off

Total number of grid points                  ...    36672
Total number of batches                      ...      578
Average number of points per batch           ...       63
Average number of grid points per atom       ...     2445
UseSFitting                                  ... on

GRIDX 3
-------
General Integration Accuracy     IntAcc      ... 4.871
Radial Grid Type                 RadialGrid  ... OptM3 with GC (2021)
Angular Grid (max. ang.)         AngularGrid ... 4 (Lebedev-302)
Angular grid pruning method      GridPruning ... 4 (adaptive)
Weight generation scheme         WeightScheme... Becke
Basis function cutoff            BFCut       ... 1.0000e-11
Integration weight cutoff        WCut        ... 1.0000e-14
Angular grids for H and He will be reduced by one unit
Partially contracted basis set               ... on
Rotationally invariant grid construction     ... off

Total number of grid points                  ...    73308
Total number of batches                      ...     1152
Average number of points per batch           ...       63
Average number of grid points per atom       ...     4887
UseSFitting                                  ... on

Time for X-Grid setup             =    3.559 sec

--------------
SCF ITERATIONS
--------------
ITER       Energy         Delta-E        Max-DP      RMS-DP      [F,P]     Damp
               ***  Starting incremental Fock matrix formation  ***
  0   -232.3454876645   0.000000000000 0.04426038  0.00163882  0.2022043 0.7000
  1   -232.4989291005  -0.153441435978 0.02943237  0.00121819  0.1438524 0.7000
                               ***Turning on DIIS***
  2   -232.5982606077  -0.099331507267 0.01862175  0.00083961  0.1018605 0.7000
  3   -232.6663658944  -0.068105286712 0.04166875  0.00201949  0.0720075 0.0000
  4   -232.8284921574  -0.162126263008 0.01074444  0.00026015  0.0098400 0.0000
  5   -232.8290107770  -0.000518619567 0.00386982  0.00008978  0.0060264 0.0000
  6   -232.8292553407  -0.000244563725 0.00147702  0.00005513  0.0011005 0.0000
  7   -232.8293169855  -0.000061644726 0.00147845  0.00006768  0.0008133 0.0000
               *** Restarting incremental Fock matrix formation ***
                                   *** Resetting DIIS ***
  8   -232.8293642731  -0.000047287678 0.00057937  0.00002263  0.0004449 0.0000
  9   -232.8293700862  -0.000005813040 0.00029168  0.00001045  0.0002948 0.0000
 10   -232.8293718444  -0.000001758179 0.00037498  0.00001127  0.0002080 0.0000
 11   -232.8293729784  -0.000001134062 0.00017206  0.00000498  0.0000817 0.0000
 12   -232.8293731739  -0.000000195486 0.00004392  0.00000098  0.0000239 0.0000
 13   -232.8293731852  -0.000000011256 0.00001158  0.00000033  0.0000067 0.0000
                 **** Energy Check signals convergence ****

               *****************************************************
               *                     SUCCESS                       *
               *           SCF CONVERGED AFTER  14 CYCLES          *
               *****************************************************

Old exchange energy                            =    -13.510362924 Eh
New exchange energy                            =    -13.510356446 Eh
Exchange energy change after final integration =      0.000006478 Eh
Total energy after final integration           =   -232.829366707 Eh
Final COS-X integration done in                =     2.943 sec

----------------
TOTAL SCF ENERGY
----------------

Total Energy       :         -232.82936671 Eh           -6335.60916 eV

Components:
Nuclear Repulsion  :          189.96135328 Eh            5169.11122 eV
Electronic Energy  :         -422.79071998 Eh          -11504.72038 eV
One Electron Energy:         -681.34122534 Eh          -18540.23731 eV
Two Electron Energy:          258.55050535 Eh            7035.51693 eV
Max COSX asymmetry :            0.00000091 Eh               0.00002 eV

Virial components:
Potential Energy   :         -463.96563075 Eh          -12625.14666 eV
Kinetic Energy     :          231.13626404 Eh            6289.53750 eV
Virial Ratio       :            2.00732513


DFT components:
N(Alpha)           :       21.000001668428 electrons
N(Beta)            :       20.000001837090 electrons
N(Total)           :       41.000003505518 electrons
E(X)               :      -17.942367469455 Eh       
E(C)               :       -1.747122177735 Eh       
E(XC)              :      -19.689489647190 Eh       
DFET-embed. en.    :        0.000000000000 Eh       

---------------
SCF CONVERGENCE
---------------

  Last Energy change         ...   -4.5972e-10  Tolerance :   1.0000e-08
  Last MAX-Density change    ...    0.0000e+00  Tolerance :   1.0000e-07
  Last RMS-Density change    ...    0.0000e+00  Tolerance :   5.0000e-09
  Last DIIS Error            ...    1.8388e-06  Tolerance :   5.0000e-07

             **** THE GBW FILE WAS UPDATED (pbeh-3c.gbw) ****
             **** DENSITY pbeh-3c.scfp WAS UPDATED ****
             **** ENERGY FILE WAS UPDATED (pbeh-3c.en.tmp) ****
----------------------
UHF SPIN CONTAMINATION
----------------------

Warning: in a DFT calculation there is little theoretical justification to 
         calculate <S**2> as in Hartree-Fock theory. We will do it anyways
         but you should keep in mind that the values have only limited relevance

Expectation value of <S**2>     :     0.755922
Ideal value S*(S+1) for S=0.5   :     0.750000
Deviation                       :     0.005922

             **** THE GBW FILE WAS UPDATED (pbeh-3c.gbw) ****
             **** DENSITY pbeh-3c.scfp WAS UPDATED ****
----------------
ORBITAL ENERGIES
----------------
                 SPIN UP ORBITALS
  NO   OCC          E(Eh)            E(eV) 
   0   1.0000     -19.872307      -540.7530 
   1   1.0000     -10.728525      -291.9380 
   2   1.0000     -10.728481      -291.9368 
   3   1.0000     -10.619090      -288.9601 
   4   1.0000     -10.619088      -288.9601 
   5   1.0000      -1.488746       -40.5108 
   6   1.0000      -1.116740       -30.3880 
   7   1.0000      -1.032099       -28.0848 
   8   1.0000      -0.940025       -25.5794 
   9   1.0000      -0.915729       -24.9183 
  10   1.0000      -0.849349       -23.1120 
  11   1.0000      -0.807605       -21.9760 
  12   1.0000      -0.779146       -21.2016 
  13   1.0000      -0.705419       -19.1954 
  14   1.0000      -0.681540       -18.5456 
  15   1.0000      -0.653844       -17.7920 
  16   1.0000      -0.630052       -17.1446 
  17   1.0000      -0.628496       -17.1022 
  18   1.0000      -0.624436       -16.9918 
  19   1.0000      -0.609840       -16.5946 
  20   1.0000      -0.590188       -16.0598 
  21   0.0000      -0.090056        -2.4506 
  22   0.0000      -0.037010        -1.0071 
  23   0.0000      -0.034858        -0.9485 
  24   0.0000      -0.019937        -0.5425 
  25   0.0000      -0.009085        -0.2472 
  26   0.0000       0.023065         0.6276 
  27   0.0000       0.025657         0.6982 
  28   0.0000       0.041432         1.1274 
  29   0.0000       0.049276         1.3409 
  30   0.0000       0.052595         1.4312 
  31   0.0000       0.054759         1.4901 
  32   0.0000       0.070367         1.9148 
  33   0.0000       0.074970         2.0400 
  34   0.0000       0.081883         2.2282 
  35   0.0000       0.267665         7.2835 
  36   0.0000       0.292543         7.9605 
  37   0.0000       0.320238         8.7141 
  38   0.0000       0.343190         9.3387 
  39   0.0000       0.348824         9.4920 
  40   0.0000       0.353651         9.6233 
  41   0.0000       0.374336        10.1862 
  42   0.0000       0.384861        10.4726 
  43   0.0000       0.442531        12.0419 
  44   0.0000       0.445500        12.1227 
  45   0.0000       0.513386        13.9699 
  46   0.0000       0.513930        13.9847 
  47   0.0000       0.701620        19.0920 
  48   0.0000       0.728799        19.8316 
  49   0.0000       0.768354        20.9080 
  50   0.0000       0.771811        21.0020 
  51   0.0000       0.808852        22.0100 
  52   0.0000       0.833620        22.6840 
  53   0.0000       0.855761        23.2864 
  54   0.0000       0.857749        23.3405 
  55   0.0000       0.860919        23.4268 
  56   0.0000       0.869935        23.6721 
  57   0.0000       0.887313        24.1450 
  58   0.0000       0.894242        24.3336 
  59   0.0000       0.910305        24.7706 
  60   0.0000       0.951475        25.8909 
  61   0.0000       1.125366        30.6228 
  62   0.0000       1.169826        31.8326 
  63   0.0000       1.234089        33.5813 
  64   0.0000       1.238475        33.7006 
  65   0.0000       1.256866        34.2011 
  66   0.0000       1.388523        37.7836 
  67   0.0000       1.520403        41.3723 
  68   0.0000       1.564987        42.5854 
  69   0.0000       1.584531        43.1173 
  70   0.0000       1.656224        45.0682 
  71   0.0000       1.710671        46.5497 
  72   0.0000       1.767005        48.0827 
  73   0.0000       1.805057        49.1181 
  74   0.0000       1.842355        50.1330 
  75   0.0000       1.934074        52.6288 
  76   0.0000       1.969851        53.6024 
  77   0.0000       2.003214        54.5102 
  78   0.0000       2.030671        55.2574 
  79   0.0000       2.103295        57.2336 
  80   0.0000       2.121022        57.7159 
  81   0.0000       2.177856        59.2625 
  82   0.0000       2.187394        59.5220 
  83   0.0000       2.226883        60.5966 
  84   0.0000       2.260536        61.5123 
  85   0.0000       2.335525        63.5529 
  86   0.0000       2.450211        66.6736 
  87   0.0000       2.477103        67.4054 
  88   0.0000       2.702435        73.5370 
  89   0.0000       2.734040        74.3970 
  90   0.0000      13.412950       364.9849 
  91   0.0000      13.462337       366.3288 
  92   0.0000      13.730549       373.6272 
  93   0.0000      13.781424       375.0116 
  94   0.0000      25.269302       687.6127 

                 SPIN DOWN ORBITALS
  NO   OCC          E(Eh)            E(eV) 
   0   1.0000     -19.848537      -540.1062 
   1   1.0000     -10.728417      -291.9351 
   2   1.0000     -10.728371      -291.9338 
   3   1.0000     -10.618391      -288.9411 
   4   1.0000     -10.618389      -288.9411 
   5   1.0000      -1.433620       -39.0108 
   6   1.0000      -1.108747       -30.1705 
   7   1.0000      -1.021091       -27.7853 
   8   1.0000      -0.930429       -25.3183 
   9   1.0000      -0.902459       -24.5572 
  10   1.0000      -0.806187       -21.9375 
  11   1.0000      -0.762143       -20.7390 
  12   1.0000      -0.759693       -20.6723 
  13   1.0000      -0.689861       -18.7721 
  14   1.0000      -0.651438       -17.7265 
  15   1.0000      -0.646678       -17.5970 
  16   1.0000      -0.623565       -16.9681 
  17   1.0000      -0.622706       -16.9447 
  18   1.0000      -0.609991       -16.5987 
  19   1.0000      -0.598526       -16.2867 
  20   0.0000      -0.383778       -10.4431 
  21   0.0000      -0.083063        -2.2603 
  22   0.0000      -0.030975        -0.8429 
  23   0.0000      -0.029019        -0.7896 
  24   0.0000      -0.014218        -0.3869 
  25   0.0000       0.000097         0.0026 
  26   0.0000       0.025244         0.6869 
  27   0.0000       0.028101         0.7647 
  28   0.0000       0.044545         1.2121 
  29   0.0000       0.051690         1.4066 
  30   0.0000       0.053845         1.4652 
  31   0.0000       0.055954         1.5226 
  32   0.0000       0.073264         1.9936 
  33   0.0000       0.077487         2.1085 
  34   0.0000       0.094781         2.5791 
  35   0.0000       0.274280         7.4635 
  36   0.0000       0.295533         8.0419 
  37   0.0000       0.321932         8.7602 
  38   0.0000       0.344688         9.3794 
  39   0.0000       0.354044         9.6340 
  40   0.0000       0.358159         9.7460 
  41   0.0000       0.376804        10.2534 
  42   0.0000       0.389603        10.6016 
  43   0.0000       0.448012        12.1910 
  44   0.0000       0.448810        12.2127 
  45   0.0000       0.515164        14.0183 
  46   0.0000       0.518237        14.1019 
  47   0.0000       0.713693        19.4206 
  48   0.0000       0.735929        20.0257 
  49   0.0000       0.776928        21.1413 
  50   0.0000       0.782815        21.3015 
  51   0.0000       0.817001        22.2317 
  52   0.0000       0.840712        22.8769 
  53   0.0000       0.856910        23.3177 
  54   0.0000       0.859625        23.3916 
  55   0.0000       0.862090        23.4587 
  56   0.0000       0.881027        23.9740 
  57   0.0000       0.892637        24.2899 
  58   0.0000       0.895986        24.3810 
  59   0.0000       0.953858        25.9558 
  60   0.0000       0.963211        26.2103 
  61   0.0000       1.134140        30.8615 
  62   0.0000       1.175918        31.9984 
  63   0.0000       1.242940        33.8221 
  64   0.0000       1.248259        33.9669 
  65   0.0000       1.265496        34.4359 
  66   0.0000       1.409937        38.3663 
  67   0.0000       1.525533        41.5119 
  68   0.0000       1.578739        42.9597 
  69   0.0000       1.607524        43.7430 
  70   0.0000       1.665617        45.3238 
  71   0.0000       1.727314        47.0026 
  72   0.0000       1.769737        48.1570 
  73   0.0000       1.808451        49.2105 
  74   0.0000       1.844780        50.1990 
  75   0.0000       1.946050        52.9547 
  76   0.0000       1.985164        54.0191 
  77   0.0000       2.012147        54.7533 
  78   0.0000       2.042696        55.5846 
  79   0.0000       2.108001        57.3616 
  80   0.0000       2.126627        57.8685 
  81   0.0000       2.180285        59.3286 
  82   0.0000       2.193696        59.6935 
  83   0.0000       2.229992        60.6812 
  84   0.0000       2.269315        61.7512 
  85   0.0000       2.347117        63.8683 
  86   0.0000       2.455452        66.8163 
  87   0.0000       2.494234        67.8716 
  88   0.0000       2.712410        73.8084 
  89   0.0000       2.739880        74.5559 
  90   0.0000      13.413609       365.0029 
  91   0.0000      13.463094       366.3494 
  92   0.0000      13.731248       373.6463 
  93   0.0000      13.782072       375.0292 
  94   0.0000      25.300435       688.4598 

                    ********************************
                    * MULLIKEN POPULATION ANALYSIS *
                    ********************************

--------------------------------------------
MULLIKEN ATOMIC CHARGES AND SPIN POPULATIONS
--------------------------------------------
   0 C :   -0.668998    0.026139
   1 C :   -0.246784   -0.017685
   2 O :   -0.136188    0.728798
   3 C :   -0.246784   -0.017685
   4 C :   -0.668997    0.026139
   5 H :    0.290617    0.001409
   6 H :    0.285947    0.000403
   7 H :    0.276949    0.007040
   8 H :    0.336944    0.102510
   9 H :    0.293418    0.015787
  10 H :    0.293418    0.015787
  11 H :    0.336944    0.102510
  12 H :    0.276949    0.007040
  13 H :    0.290617    0.001409
  14 H :    0.285947    0.000403
Sum of atomic charges         :    1.0000000
Sum of atomic spin populations:    1.0000000

-----------------------------------------------------
MULLIKEN REDUCED ORBITAL CHARGES AND SPIN POPULATIONS
-----------------------------------------------------
CHARGE
  0 C s       :     3.417969  s :     3.417969
      pz      :     1.115196  p :     3.216220
      px      :     0.951742
      py      :     1.149282
      dz2     :     0.008157  d :     0.034808
      dxz     :     0.007903
      dyz     :     0.004411
      dx2y2   :     0.009625
      dxy     :     0.004711
  1 C s       :     3.318066  s :     3.318066
      pz      :     1.026266  p :     2.862448
      px      :     0.750535
      py      :     1.085647
      dz2     :     0.015856  d :     0.066269
      dxz     :     0.017325
      dyz     :     0.005111
      dx2y2   :     0.018183
      dxy     :     0.009795
  2 O s       :     3.831790  s :     3.831790
      pz      :     1.696456  p :     4.268584
      px      :     1.306825
      py      :     1.265303
      dz2     :     0.005635  d :     0.035814
      dxz     :     0.012748
      dyz     :     0.004428
      dx2y2   :     0.006981
      dxy     :     0.006023
  3 C s       :     3.318066  s :     3.318066
      pz      :     1.026266  p :     2.862448
      px      :     0.750535
      py      :     1.085647
      dz2     :     0.015856  d :     0.066269
      dxz     :     0.017325
      dyz     :     0.005111
      dx2y2   :     0.018183
      dxy     :     0.009795
  4 C s       :     3.417969  s :     3.417969
      pz      :     1.115196  p :     3.216220
      px      :     0.951742
      py      :     1.149282
      dz2     :     0.008157  d :     0.034808
      dxz     :     0.007903
      dyz     :     0.004411
      dx2y2   :     0.009625
      dxy     :     0.004711
  5 H s       :     0.709383  s :     0.709383
  6 H s       :     0.714053  s :     0.714053
  7 H s       :     0.723051  s :     0.723051
  8 H s       :     0.663056  s :     0.663056
  9 H s       :     0.706582  s :     0.706582
 10 H s       :     0.706582  s :     0.706582
 11 H s       :     0.663056  s :     0.663056
 12 H s       :     0.723051  s :     0.723051
 13 H s       :     0.709383  s :     0.709383
 14 H s       :     0.714053  s :     0.714053

SPIN
  0 C s       :     0.001752  s :     0.001752
      pz      :     0.001319  p :     0.023937
      px      :     0.018207
      py      :     0.004412
      dz2     :     0.000160  d :     0.000450
      dxz     :     0.000297
      dyz     :     0.000045
      dx2y2   :     0.000051
      dxy     :    -0.000103
  1 C s       :    -0.011129  s :    -0.011129
      pz      :    -0.011087  p :    -0.013090
      px      :    -0.014964
      py      :     0.012960
      dz2     :     0.000826  d :     0.006534
      dxz     :    -0.000103
      dyz     :     0.000867
      dx2y2   :     0.003953
      dxy     :     0.000990
  2 O s       :     0.020154  s :     0.020154
      pz      :     0.009339  p :     0.710572
      px      :     0.073519
      py      :     0.627713
      dz2     :     0.000145  d :    -0.001927
      dxz     :    -0.000186
      dyz     :    -0.000713
      dx2y2   :    -0.000645
      dxy     :    -0.000529
  3 C s       :    -0.011129  s :    -0.011129
      pz      :    -0.011087  p :    -0.013090
      px      :    -0.014964
      py      :     0.012960
      dz2     :     0.000826  d :     0.006534
      dxz     :    -0.000103
      dyz     :     0.000867
      dx2y2   :     0.003953
      dxy     :     0.000990
  4 C s       :     0.001752  s :     0.001752
      pz      :     0.001319  p :     0.023937
      px      :     0.018207
      py      :     0.004412
      dz2     :     0.000160  d :     0.000450
      dxz     :     0.000297
      dyz     :     0.000045
      dx2y2   :     0.000051
      dxy     :    -0.000103
  5 H s       :     0.001409  s :     0.001409
  6 H s       :     0.000403  s :     0.000403
  7 H s       :     0.007040  s :     0.007040
  8 H s       :     0.102510  s :     0.102510
  9 H s       :     0.015787  s :     0.015787
 10 H s       :     0.015787  s :     0.015787
 11 H s       :     0.102510  s :     0.102510
 12 H s       :     0.007040  s :     0.007040
 13 H s       :     0.001409  s :     0.001409
 14 H s       :     0.000403  s :     0.000403


                     *******************************
                     * LOEWDIN POPULATION ANALYSIS *
                     *******************************

-------------------------------------------
LOEWDIN ATOMIC CHARGES AND SPIN POPULATIONS
-------------------------------------------
   0 C :   -0.357932    0.025179
   1 C :   -0.084128    0.018749
   2 O :    0.130191    0.705265
   3 C :   -0.084128    0.018749
   4 C :   -0.357932    0.025179
   5 H :    0.176548    0.000553
   6 H :    0.168170    0.000588
   7 H :    0.163918    0.005001
   8 H :    0.207566    0.084759
   9 H :    0.160763    0.012540
  10 H :    0.160763    0.012540
  11 H :    0.207566    0.084759
  12 H :    0.163918    0.005001
  13 H :    0.176548    0.000553
  14 H :    0.168170    0.000588

----------------------------------------------------
LOEWDIN REDUCED ORBITAL CHARGES AND SPIN POPULATIONS
----------------------------------------------------
CHARGE
  0 C s       :     2.960038  s :     2.960038
      pz      :     1.134420  p :     3.331724
      px      :     1.049442
      py      :     1.147862
      dz2     :     0.014395  d :     0.066170
      dxz     :     0.016552
      dyz     :     0.007149
      dx2y2   :     0.018167
      dxy     :     0.009908
  1 C s       :     2.930437  s :     2.930437
      pz      :     1.058240  p :     3.014917
      px      :     0.889910
      py      :     1.066767
      dz2     :     0.030780  d :     0.138774
      dxz     :     0.039869
      dyz     :     0.009502
      dx2y2   :     0.038234
      dxy     :     0.020389
  2 O s       :     3.480757  s :     3.480757
      pz      :     1.715871  p :     4.314282
      px      :     1.333108
      py      :     1.265303
      dz2     :     0.011744  d :     0.074770
      dxz     :     0.025472
      dyz     :     0.007293
      dx2y2   :     0.015747
      dxy     :     0.014513
  3 C s       :     2.930437  s :     2.930437
      pz      :     1.058240  p :     3.014917
      px      :     0.889910
      py      :     1.066767
      dz2     :     0.030780  d :     0.138774
      dxz     :     0.039869
      dyz     :     0.009502
      dx2y2   :     0.038234
      dxy     :     0.020389
  4 C s       :     2.960038  s :     2.960038
      pz      :     1.134420  p :     3.331724
      px      :     1.049442
      py      :     1.147862
      dz2     :     0.014395  d :     0.066170
      dxz     :     0.016552
      dyz     :     0.007149
      dx2y2   :     0.018167
      dxy     :     0.009908
  5 H s       :     0.823452  s :     0.823452
  6 H s       :     0.831830  s :     0.831830
  7 H s       :     0.836082  s :     0.836082
  8 H s       :     0.792434  s :     0.792434
  9 H s       :     0.839237  s :     0.839237
 10 H s       :     0.839237  s :     0.839237
 11 H s       :     0.792434  s :     0.792434
 12 H s       :     0.836082  s :     0.836082
 13 H s       :     0.823452  s :     0.823452
 14 H s       :     0.831830  s :     0.831830

SPIN
  0 C s       :     0.002008  s :     0.002008
      pz      :     0.001220  p :     0.022601
      px      :     0.016905
      py      :     0.004476
      dz2     :     0.000294  d :     0.000570
      dxz     :     0.000381
      dyz     :     0.000091
      dx2y2   :     0.000052
      dxy     :    -0.000248
  1 C s       :    -0.004434  s :    -0.004434
      pz      :    -0.007208  p :     0.007972
      px      :    -0.010549
      py      :     0.025729
      dz2     :     0.001468  d :     0.015211
      dxz     :     0.000391
      dyz     :     0.002128
      dx2y2   :     0.008104
      dxy     :     0.003120
  2 O s       :     0.016917  s :     0.016917
      pz      :     0.007086  p :     0.690592
      px      :     0.067166
      py      :     0.616341
      dz2     :    -0.000054  d :    -0.002245
      dxz     :    -0.000794
      dyz     :    -0.000278
      dx2y2   :    -0.000370
      dxy     :    -0.000748
  3 C s       :    -0.004434  s :    -0.004434
      pz      :    -0.007208  p :     0.007972
      px      :    -0.010549
      py      :     0.025729
      dz2     :     0.001468  d :     0.015211
      dxz     :     0.000391
      dyz     :     0.002128
      dx2y2   :     0.008104
      dxy     :     0.003120
  4 C s       :     0.002008  s :     0.002008
      pz      :     0.001220  p :     0.022601
      px      :     0.016905
      py      :     0.004476
      dz2     :     0.000294  d :     0.000570
      dxz     :     0.000381
      dyz     :     0.000091
      dx2y2   :     0.000052
      dxy     :    -0.000248
  5 H s       :     0.000553  s :     0.000553
  6 H s       :     0.000588  s :     0.000588
  7 H s       :     0.005001  s :     0.005001
  8 H s       :     0.084759  s :     0.084759
  9 H s       :     0.012540  s :     0.012540
 10 H s       :     0.012540  s :     0.012540
 11 H s       :     0.084759  s :     0.084759
 12 H s       :     0.005001  s :     0.005001
 13 H s       :     0.000553  s :     0.000553
 14 H s       :     0.000588  s :     0.000588


                      *****************************
                      * MAYER POPULATION ANALYSIS *
                      *****************************

  NA   - Mulliken gross atomic population
  ZA   - Total nuclear charge
  QA   - Mulliken gross atomic charge
  VA   - Mayer's total valence
  BVA  - Mayer's bonded valence
  FA   - Mayer's free valence

  ATOM       NA         ZA         QA         VA         BVA        FA
  0 C      6.6690     6.0000    -0.6690     3.6419     3.6411     0.0008
  1 C      6.2468     6.0000    -0.2468     3.5525     3.5488     0.0036
  2 O      8.1362     8.0000    -0.1362     2.4463     1.9711     0.4752
  3 C      6.2468     6.0000    -0.2468     3.5525     3.5488     0.0036
  4 C      6.6690     6.0000    -0.6690     3.6419     3.6411     0.0008
  5 H      0.7094     1.0000     0.2906     0.8844     0.8844     0.0000
  6 H      0.7141     1.0000     0.2859     0.8865     0.8865    -0.0000
  7 H      0.7231     1.0000     0.2769     0.8902     0.8902     0.0001
  8 H      0.6631     1.0000     0.3369     0.8472     0.8369     0.0103
  9 H      0.7066     1.0000     0.2934     0.8752     0.8750     0.0003
 10 H      0.7066     1.0000     0.2934     0.8752     0.8750     0.0003
 11 H      0.6631     1.0000     0.3369     0.8472     0.8369     0.0103
 12 H      0.7231     1.0000     0.2769     0.8902     0.8902     0.0001
 13 H      0.7094     1.0000     0.2906     0.8844     0.8844     0.0000
 14 H      0.7141     1.0000     0.2859     0.8865     0.8865    -0.0000

  Mayer bond orders larger than 0.100000
B(  0-C ,  1-C ) :   0.9626 B(  0-C ,  5-H ) :   0.8849 B(  0-C ,  6-H ) :   0.8927 
B(  0-C ,  7-H ) :   0.8960 B(  1-C ,  2-O ) :   0.9101 B(  1-C ,  8-H ) :   0.7950 
B(  1-C ,  9-H ) :   0.8649 B(  2-O ,  3-C ) :   0.9101 B(  3-C ,  4-C ) :   0.9626 
B(  3-C , 10-H ) :   0.8649 B(  3-C , 11-H ) :   0.7950 B(  4-C , 12-H ) :   0.8960 
B(  4-C , 13-H ) :   0.8849 B(  4-C , 14-H ) :   0.8927 

-------
TIMINGS
-------

Total SCF time: 0 days 0 hours 2 min 23 sec 

Total time                  ....     143.692 sec
Sum of individual times     ....     131.803 sec  ( 91.7%)

Fock matrix formation       ....     107.772 sec  ( 75.0%)
  Split-RI-J                ....       8.856 sec  (  8.2% of F)
  Chain of spheres X        ....      22.086 sec  ( 20.5% of F)
  XC integration            ....      34.728 sec  ( 32.2% of F)
    Basis function eval.    ....       2.746 sec  (  7.9% of XC)
    Density eval.           ....       2.671 sec  (  7.7% of XC)
    XC-Functional eval.     ....       1.947 sec  (  5.6% of XC)
    XC-Potential eval.      ....       1.485 sec  (  4.3% of XC)
Diagonalization             ....       2.964 sec  (  2.1%)
Density matrix formation    ....       0.111 sec  (  0.1%)
Population analysis         ....       5.047 sec  (  3.5%)
Initial guess               ....       0.007 sec  (  0.0%)
Orbital Transformation      ....       0.000 sec  (  0.0%)
Orbital Orthonormalization  ....       0.000 sec  (  0.0%)
DIIS solution               ....       9.763 sec  (  6.8%)
Grid generation             ....       6.139 sec  (  4.3%)

Maximum memory used throughout the entire SCF-calculation: 51.7 MB


-------------------------------------------------------------------------------
                          DFT DISPERSION CORRECTION                            
                                                                               
                              DFTD3 V3.1  Rev 1                                
                          USING Becke-Johnson damping                          
-------------------------------------------------------------------------------
The PBEh-3c composite method is recognized
Using three-body term ABC
Active option DFTDOPT                   ...         4   

molecular C6(AA) [au] = 1426.944609 


            DFT-D V3
 parameters
 s6 scaling factor         :     1.0000 
 a1 scaling factor         :     0.4860 
 s8 scaling factor         :     0.0000 
 a2 scaling factor         :     4.5000 
 Damping factor alpha9(ATM):    16.0000 
 ad hoc parameters k1-k3   :    16.0000     1.3333    -4.0000 

 Edisp/kcal,au: -3.316684696889  -0.005285472937 
 E6   /kcal   :  -3.322193564 
 E8   /kcal   :  -0.000000000 
 E6(ABC)      :   0.005508867 
 % E8         :   0.000000000 
 % E6(ABC)    :  -0.166095586 

-------------------------   ----------------
Dispersion correction           -0.005285473
-------------------------   ----------------

------------------   -----------------
gCP correction             0.032191716
------------------   -----------------

-------------------------   --------------------
FINAL SINGLE POINT ENERGY      -232.802460464205
-------------------------   --------------------


                            ***************************************
                            *     ORCA property calculations      *
                            ***************************************

                                    ---------------------
                                    Active property flags
                                    ---------------------
   (+) Dipole Moment


------------------------------------------------------------------------------
                       ORCA ELECTRIC PROPERTIES CALCULATION
------------------------------------------------------------------------------

Dipole Moment Calculation                       ... on
Quadrupole Moment Calculation                   ... off
Polarizability Calculation                      ... off
GBWName                                         ... pbeh-3c.gbw
Electron density                                ... pbeh-3c.scfp
The origin for moment calculation is the CENTER OF MASS  = (-0.000000,  0.000000 -0.125709)

-------------
DIPOLE MOMENT
-------------
                                X             Y             Z
Electronic contribution:      0.00000       0.00000      -0.26650
Nuclear contribution   :      0.00000       0.00000       0.92845
                        -----------------------------------------
Total Dipole Moment    :      0.00000       0.00000       0.66195
                        -----------------------------------------
Magnitude (a.u.)       :      0.66195
Magnitude (Debye)      :      1.68254



--------------------
Rotational spectrum 
--------------------
 
Rotational constants in cm-1:     0.619892     0.072759     0.070923 
Rotational constants in MHz : 18583.884307  2181.261281  2126.214476 

 Dipole components along the rotational axes: 
x,y,z [a.u.] :    -0.000000     0.661949     0.000000 
x,y,z [Debye]:    -0.000000     1.682540     0.000000 

 

Timings for individual modules:

Sum of individual times         ...      146.912 sec (=   2.449 min)
GTO integral calculation        ...        2.359 sec (=   0.039 min)   1.6 %
SCF iterations                  ...      144.554 sec (=   2.409 min)  98.4 %
                             ****ORCA TERMINATED NORMALLY****
TOTAL RUN TIME: 0 days 0 hours 2 minutes 43 seconds 76 msec
