
                                 *****************
                                 * O   R   C   A *
                                 *****************

                                            #,                                       
                                            ###                                      
                                            ####                                     
                                            #####                                    
                                            ######                                   
                                           ########,                                 
                                     ,,################,,,,,                         
                               ,,#################################,,                 
                          ,,##########################################,,             
                       ,#########################################, ''#####,          
                    ,#############################################,,   '####,        
                  ,##################################################,,,,####,       
                ,###########''''           ''''###############################       
              ,#####''   ,,,,##########,,,,          '''####'''          '####       
            ,##' ,,,,###########################,,,                        '##       
           ' ,,###''''                  '''############,,,                           
         ,,##''                                '''############,,,,        ,,,,,,###''
      ,#''                                            '''#######################'''  
     '                                                          ''''####''''         
             ,#######,   #######,   ,#######,      ##                                
            ,#'     '#,  ##    ##  ,#'     '#,    #''#        ######   ,####,        
            ##       ##  ##   ,#'  ##            #'  '#       #        #'  '#        
            ##       ##  #######   ##           ,######,      #####,   #    #        
            '#,     ,#'  ##    ##  '#,     ,#' ,#      #,         ##   #,  ,#        
             '#######'   ##     ##  '#######'  #'      '#     #####' # '####'        



                  #######################################################
                  #                        -***-                        #
                  #          Department of theory and spectroscopy      #
                  #    Directorship and core code : Frank Neese         #
                  #        Max Planck Institute fuer Kohlenforschung    #
                  #                Kaiser Wilhelm Platz 1               #
                  #                 D-45470 Muelheim/Ruhr               #
                  #                      Germany                        #
                  #                                                     #
                  #                  All rights reserved                #
                  #                        -***-                        #
                  #######################################################


                         Program Version 5.0.3 -  RELEASE  -


 With contributions from (in alphabetic order):
   Daniel Aravena         : Magnetic Suceptibility
   Michael Atanasov       : Ab Initio Ligand Field Theory (pilot matlab implementation)
   Alexander A. Auer      : GIAO ZORA, VPT2 properties, NMR spectrum
   Ute Becker             : Parallelization
   Giovanni Bistoni       : ED, misc. LED, open-shell LED, HFLD
   Martin Brehm           : Molecular dynamics
   Dmytro Bykov           : SCF Hessian
   Vijay G. Chilkuri      : MRCI spin determinant printing, contributions to CSF-ICE
   Dipayan Datta          : RHF DLPNO-CCSD density
   Achintya Kumar Dutta   : EOM-CC, STEOM-CC
   Dmitry Ganyushin       : Spin-Orbit,Spin-Spin,Magnetic field MRCI
   Miquel Garcia          : C-PCM and meta-GGA Hessian, CC/C-PCM, Gaussian charge scheme
   Yang Guo               : DLPNO-NEVPT2, F12-NEVPT2, CIM, IAO-localization
   Andreas Hansen         : Spin unrestricted coupled pair/coupled cluster methods
   Benjamin Helmich-Paris : MC-RPA, TRAH-SCF, COSX integrals
   Lee Huntington         : MR-EOM, pCC
   Robert Izsak           : Overlap fitted RIJCOSX, COSX-SCS-MP3, EOM
   Marcus Kettner         : VPT2
   Christian Kollmar      : KDIIS, OOCD, Brueckner-CCSD(T), CCSD density, CASPT2, CASPT2-K
   Simone Kossmann        : Meta GGA functionals, TD-DFT gradient, OOMP2, MP2 Hessian
   Martin Krupicka        : Initial AUTO-CI
   Lucas Lang             : DCDCAS
   Marvin Lechner         : AUTO-CI (C++ implementation), FIC-MRCC
   Dagmar Lenk            : GEPOL surface, SMD
   Dimitrios Liakos       : Extrapolation schemes; Compound Job, initial MDCI parallelization
   Dimitrios Manganas     : Further ROCIS development; embedding schemes
   Dimitrios Pantazis     : SARC Basis sets
   Anastasios Papadopoulos: AUTO-CI, single reference methods and gradients
   Taras Petrenko         : DFT Hessian,TD-DFT gradient, ASA, ECA, R-Raman, ABS, FL, XAS/XES, NRVS
   Peter Pinski           : DLPNO-MP2, DLPNO-MP2 Gradient
   Christoph Reimann      : Effective Core Potentials
   Marius Retegan         : Local ZFS, SOC
   Christoph Riplinger    : Optimizer, TS searches, QM/MM, DLPNO-CCSD(T), (RO)-DLPNO pert. Triples
   Tobias Risthaus        : Range-separated hybrids, TD-DFT gradient, RPA, STAB
   Michael Roemelt        : Original ROCIS implementation
   Masaaki Saitow         : Open-shell DLPNO-CCSD energy and density
   Barbara Sandhoefer     : DKH picture change effects
   Avijit Sen             : IP-ROCIS
   Kantharuban Sivalingam : CASSCF convergence, NEVPT2, FIC-MRCI
   Bernardo de Souza      : ESD, SOC TD-DFT
   Georgi Stoychev        : AutoAux, RI-MP2 NMR, DLPNO-MP2 response
   Willem Van den Heuvel  : Paramagnetic NMR
   Boris Wezisla          : Elementary symmetry handling
   Frank Wennmohs         : Technical directorship


 We gratefully acknowledge several colleagues who have allowed us to
 interface, adapt or use parts of their codes:
   Stefan Grimme, W. Hujo, H. Kruse, P. Pracht,  : VdW corrections, initial TS optimization,
                  C. Bannwarth, S. Ehlert          DFT functionals, gCP, sTDA/sTD-DF
   Ed Valeev, F. Pavosevic, A. Kumar             : LibInt (2-el integral package), F12 methods
   Garnet Chan, S. Sharma, J. Yang, R. Olivares  : DMRG
   Ulf Ekstrom                                   : XCFun DFT Library
   Mihaly Kallay                                 : mrcc  (arbitrary order and MRCC methods)
   Jiri Pittner, Ondrej Demel                    : Mk-CCSD
   Frank Weinhold                                : gennbo (NPA and NBO analysis)
   Christopher J. Cramer and Donald G. Truhlar   : smd solvation model
   Lars Goerigk                                  : TD-DFT with DH, B97 family of functionals
   V. Asgeirsson, H. Jonsson                     : NEB implementation
   FAccTs GmbH                                   : IRC, NEB, NEB-TS, DLPNO-Multilevel, CI-OPT
                                                   MM, QMMM, 2- and 3-layer-ONIOM, Crystal-QMMM,
                                                   LR-CPCM, SF, NACMEs, symmetry and pop. for TD-DFT,
                                                   nearIR, NL-DFT gradient (VV10), updates on ESD,
                                                   ML-optimized integration grids
   S Lehtola, MJT Oliveira, MAL Marques          : LibXC Library
   Liviu Ungur et al                             : ANISO software


 Your calculation uses the libint2 library for the computation of 2-el integrals
 For citations please refer to: http://libint.valeyev.net

 Your ORCA version has been built with support for libXC version: 5.1.0
 For citations please refer to: https://tddft.org/programs/libxc/

 This ORCA versions uses:
   CBLAS   interface :  Fast vector & matrix operations
   LAPACKE interface :  Fast linear algebra routines
   SCALAPACK package :  Parallel linear algebra routines
   Shared memory     :  Shared parallel matrices
   BLAS/LAPACK       :  OpenBLAS 0.3.15  USE64BITINT DYNAMIC_ARCH NO_AFFINITY Haswell SINGLE_THREADED
        Core in use  :  Haswell
   Copyright (c) 2011-2014, The OpenBLAS Project




***************************************
The coordinates will be read from file: AD5.xyz
***************************************


Your calculation utilizes the geometrical counterpoise correction gCP
Please cite in your paper:
H.Kruse, S. Grimme J.Chem.Phys., 136, (2012), 154101 
   

Your calculation utilizes the atom-pairwise dispersion correction
with the Becke-Johnson damping scheme (D3BJ)
Cite in your paper:
S.Grimme, S.Ehrlich, L.Goerigk, J Comput Chem, (2011), 32, 1456–1465 
S.Grimme, J.Antony, S.Ehrlich and H.Krieg, J.Chem.Phys., 132, (2010), 154104 
   

Your calculation employs the composite approach PBEh-3c.
Please cite in your paper:
S. Grimme, J. G. Brandenburg, C. Bannwarth, A. Hansen J.Chem.Phys., 143, (2015), 054107 
   

================================================================================

----- Orbital basis set information -----
Your calculation utilizes the basis: def2-mSVP

----- AuxJ basis set information -----
Your calculation utilizes the auxiliary basis: def2/J
   F. Weigend, Phys. Chem. Chem. Phys. 8, 1057 (2006).

================================================================================
                                        WARNINGS
                       Please study these warnings very carefully!
================================================================================


INFO   : the flag for use of the SHARK integral package has been found!

================================================================================
                                       INPUT FILE
================================================================================
NAME = pbeh-3c.inp
|  1> ! PBEh-3c def2/J TightSCF DefGrid3
|  2> 
|  3> %maxcore 60000
|  4> 
|  5> %pal
|  6> nprocs 4
|  7> end
|  8> 
|  9> *xyzfile 0 1 AD5.xyz
| 10> 
| 11>                          ****END OF INPUT****
================================================================================

                       ****************************
                       * Single Point Calculation *
                       ****************************

---------------------------------
CARTESIAN COORDINATES (ANGSTROEM)
---------------------------------
  C     -1.951744    0.212836    0.000000
  C     -1.951744   -0.625637    1.275957
  C     -1.951744   -0.625637   -1.275957
  C     -1.951744    0.224948    2.543414
  C     -1.951744    0.224948   -2.543414
  H     -2.830473    0.872296    0.000000
  H     -1.073014    0.872296    0.000000
  H     -2.829754   -1.283735    1.273933
  H     -1.073733   -1.283735    1.273933
  H     -2.829754   -1.283735   -1.273933
  H     -1.073733   -1.283735   -1.273933
  H     -2.835769    0.869163    2.579899
  H     -1.067718    0.869163    2.579899
  H     -1.951744   -0.396732    3.443617
  H     -2.835769    0.869163   -2.579899
  H     -1.067718    0.869163   -2.579899
  H     -1.951744   -0.396732   -3.443617
  C      1.951744   -0.212836    0.000000
  C      1.951744    0.625637   -1.275957
  C      1.951744    0.625637    1.275957
  C      1.951744   -0.224948   -2.543414
  C      1.951744   -0.224948    2.543414
  H      1.073014   -0.872296    0.000000
  H      2.830473   -0.872296    0.000000
  H      1.073733    1.283735   -1.273933
  H      2.829754    1.283735   -1.273933
  H      1.073733    1.283735    1.273933
  H      2.829754    1.283735    1.273933
  H      1.067718   -0.869163   -2.579899
  H      2.835769   -0.869163   -2.579899
  H      1.951744    0.396732   -3.443617
  H      1.067718   -0.869163    2.579899
  H      2.835769   -0.869163    2.579899
  H      1.951744    0.396732    3.443617

----------------------------
CARTESIAN COORDINATES (A.U.)
----------------------------
  NO LB      ZA    FRAG     MASS         X           Y           Z
   0 C     6.0000    0    12.011   -3.688261    0.402202    0.000000
   1 C     6.0000    0    12.011   -3.688261   -1.182283    2.411210
   2 C     6.0000    0    12.011   -3.688261   -1.182283   -2.411210
   3 C     6.0000    0    12.011   -3.688261    0.425090    4.806355
   4 C     6.0000    0    12.011   -3.688261    0.425090   -4.806355
   5 H     1.0000    0     1.008   -5.348818    1.648401    0.000000
   6 H     1.0000    0     1.008   -2.027703    1.648401    0.000000
   7 H     1.0000    0     1.008   -5.347460   -2.425908    2.407385
   8 H     1.0000    0     1.008   -2.029062   -2.425908    2.407385
   9 H     1.0000    0     1.008   -5.347460   -2.425908   -2.407385
  10 H     1.0000    0     1.008   -2.029062   -2.425908   -2.407385
  11 H     1.0000    0     1.008   -5.358826    1.642480    4.875302
  12 H     1.0000    0     1.008   -2.017695    1.642480    4.875302
  13 H     1.0000    0     1.008   -3.688261   -0.749715    6.507493
  14 H     1.0000    0     1.008   -5.358826    1.642480   -4.875302
  15 H     1.0000    0     1.008   -2.017695    1.642480   -4.875302
  16 H     1.0000    0     1.008   -3.688261   -0.749715   -6.507493
  17 C     6.0000    0    12.011    3.688261   -0.402202    0.000000
  18 C     6.0000    0    12.011    3.688261    1.182283   -2.411210
  19 C     6.0000    0    12.011    3.688261    1.182283    2.411210
  20 C     6.0000    0    12.011    3.688261   -0.425090   -4.806355
  21 C     6.0000    0    12.011    3.688261   -0.425090    4.806355
  22 H     1.0000    0     1.008    2.027703   -1.648401    0.000000
  23 H     1.0000    0     1.008    5.348818   -1.648401    0.000000
  24 H     1.0000    0     1.008    2.029062    2.425908   -2.407385
  25 H     1.0000    0     1.008    5.347460    2.425908   -2.407385
  26 H     1.0000    0     1.008    2.029062    2.425908    2.407385
  27 H     1.0000    0     1.008    5.347460    2.425908    2.407385
  28 H     1.0000    0     1.008    2.017695   -1.642480   -4.875302
  29 H     1.0000    0     1.008    5.358826   -1.642480   -4.875302
  30 H     1.0000    0     1.008    3.688261    0.749715   -6.507493
  31 H     1.0000    0     1.008    2.017695   -1.642480    4.875302
  32 H     1.0000    0     1.008    5.358826   -1.642480    4.875302
  33 H     1.0000    0     1.008    3.688261    0.749715    6.507493

--------------------------------
INTERNAL COORDINATES (ANGSTROEM)
--------------------------------
 C      0   0   0     0.000000000000     0.00000000     0.00000000
 C      1   0   0     1.526795586000     0.00000000     0.00000000
 C      1   2   0     1.526795586000   113.37955321     0.00000000
 C      2   1   3     1.526414368704   112.82435884   180.00000000
 C      3   1   2     1.526414368704   112.82435884   180.00000000
 H      1   2   3     1.098659469729   109.24664346   122.09490919
 H      1   2   3     1.098659549711   109.24664201   237.90509374
 H      2   1   3     1.097268995608   109.13711245   302.11477711
 H      2   1   3     1.097269075626   109.13711100    57.88522583
 H      3   1   2     1.097268995608   109.13711245    57.88522289
 H      3   1   2     1.097269075626   109.13711100   302.11477417
 H      4   2   1     1.094460965283   110.83526130    59.79626183
 H      4   2   1     1.094461046056   110.83525969   300.20373536
 H      4   2   1     1.094007427947   111.50563240   180.00000085
 H      5   3   1     1.094460965283   110.83526130   300.20373817
 H      5   3   1     1.094461046056   110.83525969    59.79626464
 H      5   3   1     1.094007427947   111.50563240   180.00000085
 C      7   1   2     3.213514036396   123.37741142    62.27414511
 C     18   7   1     1.526795586000    79.31302901   121.73819438
 C     18   7   1     1.526795586000    79.31302901   238.26180562
 C     19  18   7     1.526414368704   112.82435884   253.31069877
 C     20  18   7     1.526414368704   112.82435884   106.68930123
 H     18   7   1     1.098659549711    56.62258858     0.00000000
 H     18   7   1     1.098659469729   162.84831859     0.00000000
 H     19  18   7     1.097269075626   109.13711100    15.42547294
 H     19  18   7     1.097268995608   109.13711245   131.19592166
 H     20  18   7     1.097269075626   109.13711100   344.57452706
 H     20  18   7     1.097268995608   109.13711245   228.80407834
 H     21  19  18     1.094461046056   110.83525969    59.79626464
 H     21  19  18     1.094460965283   110.83526130   300.20373817
 H     21  19  18     1.094007427947   111.50563240   180.00000085
 H     22  20  18     1.094461046056   110.83525969   300.20373536
 H     22  20  18     1.094460965283   110.83526130    59.79626183
 H     22  20  18     1.094007427947   111.50563240   180.00000085

---------------------------
INTERNAL COORDINATES (A.U.)
---------------------------
 C      0   0   0     0.000000000000     0.00000000     0.00000000
 C      1   0   0     2.885225520019     0.00000000     0.00000000
 C      1   2   0     2.885225520019   113.37955321     0.00000000
 C      2   1   3     2.884505123733   112.82435884   180.00000000
 C      3   1   2     2.884505123733   112.82435884   180.00000000
 H      1   2   3     2.076165512226   109.24664346   122.09490919
 H      1   2   3     2.076165663370   109.24664201   237.90509374
 H      2   1   3     2.073537896943   109.13711245   302.11477711
 H      2   1   3     2.073538048154   109.13711100    57.88522583
 H      3   1   2     2.073537896943   109.13711245    57.88522289
 H      3   1   2     2.073538048154   109.13711100   302.11477417
 H      4   2   1     2.068231488652   110.83526130    59.79626183
 H      4   2   1     2.068231641290   110.83525969   300.20373536
 H      4   2   1     2.067374427295   111.50563240   180.00000085
 H      5   3   1     2.068231488652   110.83526130   300.20373817
 H      5   3   1     2.068231641290   110.83525969    59.79626464
 H      5   3   1     2.067374427295   111.50563240   180.00000085
 C      7   1   2     6.072661456301   123.37741142    62.27414511
 C     18   7   1     2.885225520019    79.31302901   121.73819438
 C     18   7   1     2.885225520019    79.31302901   238.26180562
 C     19  18   7     2.884505123733   112.82435884   253.31069877
 C     20  18   7     2.884505123733   112.82435884   106.68930123
 H     18   7   1     2.076165663370    56.62258858     0.00000000
 H     18   7   1     2.076165512226   162.84831859     0.00000000
 H     19  18   7     2.073538048154   109.13711100    15.42547294
 H     19  18   7     2.073537896943   109.13711245   131.19592166
 H     20  18   7     2.073538048154   109.13711100   344.57452706
 H     20  18   7     2.073537896943   109.13711245   228.80407834
 H     21  19  18     2.068231641290   110.83525969    59.79626464
 H     21  19  18     2.068231488652   110.83526130   300.20373817
 H     21  19  18     2.067374427295   111.50563240   180.00000085
 H     22  20  18     2.068231641290   110.83525969   300.20373536
 H     22  20  18     2.068231488652   110.83526130    59.79626183
 H     22  20  18     2.067374427295   111.50563240   180.00000085

---------------------
BASIS SET INFORMATION
---------------------
There are 2 groups of distinct atoms

 Group   1 Type C   : 8s4p1d contracted to 4s2p1d pattern {5111/31/1}
 Group   2 Type H   : 4s contracted to 2s pattern {31}

Atom   0C    basis set group =>   1
Atom   1C    basis set group =>   1
Atom   2C    basis set group =>   1
Atom   3C    basis set group =>   1
Atom   4C    basis set group =>   1
Atom   5H    basis set group =>   2
Atom   6H    basis set group =>   2
Atom   7H    basis set group =>   2
Atom   8H    basis set group =>   2
Atom   9H    basis set group =>   2
Atom  10H    basis set group =>   2
Atom  11H    basis set group =>   2
Atom  12H    basis set group =>   2
Atom  13H    basis set group =>   2
Atom  14H    basis set group =>   2
Atom  15H    basis set group =>   2
Atom  16H    basis set group =>   2
Atom  17C    basis set group =>   1
Atom  18C    basis set group =>   1
Atom  19C    basis set group =>   1
Atom  20C    basis set group =>   1
Atom  21C    basis set group =>   1
Atom  22H    basis set group =>   2
Atom  23H    basis set group =>   2
Atom  24H    basis set group =>   2
Atom  25H    basis set group =>   2
Atom  26H    basis set group =>   2
Atom  27H    basis set group =>   2
Atom  28H    basis set group =>   2
Atom  29H    basis set group =>   2
Atom  30H    basis set group =>   2
Atom  31H    basis set group =>   2
Atom  32H    basis set group =>   2
Atom  33H    basis set group =>   2
---------------------------------
AUXILIARY/J BASIS SET INFORMATION
---------------------------------
There are 2 groups of distinct atoms

 Group   1 Type C   : 12s5p4d2f1g contracted to 6s4p3d1f1g pattern {711111/2111/211/2/1}
 Group   2 Type H   : 5s2p1d contracted to 3s1p1d pattern {311/2/1}

Atom   0C    basis set group =>   1
Atom   1C    basis set group =>   1
Atom   2C    basis set group =>   1
Atom   3C    basis set group =>   1
Atom   4C    basis set group =>   1
Atom   5H    basis set group =>   2
Atom   6H    basis set group =>   2
Atom   7H    basis set group =>   2
Atom   8H    basis set group =>   2
Atom   9H    basis set group =>   2
Atom  10H    basis set group =>   2
Atom  11H    basis set group =>   2
Atom  12H    basis set group =>   2
Atom  13H    basis set group =>   2
Atom  14H    basis set group =>   2
Atom  15H    basis set group =>   2
Atom  16H    basis set group =>   2
Atom  17C    basis set group =>   1
Atom  18C    basis set group =>   1
Atom  19C    basis set group =>   1
Atom  20C    basis set group =>   1
Atom  21C    basis set group =>   1
Atom  22H    basis set group =>   2
Atom  23H    basis set group =>   2
Atom  24H    basis set group =>   2
Atom  25H    basis set group =>   2
Atom  26H    basis set group =>   2
Atom  27H    basis set group =>   2
Atom  28H    basis set group =>   2
Atom  29H    basis set group =>   2
Atom  30H    basis set group =>   2
Atom  31H    basis set group =>   2
Atom  32H    basis set group =>   2
Atom  33H    basis set group =>   2


           ************************************************************
           *        Program running with 4 parallel MPI-processes     *
           *              working on a common directory               *
           ************************************************************
------------------------------------------------------------------------------
                           ORCA GTO INTEGRAL CALCULATION
                           -- RI-GTO INTEGRALS CHOSEN --
------------------------------------------------------------------------------
------------------------------------------------------------------------------
                   ___                                                        
                  /   \      - P O W E R E D   B Y -                         
                 /     \                                                     
                 |  |  |   _    _      __       _____    __    __             
                 |  |  |  | |  | |    /  \     |  _  \  |  |  /  |          
                  \  \/   | |  | |   /    \    | | | |  |  | /  /          
                 / \  \   | |__| |  /  /\  \   | |_| |  |  |/  /          
                |  |  |   |  __  | /  /__\  \  |    /   |      \           
                |  |  |   | |  | | |   __   |  |    \   |  |\   \          
                \     /   | |  | | |  |  |  |  | |\  \  |  | \   \       
                 \___/    |_|  |_| |__|  |__|  |_| \__\ |__|  \__/        
                                                                              
                      - O R C A' S   B I G   F R I E N D -                    
                                      &                                       
                       - I N T E G R A L  F E E D E R -                       
                                                                              
 v1 FN, 2020, v2 2021                                                         
------------------------------------------------------------------------------


Reading SHARK input file pbeh-3c.SHARKINP.tmp ... ok
----------------------
SHARK INTEGRAL PACKAGE
----------------------

Number of atoms                             ...     34
Number of basis functions                   ...    198
Number of shells                            ...    118
Maximum angular momentum                    ...      2
Integral batch strategy                     ... SHARK/LIBINT Hybrid
RI-J (if used) integral strategy            ... SPLIT-RIJ (Revised 2003 algorithm where possible)
Printlevel                                  ...      1
Contraction scheme used                     ... SEGMENTED contraction
Coulomb Range Separation                    ... NOT USED
Exchange Range Separation                   ... NOT USED
Finite Nucleus Model                        ... NOT USED
Auxiliary Coulomb fitting basis             ... AVAILABLE
   # of basis functions in Aux-J            ...    754
   # of shells in Aux-J                     ...    270
   Maximum angular momentum in Aux-J        ...      4
Auxiliary J/K fitting basis                 ... NOT available
Auxiliary Correlation fitting basis         ... NOT available
Auxiliary 'external' fitting basis          ... NOT available
Integral threshold                          ...     2.500000e-11
Primitive cut-off                           ...     2.500000e-12
Primitive pair pre-selection threshold      ...     2.500000e-12

Calculating pre-screening integrals         ... done (  0.0 sec) Dimension = 118
Organizing shell pair data                  ... done (  0.2 sec)
Shell pair information
Total number of shell pairs                 ...      7021
Shell pairs after pre-screening             ...      5826
Total number of primitive shell pairs       ...     25853
Primitive shell pairs kept                  ...     14046
          la=0 lb=0:   3143 shell pairs
          la=1 lb=0:   1586 shell pairs
          la=1 lb=1:    208 shell pairs
          la=2 lb=0:    654 shell pairs
          la=2 lb=1:    188 shell pairs
          la=2 lb=2:     47 shell pairs

Calculating one electron integrals          ... done (  0.0 sec)
Calculating RI/J V-Matrix + Cholesky decomp.... done (  1.1 sec)
Calculating Nuclear repulsion               ... done (  0.1 sec) ENN=    573.236153622683 Eh

SHARK setup successfully completed in   2.7 seconds

Maximum memory used throughout the entire GTOINT-calculation: 14.1 MB


           ************************************************************
           *        Program running with 4 parallel MPI-processes     *
           *              working on a common directory               *
           ************************************************************
-------------------------------------------------------------------------------
                                 ORCA SCF
-------------------------------------------------------------------------------

------------
SCF SETTINGS
------------
Hamiltonian:
 Density Functional     Method          .... DFT(GTOs)
 Exchange Functional    Exchange        .... PBE
   PBE kappa parameter   XKappa         ....  1.024500
   PBE mue parameter    XMuePBE         ....  0.123457
 Correlation Functional Correlation     .... PBE
   PBE beta parameter  CBetaPBE         ....  0.030000
 LDA part of GGA corr.  LDAOpt          .... PW91-LDA
 Gradients option       PostSCFGGA      .... off
 Hybrid DFT is turned on
   Fraction HF Exchange ScalHFX         ....  0.420000
   Scaling of DF-GGA-X  ScalDFX         ....  0.580000
   Scaling of DF-GGA-C  ScalDFC         ....  1.000000
   Scaling of DF-LDA-C  ScalLDAC        ....  1.000000
   Perturbative correction              ....  0.000000
   Density functional embedding theory  .... OFF
 RI-approximation to the Coulomb term is turned on
   Number of AuxJ basis functions       .... 754
   RIJ-ON(X) (HFX calculated with O(N)) .... on
   Number of AuxJ basis functions       .... 754
   RIJ-COSX (HFX calculated with COS-X)).... on


General Settings:
 Integral files         IntName         .... pbeh-3c
 Hartree-Fock type      HFTyp           .... RHF
 Total Charge           Charge          ....    0
 Multiplicity           Mult            ....    1
 Number of Electrons    NEL             ....   84
 Basis Dimension        Dim             ....  198
 Nuclear Repulsion      ENuc            ....    573.2361536227 Eh

Convergence Acceleration:
 DIIS                   CNVDIIS         .... on
   Start iteration      DIISMaxIt       ....    12
   Startup error        DIISStart       ....  0.200000
   # of expansion vecs  DIISMaxEq       ....     5
   Bias factor          DIISBfac        ....   1.050
   Max. coefficient     DIISMaxC        ....  10.000
 Trust-Rad. Augm. Hess. CNVTRAH         .... auto
   Auto Start mean grad. ratio tolernc. ....  1.125000
   Auto Start start iteration           ....    20
   Auto Start num. interpolation iter.  ....    10
   Max. Number of Micro iterations      ....    16
   Max. Number of Macro iterations      .... Maxiter - #DIIS iter
   Number of Davidson start vectors     ....     2
   Converg. threshold I  (grad. norm)   ....   1.000e-05
   Converg. threshold II (energy diff.) ....   1.000e-08
   Grad. Scal. Fac. for Micro threshold ....   0.100
   Minimum threshold for Micro iter.    ....   0.010
   NR start threshold (gradient norm)   ....   0.001
   Initial trust radius                 ....   0.400
   Minimum AH scaling param. (alpha)    ....   1.000
   Maximum AH scaling param. (alpha)    .... 1000.000
   Orbital update algorithm             .... Taylor
   White noise on init. David. guess    .... on
   Maximum white noise                  ....   0.010
   Quad. conv. algorithm                .... NR
   COSX micro iterations for RIJONX calc.... off
 SOSCF                  CNVSOSCF        .... on
   Start iteration      SOSCFMaxIt      ....   150
   Startup grad/error   SOSCFStart      ....  0.003300
 Level Shifting         CNVShift        .... on
   Level shift para.    LevelShift      ....    0.2500
   Turn off err/grad.   ShiftErr        ....    0.0010
 Zerner damping         CNVZerner       .... off
 Static damping         CNVDamp         .... on
   Fraction old density DampFac         ....    0.7000
   Max. Damping (<1)    DampMax         ....    0.9800
   Min. Damping (>=0)   DampMin         ....    0.0000
   Turn off err/grad.   DampErr         ....    0.1000
 Fernandez-Rico         CNVRico         .... off

SCF Procedure:
 Maximum # iterations   MaxIter         ....   125
 SCF integral mode      SCFMode         .... Direct
   Integral package                     .... SHARK and LIBINT hybrid scheme
 Reset frequency        DirectResetFreq ....    20
 Integral Threshold     Thresh          ....  2.500e-11 Eh
 Primitive CutOff       TCut            ....  2.500e-12 Eh

Convergence Tolerance:
 Convergence Check Mode ConvCheckMode   .... Total+1el-Energy
 Convergence forced     ConvForced      .... 0
 Energy Change          TolE            ....  1.000e-08 Eh
 1-El. energy change                    ....  1.000e-05 Eh
 Orbital Gradient       TolG            ....  1.000e-05
 Orbital Rotation angle TolX            ....  1.000e-05
 DIIS Error             TolErr          ....  5.000e-07


Diagonalization of the overlap matrix:
Smallest eigenvalue                        ... 5.155e-03
Time for diagonalization                   ...    0.011 sec
Threshold for overlap eigenvalues          ... 1.000e-08
Number of eigenvalues below threshold      ... 0
Time for construction of square roots      ...    0.150 sec
Total time needed                          ...    0.162 sec

--------------------------------
INITIAL GUESS: MINIMAL BASIS EHT
--------------------------------
The minimal basis has 74 functions
EHT matrix was diagonalized
Basis set overlap was calculated now projecting the orbitals
Using GuessMode=FMatrix for the initial guess
C*T matrix was formed
Effective Fockian was calculated
Effective Fockian was diagonalized
Initial density was built
                      ------------------
                      INITIAL GUESS DONE
                      ------------------
-------------------
DFT GRID GENERATION
-------------------

General Integration Accuracy     IntAcc      ... 4.959
Radial Grid Type                 RadialGrid  ... OptM3 with GC (2021)
Angular Grid (max. ang.)         AngularGrid ... 6 (Lebedev-590)
Angular grid pruning method      GridPruning ... 4 (adaptive)
Weight generation scheme         WeightScheme... Becke
Basis function cutoff            BFCut       ... 1.0000e-11
Integration weight cutoff        WCut        ... 1.0000e-14
Angular grids for H and He will be reduced by one unit
Partially contracted basis set               ... off
Rotationally invariant grid construction     ... off

Total number of grid points                  ...   346152
Total number of batches                      ...     5426
Average number of points per batch           ...       63
Average number of grid points per atom       ...    10181
Time for grid setup =    6.650 sec

--------------------
COSX GRID GENERATION
--------------------

GRIDX 1
-------
General Integration Accuracy     IntAcc      ... 4.020
Radial Grid Type                 RadialGrid  ... OptM3 with GC (2021)
Angular Grid (max. ang.)         AngularGrid ... 2 (Lebedev-110)
Angular grid pruning method      GridPruning ... 4 (adaptive)
Weight generation scheme         WeightScheme... Becke
Basis function cutoff            BFCut       ... 1.0000e-11
Integration weight cutoff        WCut        ... 1.0000e-14
Angular grids for H and He will be reduced by one unit
Partially contracted basis set               ... on
Rotationally invariant grid construction     ... off

Total number of grid points                  ...    35324
Total number of batches                      ...      572
Average number of points per batch           ...       61
Average number of grid points per atom       ...     1039
UseSFitting                                  ... on

GRIDX 2
-------
General Integration Accuracy     IntAcc      ... 4.338
Radial Grid Type                 RadialGrid  ... OptM3 with GC (2021)
Angular Grid (max. ang.)         AngularGrid ... 3 (Lebedev-194)
Angular grid pruning method      GridPruning ... 4 (adaptive)
Weight generation scheme         WeightScheme... Becke
Basis function cutoff            BFCut       ... 1.0000e-11
Integration weight cutoff        WCut        ... 1.0000e-14
Angular grids for H and He will be reduced by one unit
Partially contracted basis set               ... on
Rotationally invariant grid construction     ... off

Total number of grid points                  ...    76592
Total number of batches                      ...     1214
Average number of points per batch           ...       63
Average number of grid points per atom       ...     2253
UseSFitting                                  ... on

GRIDX 3
-------
General Integration Accuracy     IntAcc      ... 4.871
Radial Grid Type                 RadialGrid  ... OptM3 with GC (2021)
Angular Grid (max. ang.)         AngularGrid ... 4 (Lebedev-302)
Angular grid pruning method      GridPruning ... 4 (adaptive)
Weight generation scheme         WeightScheme... Becke
Basis function cutoff            BFCut       ... 1.0000e-11
Integration weight cutoff        WCut        ... 1.0000e-14
Angular grids for H and He will be reduced by one unit
Partially contracted basis set               ... on
Rotationally invariant grid construction     ... off

Total number of grid points                  ...   153212
Total number of batches                      ...     2416
Average number of points per batch           ...       63
Average number of grid points per atom       ...     4506
UseSFitting                                  ... on

Time for X-Grid setup             =    6.583 sec

--------------
SCF ITERATIONS
--------------
ITER       Energy         Delta-E        Max-DP      RMS-DP      [F,P]     Damp
               ***  Starting incremental Fock matrix formation  ***
  0   -393.9651687794   0.000000000000 0.02462197  0.00161909  0.3969812 0.7000
  1   -394.1797556773  -0.214586897888 0.01812103  0.00123252  0.2813037 0.7000
                               ***Turning on DIIS***
  2   -394.3331673885  -0.153411711214 0.01260178  0.00091598  0.1984280 0.7000
  3   -394.4418604676  -0.108693079157 0.00866844  0.00070717  0.1398539 0.7000
  4   -394.5187110310  -0.076850563379 0.02175565  0.00176029  0.0979873 0.0000
                      *** Initiating the SOSCF procedure ***
                           *** Shutting down DIIS ***
                      *** Re-Reading the Fockian *** 
                      *** Removing any level shift *** 
ITER      Energy       Delta-E        Grad      Rot      Max-DP    RMS-DP
  5   -394.70091457  -0.1822035341  0.001038  0.001038  0.001448  0.000108
               *** Restarting incremental Fock matrix formation ***
  6   -394.70095702  -0.0000424549  0.000323  0.000623  0.000727  0.000038
  7   -394.70095855  -0.0000015271  0.000245  0.000180  0.000365  0.000014
  8   -394.70096236  -0.0000038094  0.000016  0.000037  0.000029  0.000001
  9   -394.70096237  -0.0000000122  0.000007  0.000009  0.000011  0.000000
                  ***Gradient check signals convergence***
              ***Rediagonalizing the Fockian in SOSCF/NRSCF***

               *****************************************************
               *                     SUCCESS                       *
               *           SCF CONVERGED AFTER  10 CYCLES          *
               *****************************************************

Old exchange energy                            =    -25.347950568 Eh
New exchange energy                            =    -25.347913920 Eh
Exchange energy change after final integration =      0.000036648 Eh
Total energy after final integration           =   -394.700925731 Eh
Final COS-X integration done in                =    11.288 sec

----------------
TOTAL SCF ENERGY
----------------

Total Energy       :         -394.70092573 Eh          -10740.35822 eV

Components:
Nuclear Repulsion  :          573.23615362 Eh           15598.54875 eV
Electronic Energy  :         -967.93707935 Eh          -26338.90697 eV
One Electron Energy:        -1667.00803945 Eh          -45361.59489 eV
Two Electron Energy:          699.07096010 Eh           19022.68792 eV
Max COSX asymmetry :            0.00000113 Eh               0.00003 eV

Virial components:
Potential Energy   :         -785.87610400 Eh          -21384.77597 eV
Kinetic Energy     :          391.17517827 Eh           10644.41775 eV
Virial Ratio       :            2.00901322


DFT components:
N(Alpha)           :       41.999958808239 electrons
N(Beta)            :       41.999958808239 electrons
N(Total)           :       83.999917616478 electrons
E(X)               :      -33.561252540071 Eh       
E(C)               :       -3.526758361300 Eh       
E(XC)              :      -37.088010901371 Eh       
DFET-embed. en.    :        0.000000000000 Eh       

---------------
SCF CONVERGENCE
---------------

  Last Energy change         ...   -1.0354e-08  Tolerance :   1.0000e-08
  Last MAX-Density change    ...    1.1681e-15  Tolerance :   1.0000e-07
  Last RMS-Density change    ...    3.6309e-17  Tolerance :   5.0000e-09
  Last Orbital Gradient      ...    7.2534e-07  Tolerance :   1.0000e-05
  Last Orbital Rotation      ...    2.2378e-06  Tolerance :   1.0000e-05

             **** THE GBW FILE WAS UPDATED (pbeh-3c.gbw) ****
             **** DENSITY pbeh-3c.scfp WAS UPDATED ****
             **** ENERGY FILE WAS UPDATED (pbeh-3c.en.tmp) ****
             **** THE GBW FILE WAS UPDATED (pbeh-3c.gbw) ****
             **** DENSITY pbeh-3c.scfp WAS UPDATED ****
----------------
ORBITAL ENERGIES
----------------

  NO   OCC          E(Eh)            E(eV) 
   0   2.0000     -10.429604      -283.8039 
   1   2.0000     -10.429598      -283.8038 
   2   2.0000     -10.429580      -283.8033 
   3   2.0000     -10.429571      -283.8030 
   4   2.0000     -10.427507      -283.7469 
   5   2.0000     -10.427502      -283.7468 
   6   2.0000     -10.421219      -283.5758 
   7   2.0000     -10.421213      -283.5756 
   8   2.0000     -10.421210      -283.5755 
   9   2.0000     -10.421200      -283.5753 
  10   2.0000      -0.893734       -24.3197 
  11   2.0000      -0.890081       -24.2203 
  12   2.0000      -0.837735       -22.7959 
  13   2.0000      -0.834343       -22.7036 
  14   2.0000      -0.755651       -20.5623 
  15   2.0000      -0.752414       -20.4742 
  16   2.0000      -0.670055       -18.2331 
  17   2.0000      -0.669937       -18.2299 
  18   2.0000      -0.645868       -17.5750 
  19   2.0000      -0.641224       -17.4486 
  20   2.0000      -0.546073       -14.8594 
  21   2.0000      -0.524706       -14.2780 
  22   2.0000      -0.496914       -13.5217 
  23   2.0000      -0.495654       -13.4874 
  24   2.0000      -0.492970       -13.4144 
  25   2.0000      -0.478754       -13.0276 
  26   2.0000      -0.458288       -12.4707 
  27   2.0000      -0.456676       -12.4268 
  28   2.0000      -0.447013       -12.1638 
  29   2.0000      -0.446370       -12.1464 
  30   2.0000      -0.434483       -11.8229 
  31   2.0000      -0.421459       -11.4685 
  32   2.0000      -0.402797       -10.9607 
  33   2.0000      -0.401164       -10.9162 
  34   2.0000      -0.384431       -10.4609 
  35   2.0000      -0.380528       -10.3547 
  36   2.0000      -0.376887       -10.2556 
  37   2.0000      -0.374876       -10.2009 
  38   2.0000      -0.368912       -10.0386 
  39   2.0000      -0.362755        -9.8711 
  40   2.0000      -0.361756        -9.8439 
  41   2.0000      -0.358137        -9.7454 
  42   0.0000       0.087707         2.3866 
  43   0.0000       0.115722         3.1490 
  44   0.0000       0.146761         3.9936 
  45   0.0000       0.164346         4.4721 
  46   0.0000       0.169163         4.6032 
  47   0.0000       0.171857         4.6765 
  48   0.0000       0.174322         4.7436 
  49   0.0000       0.181369         4.9353 
  50   0.0000       0.200525         5.4566 
  51   0.0000       0.205105         5.5812 
  52   0.0000       0.208052         5.6614 
  53   0.0000       0.208914         5.6848 
  54   0.0000       0.210781         5.7357 
  55   0.0000       0.220027         5.9872 
  56   0.0000       0.223623         6.0851 
  57   0.0000       0.229696         6.2503 
  58   0.0000       0.233050         6.3416 
  59   0.0000       0.234466         6.3801 
  60   0.0000       0.236717         6.4414 
  61   0.0000       0.252524         6.8715 
  62   0.0000       0.258364         7.0304 
  63   0.0000       0.264060         7.1854 
  64   0.0000       0.269156         7.3241 
  65   0.0000       0.270503         7.3607 
  66   0.0000       0.280397         7.6300 
  67   0.0000       0.286272         7.7899 
  68   0.0000       0.292759         7.9664 
  69   0.0000       0.299761         8.1569 
  70   0.0000       0.310599         8.4518 
  71   0.0000       0.312158         8.4943 
  72   0.0000       0.330719         8.9993 
  73   0.0000       0.346444         9.4272 
  74   0.0000       0.466696        12.6995 
  75   0.0000       0.482943        13.1415 
  76   0.0000       0.489103        13.3092 
  77   0.0000       0.489802        13.3282 
  78   0.0000       0.497518        13.5381 
  79   0.0000       0.509544        13.8654 
  80   0.0000       0.515511        14.0278 
  81   0.0000       0.521816        14.1993 
  82   0.0000       0.533517        14.5177 
  83   0.0000       0.573382        15.6025 
  84   0.0000       0.578888        15.7523 
  85   0.0000       0.622030        16.9263 
  86   0.0000       0.629344        17.1253 
  87   0.0000       0.638276        17.3684 
  88   0.0000       0.658773        17.9261 
  89   0.0000       0.667229        18.1562 
  90   0.0000       0.676311        18.4034 
  91   0.0000       0.681796        18.5526 
  92   0.0000       0.694114        18.8878 
  93   0.0000       0.710107        19.3230 
  94   0.0000       0.716970        19.5098 
  95   0.0000       0.724309        19.7095 
  96   0.0000       0.742542        20.2056 
  97   0.0000       0.758508        20.6400 
  98   0.0000       0.781443        21.2642 
  99   0.0000       0.786626        21.4052 
 100   0.0000       0.803632        21.8679 
 101   0.0000       0.876878        23.8611 
 102   0.0000       0.885771        24.1031 
 103   0.0000       0.920096        25.0371 
 104   0.0000       0.928809        25.2742 
 105   0.0000       0.973195        26.4820 
 106   0.0000       0.977771        26.6065 
 107   0.0000       0.995796        27.0970 
 108   0.0000       1.013338        27.5743 
 109   0.0000       1.021938        27.8084 
 110   0.0000       1.032184        28.0872 
 111   0.0000       1.032392        28.0928 
 112   0.0000       1.043953        28.4074 
 113   0.0000       1.044117        28.4119 
 114   0.0000       1.048204        28.5231 
 115   0.0000       1.054779        28.7020 
 116   0.0000       1.064158        28.9572 
 117   0.0000       1.064893        28.9772 
 118   0.0000       1.065996        29.0072 
 119   0.0000       1.075188        29.2574 
 120   0.0000       1.077131        29.3102 
 121   0.0000       1.089801        29.6550 
 122   0.0000       1.095293        29.8044 
 123   0.0000       1.104628        30.0585 
 124   0.0000       1.134248        30.8644 
 125   0.0000       1.150141        31.2969 
 126   0.0000       1.206843        32.8399 
 127   0.0000       1.217007        33.1165 
 128   0.0000       1.250084        34.0165 
 129   0.0000       1.286859        35.0172 
 130   0.0000       1.338696        36.4278 
 131   0.0000       1.348642        36.6984 
 132   0.0000       1.405548        38.2469 
 133   0.0000       1.415059        38.5057 
 134   0.0000       1.448421        39.4135 
 135   0.0000       1.464703        39.8566 
 136   0.0000       1.466797        39.9136 
 137   0.0000       1.490161        40.5493 
 138   0.0000       1.511180        41.1213 
 139   0.0000       1.512725        41.1633 
 140   0.0000       1.619686        44.0739 
 141   0.0000       1.629959        44.3534 
 142   0.0000       1.633556        44.4513 
 143   0.0000       1.683200        45.8022 
 144   0.0000       1.801890        49.0319 
 145   0.0000       1.807706        49.1902 
 146   0.0000       1.820465        49.5374 
 147   0.0000       1.873995        50.9940 
 148   0.0000       1.919910        52.2434 
 149   0.0000       1.957816        53.2749 
 150   0.0000       1.965149        53.4744 
 151   0.0000       1.976223        53.7758 
 152   0.0000       1.987553        54.0841 
 153   0.0000       1.998727        54.3881 
 154   0.0000       2.026483        55.1434 
 155   0.0000       2.032389        55.3041 
 156   0.0000       2.034677        55.3664 
 157   0.0000       2.059970        56.0546 
 158   0.0000       2.062062        56.1116 
 159   0.0000       2.063902        56.1616 
 160   0.0000       2.066868        56.2424 
 161   0.0000       2.111169        57.4478 
 162   0.0000       2.144863        58.3647 
 163   0.0000       2.189311        59.5742 
 164   0.0000       2.273344        61.8608 
 165   0.0000       2.273595        61.8677 
 166   0.0000       2.289667        62.3050 
 167   0.0000       2.306320        62.7582 
 168   0.0000       2.352948        64.0270 
 169   0.0000       2.378843        64.7316 
 170   0.0000       2.382144        64.8214 
 171   0.0000       2.401217        65.3404 
 172   0.0000       2.413872        65.6848 
 173   0.0000       2.416992        65.7697 
 174   0.0000       2.484886        67.6172 
 175   0.0000       2.497601        67.9632 
 176   0.0000       2.501656        68.0735 
 177   0.0000       2.514536        68.4240 
 178   0.0000       2.519628        68.5626 
 179   0.0000       2.545687        69.2717 
 180   0.0000       2.592543        70.5467 
 181   0.0000       2.600963        70.7758 
 182   0.0000       2.619360        71.2764 
 183   0.0000       2.622083        71.3505 
 184   0.0000       2.800102        76.1946 
 185   0.0000       2.802218        76.2522 
 186   0.0000       2.824511        76.8589 
 187   0.0000       2.832361        77.0725 
 188   0.0000      13.552332       368.7777 
 189   0.0000      13.584703       369.6586 
 190   0.0000      13.750472       374.1694 
 191   0.0000      13.773149       374.7864 
 192   0.0000      13.891867       378.0169 
 193   0.0000      13.917826       378.7233 
 194   0.0000      13.985599       380.5675 
 195   0.0000      14.006835       381.1454 
 196   0.0000      14.079040       383.1102 
 197   0.0000      14.096381       383.5820 

                    ********************************
                    * MULLIKEN POPULATION ANALYSIS *
                    ********************************

-----------------------
MULLIKEN ATOMIC CHARGES
-----------------------
   0 C :   -0.399916
   1 C :   -0.414735
   2 C :   -0.414735
   3 C :   -0.643820
   4 C :   -0.643820
   5 H :    0.202116
   6 H :    0.205940
   7 H :    0.206439
   8 H :    0.205056
   9 H :    0.206439
  10 H :    0.205056
  11 H :    0.210356
  12 H :    0.215069
  13 H :    0.217565
  14 H :    0.210356
  15 H :    0.215069
  16 H :    0.217565
  17 C :   -0.399916
  18 C :   -0.414734
  19 C :   -0.414734
  20 C :   -0.643820
  21 C :   -0.643820
  22 H :    0.205940
  23 H :    0.202116
  24 H :    0.205056
  25 H :    0.206439
  26 H :    0.205056
  27 H :    0.206439
  28 H :    0.215069
  29 H :    0.210356
  30 H :    0.217565
  31 H :    0.215069
  32 H :    0.210356
  33 H :    0.217565
Sum of atomic charges:   -0.0000000

--------------------------------
MULLIKEN REDUCED ORBITAL CHARGES
--------------------------------
  0 C s       :     3.323550  s :     3.323550
      pz      :     0.904906  p :     3.032607
      px      :     1.108253
      py      :     1.019448
      dz2     :     0.012754  d :     0.043759
      dxz     :     0.003394
      dyz     :     0.009930
      dx2y2   :     0.002252
      dxy     :     0.015430
  1 C s       :     3.325752  s :     3.325752
      pz      :     0.909436  p :     3.045087
      px      :     1.113217
      py      :     1.022433
      dz2     :     0.012880  d :     0.043896
      dxz     :     0.003426
      dyz     :     0.009967
      dx2y2   :     0.002324
      dxy     :     0.015299
  2 C s       :     3.325752  s :     3.325752
      pz      :     0.909436  p :     3.045087
      px      :     1.113217
      py      :     1.022433
      dz2     :     0.012880  d :     0.043896
      dxz     :     0.003426
      dyz     :     0.009967
      dx2y2   :     0.002324
      dxy     :     0.015299
  3 C s       :     3.381971  s :     3.381971
      pz      :     1.021825  p :     3.224824
      px      :     1.124049
      py      :     1.078950
      dz2     :     0.010278  d :     0.037025
      dxz     :     0.001660
      dyz     :     0.009953
      dx2y2   :     0.002341
      dxy     :     0.012792
  4 C s       :     3.381971  s :     3.381971
      pz      :     1.021825  p :     3.224824
      px      :     1.124049
      py      :     1.078950
      dz2     :     0.010278  d :     0.037025
      dxz     :     0.001660
      dyz     :     0.009953
      dx2y2   :     0.002341
      dxy     :     0.012792
  5 H s       :     0.797884  s :     0.797884
  6 H s       :     0.794060  s :     0.794060
  7 H s       :     0.793561  s :     0.793561
  8 H s       :     0.794944  s :     0.794944
  9 H s       :     0.793561  s :     0.793561
 10 H s       :     0.794944  s :     0.794944
 11 H s       :     0.789644  s :     0.789644
 12 H s       :     0.784931  s :     0.784931
 13 H s       :     0.782435  s :     0.782435
 14 H s       :     0.789644  s :     0.789644
 15 H s       :     0.784931  s :     0.784931
 16 H s       :     0.782435  s :     0.782435
 17 C s       :     3.323550  s :     3.323550
      pz      :     0.904906  p :     3.032607
      px      :     1.108253
      py      :     1.019448
      dz2     :     0.012754  d :     0.043759
      dxz     :     0.003394
      dyz     :     0.009930
      dx2y2   :     0.002252
      dxy     :     0.015430
 18 C s       :     3.325752  s :     3.325752
      pz      :     0.909436  p :     3.045086
      px      :     1.113217
      py      :     1.022433
      dz2     :     0.012880  d :     0.043896
      dxz     :     0.003426
      dyz     :     0.009967
      dx2y2   :     0.002324
      dxy     :     0.015299
 19 C s       :     3.325752  s :     3.325752
      pz      :     0.909436  p :     3.045086
      px      :     1.113217
      py      :     1.022433
      dz2     :     0.012880  d :     0.043896
      dxz     :     0.003426
      dyz     :     0.009967
      dx2y2   :     0.002324
      dxy     :     0.015299
 20 C s       :     3.381971  s :     3.381971
      pz      :     1.021825  p :     3.224824
      px      :     1.124049
      py      :     1.078950
      dz2     :     0.010278  d :     0.037025
      dxz     :     0.001660
      dyz     :     0.009953
      dx2y2   :     0.002341
      dxy     :     0.012792
 21 C s       :     3.381971  s :     3.381971
      pz      :     1.021825  p :     3.224824
      px      :     1.124049
      py      :     1.078950
      dz2     :     0.010278  d :     0.037025
      dxz     :     0.001660
      dyz     :     0.009953
      dx2y2   :     0.002341
      dxy     :     0.012792
 22 H s       :     0.794060  s :     0.794060
 23 H s       :     0.797884  s :     0.797884
 24 H s       :     0.794944  s :     0.794944
 25 H s       :     0.793561  s :     0.793561
 26 H s       :     0.794944  s :     0.794944
 27 H s       :     0.793561  s :     0.793561
 28 H s       :     0.784931  s :     0.784931
 29 H s       :     0.789644  s :     0.789644
 30 H s       :     0.782435  s :     0.782435
 31 H s       :     0.784931  s :     0.784931
 32 H s       :     0.789644  s :     0.789644
 33 H s       :     0.782435  s :     0.782435


                     *******************************
                     * LOEWDIN POPULATION ANALYSIS *
                     *******************************

----------------------
LOEWDIN ATOMIC CHARGES
----------------------
   0 C :   -0.240986
   1 C :   -0.245350
   2 C :   -0.245350
   3 C :   -0.361812
   4 C :   -0.361812
   5 H :    0.118732
   6 H :    0.117383
   7 H :    0.119598
   8 H :    0.116588
   9 H :    0.119598
  10 H :    0.116588
  11 H :    0.123482
  12 H :    0.123756
  13 H :    0.126173
  14 H :    0.123482
  15 H :    0.123756
  16 H :    0.126173
  17 C :   -0.240986
  18 C :   -0.245350
  19 C :   -0.245350
  20 C :   -0.361812
  21 C :   -0.361812
  22 H :    0.117383
  23 H :    0.118732
  24 H :    0.116588
  25 H :    0.119598
  26 H :    0.116588
  27 H :    0.119598
  28 H :    0.123756
  29 H :    0.123482
  30 H :    0.126173
  31 H :    0.123756
  32 H :    0.123482
  33 H :    0.126173

-------------------------------
LOEWDIN REDUCED ORBITAL CHARGES
-------------------------------
  0 C s       :     2.913170  s :     2.913170
      pz      :     1.042946  p :     3.238892
      px      :     1.107052
      py      :     1.088894
      dz2     :     0.026799  d :     0.088924
      dxz     :     0.007158
      dyz     :     0.023499
      dx2y2   :     0.004263
      dxy     :     0.027205
  1 C s       :     2.910675  s :     2.910675
      pz      :     1.047837  p :     3.245448
      px      :     1.108549
      py      :     1.089061
      dz2     :     0.026949  d :     0.089228
      dxz     :     0.007165
      dyz     :     0.023799
      dx2y2   :     0.004317
      dxy     :     0.026997
  2 C s       :     2.910675  s :     2.910675
      pz      :     1.047837  p :     3.245448
      px      :     1.108549
      py      :     1.089061
      dz2     :     0.026949  d :     0.089228
      dxz     :     0.007165
      dyz     :     0.023799
      dx2y2   :     0.004317
      dxy     :     0.026997
  3 C s       :     2.953627  s :     2.953627
      pz      :     1.089400  p :     3.339343
      px      :     1.131871
      py      :     1.118071
      dz2     :     0.019752  d :     0.068843
      dxz     :     0.003577
      dyz     :     0.019531
      dx2y2   :     0.004117
      dxy     :     0.021866
  4 C s       :     2.953627  s :     2.953627
      pz      :     1.089400  p :     3.339343
      px      :     1.131871
      py      :     1.118071
      dz2     :     0.019752  d :     0.068843
      dxz     :     0.003577
      dyz     :     0.019531
      dx2y2   :     0.004117
      dxy     :     0.021866
  5 H s       :     0.881268  s :     0.881268
  6 H s       :     0.882617  s :     0.882617
  7 H s       :     0.880402  s :     0.880402
  8 H s       :     0.883412  s :     0.883412
  9 H s       :     0.880402  s :     0.880402
 10 H s       :     0.883412  s :     0.883412
 11 H s       :     0.876518  s :     0.876518
 12 H s       :     0.876244  s :     0.876244
 13 H s       :     0.873827  s :     0.873827
 14 H s       :     0.876518  s :     0.876518
 15 H s       :     0.876244  s :     0.876244
 16 H s       :     0.873827  s :     0.873827
 17 C s       :     2.913170  s :     2.913170
      pz      :     1.042946  p :     3.238892
      px      :     1.107052
      py      :     1.088894
      dz2     :     0.026799  d :     0.088924
      dxz     :     0.007158
      dyz     :     0.023499
      dx2y2   :     0.004263
      dxy     :     0.027205
 18 C s       :     2.910675  s :     2.910675
      pz      :     1.047837  p :     3.245448
      px      :     1.108549
      py      :     1.089061
      dz2     :     0.026949  d :     0.089228
      dxz     :     0.007165
      dyz     :     0.023799
      dx2y2   :     0.004317
      dxy     :     0.026997
 19 C s       :     2.910675  s :     2.910675
      pz      :     1.047837  p :     3.245448
      px      :     1.108549
      py      :     1.089061
      dz2     :     0.026949  d :     0.089228
      dxz     :     0.007165
      dyz     :     0.023799
      dx2y2   :     0.004317
      dxy     :     0.026997
 20 C s       :     2.953627  s :     2.953627
      pz      :     1.089400  p :     3.339343
      px      :     1.131871
      py      :     1.118071
      dz2     :     0.019752  d :     0.068843
      dxz     :     0.003577
      dyz     :     0.019531
      dx2y2   :     0.004117
      dxy     :     0.021866
 21 C s       :     2.953627  s :     2.953627
      pz      :     1.089400  p :     3.339343
      px      :     1.131871
      py      :     1.118071
      dz2     :     0.019752  d :     0.068843
      dxz     :     0.003577
      dyz     :     0.019531
      dx2y2   :     0.004117
      dxy     :     0.021866
 22 H s       :     0.882617  s :     0.882617
 23 H s       :     0.881268  s :     0.881268
 24 H s       :     0.883412  s :     0.883412
 25 H s       :     0.880402  s :     0.880402
 26 H s       :     0.883412  s :     0.883412
 27 H s       :     0.880402  s :     0.880402
 28 H s       :     0.876244  s :     0.876244
 29 H s       :     0.876518  s :     0.876518
 30 H s       :     0.873827  s :     0.873827
 31 H s       :     0.876244  s :     0.876244
 32 H s       :     0.876518  s :     0.876518
 33 H s       :     0.873827  s :     0.873827


                      *****************************
                      * MAYER POPULATION ANALYSIS *
                      *****************************

  NA   - Mulliken gross atomic population
  ZA   - Total nuclear charge
  QA   - Mulliken gross atomic charge
  VA   - Mayer's total valence
  BVA  - Mayer's bonded valence
  FA   - Mayer's free valence

  ATOM       NA         ZA         QA         VA         BVA        FA
  0 C      6.3999     6.0000    -0.3999     3.7187     3.7187     0.0000
  1 C      6.4147     6.0000    -0.4147     3.7521     3.7521    -0.0000
  2 C      6.4147     6.0000    -0.4147     3.7521     3.7521     0.0000
  3 C      6.6438     6.0000    -0.6438     3.7406     3.7406    -0.0000
  4 C      6.6438     6.0000    -0.6438     3.7406     3.7406    -0.0000
  5 H      0.7979     1.0000     0.2021     0.9112     0.9112     0.0000
  6 H      0.7941     1.0000     0.2059     0.9112     0.9112     0.0000
  7 H      0.7936     1.0000     0.2064     0.9083     0.9083    -0.0000
  8 H      0.7949     1.0000     0.2051     0.9121     0.9121     0.0000
  9 H      0.7936     1.0000     0.2064     0.9083     0.9083     0.0000
 10 H      0.7949     1.0000     0.2051     0.9121     0.9121     0.0000
 11 H      0.7896     1.0000     0.2104     0.9142     0.9142    -0.0000
 12 H      0.7849     1.0000     0.2151     0.9131     0.9131    -0.0000
 13 H      0.7824     1.0000     0.2176     0.9146     0.9146    -0.0000
 14 H      0.7896     1.0000     0.2104     0.9142     0.9142    -0.0000
 15 H      0.7849     1.0000     0.2151     0.9131     0.9131    -0.0000
 16 H      0.7824     1.0000     0.2176     0.9146     0.9146    -0.0000
 17 C      6.3999     6.0000    -0.3999     3.7187     3.7187    -0.0000
 18 C      6.4147     6.0000    -0.4147     3.7521     3.7521    -0.0000
 19 C      6.4147     6.0000    -0.4147     3.7521     3.7521    -0.0000
 20 C      6.6438     6.0000    -0.6438     3.7406     3.7406    -0.0000
 21 C      6.6438     6.0000    -0.6438     3.7406     3.7406    -0.0000
 22 H      0.7941     1.0000     0.2059     0.9112     0.9112     0.0000
 23 H      0.7979     1.0000     0.2021     0.9112     0.9112    -0.0000
 24 H      0.7949     1.0000     0.2051     0.9121     0.9121     0.0000
 25 H      0.7936     1.0000     0.2064     0.9083     0.9083    -0.0000
 26 H      0.7949     1.0000     0.2051     0.9121     0.9121    -0.0000
 27 H      0.7936     1.0000     0.2064     0.9083     0.9083    -0.0000
 28 H      0.7849     1.0000     0.2151     0.9131     0.9131     0.0000
 29 H      0.7896     1.0000     0.2104     0.9142     0.9142    -0.0000
 30 H      0.7824     1.0000     0.2176     0.9146     0.9146    -0.0000
 31 H      0.7849     1.0000     0.2151     0.9131     0.9131     0.0000
 32 H      0.7896     1.0000     0.2104     0.9142     0.9142     0.0000
 33 H      0.7824     1.0000     0.2176     0.9146     0.9146    -0.0000

  Mayer bond orders larger than 0.100000
B(  0-C ,  1-C ) :   0.9883 B(  0-C ,  2-C ) :   0.9883 B(  0-C ,  5-H ) :   0.9178 
B(  0-C ,  6-H ) :   0.9083 B(  1-C ,  3-C ) :   0.9955 B(  1-C ,  7-H ) :   0.9195 
B(  1-C ,  8-H ) :   0.9138 B(  2-C ,  4-C ) :   0.9955 B(  2-C ,  9-H ) :   0.9195 
B(  2-C , 10-H ) :   0.9138 B(  3-C , 11-H ) :   0.9284 B(  3-C , 12-H ) :   0.9224 
B(  3-C , 13-H ) :   0.9322 B(  4-C , 14-H ) :   0.9284 B(  4-C , 15-H ) :   0.9224 
B(  4-C , 16-H ) :   0.9322 B( 17-C , 18-C ) :   0.9883 B( 17-C , 19-C ) :   0.9883 
B( 17-C , 22-H ) :   0.9083 B( 17-C , 23-H ) :   0.9178 B( 18-C , 20-C ) :   0.9955 
B( 18-C , 24-H ) :   0.9138 B( 18-C , 25-H ) :   0.9195 B( 19-C , 21-C ) :   0.9955 
B( 19-C , 26-H ) :   0.9138 B( 19-C , 27-H ) :   0.9195 B( 20-C , 28-H ) :   0.9224 
B( 20-C , 29-H ) :   0.9284 B( 20-C , 30-H ) :   0.9322 B( 21-C , 31-H ) :   0.9224 
B( 21-C , 32-H ) :   0.9284 B( 21-C , 33-H ) :   0.9322 

-------
TIMINGS
-------

Total SCF time: 0 days 0 hours 2 min 3 sec 

Total time                  ....     123.418 sec
Sum of individual times     ....     116.607 sec  ( 94.5%)

Fock matrix formation       ....     100.088 sec  ( 81.1%)
  Split-RI-J                ....       7.706 sec  (  7.7% of F)
  Chain of spheres X        ....      55.873 sec  ( 55.8% of F)
  XC integration            ....      24.523 sec  ( 24.5% of F)
    Basis function eval.    ....       6.237 sec  ( 25.4% of XC)
    Density eval.           ....       3.047 sec  ( 12.4% of XC)
    XC-Functional eval.     ....       1.616 sec  (  6.6% of XC)
    XC-Potential eval.      ....       1.700 sec  (  6.9% of XC)
Diagonalization             ....       0.330 sec  (  0.3%)
Density matrix formation    ....       0.106 sec  (  0.1%)
Population analysis         ....       0.373 sec  (  0.3%)
Initial guess               ....       0.146 sec  (  0.1%)
Orbital Transformation      ....       0.000 sec  (  0.0%)
Orbital Orthonormalization  ....       0.000 sec  (  0.0%)
DIIS solution               ....       1.998 sec  (  1.6%)
SOSCF solution              ....       0.332 sec  (  0.3%)
Grid generation             ....      13.233 sec  ( 10.7%)

Maximum memory used throughout the entire SCF-calculation: 80.3 MB


-------------------------------------------------------------------------------
                          DFT DISPERSION CORRECTION                            
                                                                               
                              DFTD3 V3.1  Rev 1                                
                          USING Becke-Johnson damping                          
-------------------------------------------------------------------------------
The PBEh-3c composite method is recognized
Using three-body term ABC
Active option DFTDOPT                   ...         4   

molecular C6(AA) [au] = 7192.279607 


            DFT-D V3
 parameters
 s6 scaling factor         :     1.0000 
 a1 scaling factor         :     0.4860 
 s8 scaling factor         :     0.0000 
 a2 scaling factor         :     4.5000 
 Damping factor alpha9(ATM):    16.0000 
 ad hoc parameters k1-k3   :    16.0000     1.3333    -4.0000 

 Edisp/kcal,au: -11.146004384828  -0.017762286717 
 E6   /kcal   : -11.314239774 
 E8   /kcal   :  -0.000000000 
 E6(ABC)      :   0.168235390 
 % E8         :   0.000000000 
 % E6(ABC)    :  -1.509378462 

-------------------------   ----------------
Dispersion correction           -0.017762287
-------------------------   ----------------

------------------   -----------------
gCP correction             0.044998794
------------------   -----------------

-------------------------   --------------------
FINAL SINGLE POINT ENERGY      -394.673689223933
-------------------------   --------------------


                            ***************************************
                            *     ORCA property calculations      *
                            ***************************************

                                    ---------------------
                                    Active property flags
                                    ---------------------
   (+) Dipole Moment


------------------------------------------------------------------------------
                       ORCA ELECTRIC PROPERTIES CALCULATION
------------------------------------------------------------------------------

Dipole Moment Calculation                       ... on
Quadrupole Moment Calculation                   ... off
Polarizability Calculation                      ... off
GBWName                                         ... pbeh-3c.gbw
Electron density                                ... pbeh-3c.scfp
The origin for moment calculation is the CENTER OF MASS  = (-0.000000, -0.000000  0.000000)

-------------
DIPOLE MOMENT
-------------
                                X             Y             Z
Electronic contribution:     -0.00000       0.00000      -0.00000
Nuclear contribution   :      0.00000      -0.00000       0.00000
                        -----------------------------------------
Total Dipole Moment    :     -0.00000       0.00000      -0.00000
                        -----------------------------------------
Magnitude (a.u.)       :      0.00000
Magnitude (Debye)      :      0.00000



--------------------
Rotational spectrum 
--------------------
 
Rotational constants in cm-1:     0.030806     0.027602     0.015745 
Rotational constants in MHz :   923.528669   827.499967   472.018380 

 Dipole components along the rotational axes: 
x,y,z [a.u.] :     0.000000    -0.000000    -0.000000 
x,y,z [Debye]:     0.000000    -0.000000    -0.000000 

 

Timings for individual modules:

Sum of individual times         ...      128.292 sec (=   2.138 min)
GTO integral calculation        ...        3.881 sec (=   0.065 min)   3.0 %
SCF iterations                  ...      124.411 sec (=   2.074 min)  97.0 %
                             ****ORCA TERMINATED NORMALLY****
TOTAL RUN TIME: 0 days 0 hours 2 minutes 15 seconds 450 msec
