
                                 *****************
                                 * O   R   C   A *
                                 *****************

                                            #,                                       
                                            ###                                      
                                            ####                                     
                                            #####                                    
                                            ######                                   
                                           ########,                                 
                                     ,,################,,,,,                         
                               ,,#################################,,                 
                          ,,##########################################,,             
                       ,#########################################, ''#####,          
                    ,#############################################,,   '####,        
                  ,##################################################,,,,####,       
                ,###########''''           ''''###############################       
              ,#####''   ,,,,##########,,,,          '''####'''          '####       
            ,##' ,,,,###########################,,,                        '##       
           ' ,,###''''                  '''############,,,                           
         ,,##''                                '''############,,,,        ,,,,,,###''
      ,#''                                            '''#######################'''  
     '                                                          ''''####''''         
             ,#######,   #######,   ,#######,      ##                                
            ,#'     '#,  ##    ##  ,#'     '#,    #''#        ######   ,####,        
            ##       ##  ##   ,#'  ##            #'  '#       #        #'  '#        
            ##       ##  #######   ##           ,######,      #####,   #    #        
            '#,     ,#'  ##    ##  '#,     ,#' ,#      #,         ##   #,  ,#        
             '#######'   ##     ##  '#######'  #'      '#     #####' # '####'        



                  #######################################################
                  #                        -***-                        #
                  #          Department of theory and spectroscopy      #
                  #    Directorship and core code : Frank Neese         #
                  #        Max Planck Institute fuer Kohlenforschung    #
                  #                Kaiser Wilhelm Platz 1               #
                  #                 D-45470 Muelheim/Ruhr               #
                  #                      Germany                        #
                  #                                                     #
                  #                  All rights reserved                #
                  #                        -***-                        #
                  #######################################################


                         Program Version 5.0.3 -  RELEASE  -


 With contributions from (in alphabetic order):
   Daniel Aravena         : Magnetic Suceptibility
   Michael Atanasov       : Ab Initio Ligand Field Theory (pilot matlab implementation)
   Alexander A. Auer      : GIAO ZORA, VPT2 properties, NMR spectrum
   Ute Becker             : Parallelization
   Giovanni Bistoni       : ED, misc. LED, open-shell LED, HFLD
   Martin Brehm           : Molecular dynamics
   Dmytro Bykov           : SCF Hessian
   Vijay G. Chilkuri      : MRCI spin determinant printing, contributions to CSF-ICE
   Dipayan Datta          : RHF DLPNO-CCSD density
   Achintya Kumar Dutta   : EOM-CC, STEOM-CC
   Dmitry Ganyushin       : Spin-Orbit,Spin-Spin,Magnetic field MRCI
   Miquel Garcia          : C-PCM and meta-GGA Hessian, CC/C-PCM, Gaussian charge scheme
   Yang Guo               : DLPNO-NEVPT2, F12-NEVPT2, CIM, IAO-localization
   Andreas Hansen         : Spin unrestricted coupled pair/coupled cluster methods
   Benjamin Helmich-Paris : MC-RPA, TRAH-SCF, COSX integrals
   Lee Huntington         : MR-EOM, pCC
   Robert Izsak           : Overlap fitted RIJCOSX, COSX-SCS-MP3, EOM
   Marcus Kettner         : VPT2
   Christian Kollmar      : KDIIS, OOCD, Brueckner-CCSD(T), CCSD density, CASPT2, CASPT2-K
   Simone Kossmann        : Meta GGA functionals, TD-DFT gradient, OOMP2, MP2 Hessian
   Martin Krupicka        : Initial AUTO-CI
   Lucas Lang             : DCDCAS
   Marvin Lechner         : AUTO-CI (C++ implementation), FIC-MRCC
   Dagmar Lenk            : GEPOL surface, SMD
   Dimitrios Liakos       : Extrapolation schemes; Compound Job, initial MDCI parallelization
   Dimitrios Manganas     : Further ROCIS development; embedding schemes
   Dimitrios Pantazis     : SARC Basis sets
   Anastasios Papadopoulos: AUTO-CI, single reference methods and gradients
   Taras Petrenko         : DFT Hessian,TD-DFT gradient, ASA, ECA, R-Raman, ABS, FL, XAS/XES, NRVS
   Peter Pinski           : DLPNO-MP2, DLPNO-MP2 Gradient
   Christoph Reimann      : Effective Core Potentials
   Marius Retegan         : Local ZFS, SOC
   Christoph Riplinger    : Optimizer, TS searches, QM/MM, DLPNO-CCSD(T), (RO)-DLPNO pert. Triples
   Tobias Risthaus        : Range-separated hybrids, TD-DFT gradient, RPA, STAB
   Michael Roemelt        : Original ROCIS implementation
   Masaaki Saitow         : Open-shell DLPNO-CCSD energy and density
   Barbara Sandhoefer     : DKH picture change effects
   Avijit Sen             : IP-ROCIS
   Kantharuban Sivalingam : CASSCF convergence, NEVPT2, FIC-MRCI
   Bernardo de Souza      : ESD, SOC TD-DFT
   Georgi Stoychev        : AutoAux, RI-MP2 NMR, DLPNO-MP2 response
   Willem Van den Heuvel  : Paramagnetic NMR
   Boris Wezisla          : Elementary symmetry handling
   Frank Wennmohs         : Technical directorship


 We gratefully acknowledge several colleagues who have allowed us to
 interface, adapt or use parts of their codes:
   Stefan Grimme, W. Hujo, H. Kruse, P. Pracht,  : VdW corrections, initial TS optimization,
                  C. Bannwarth, S. Ehlert          DFT functionals, gCP, sTDA/sTD-DF
   Ed Valeev, F. Pavosevic, A. Kumar             : LibInt (2-el integral package), F12 methods
   Garnet Chan, S. Sharma, J. Yang, R. Olivares  : DMRG
   Ulf Ekstrom                                   : XCFun DFT Library
   Mihaly Kallay                                 : mrcc  (arbitrary order and MRCC methods)
   Jiri Pittner, Ondrej Demel                    : Mk-CCSD
   Frank Weinhold                                : gennbo (NPA and NBO analysis)
   Christopher J. Cramer and Donald G. Truhlar   : smd solvation model
   Lars Goerigk                                  : TD-DFT with DH, B97 family of functionals
   V. Asgeirsson, H. Jonsson                     : NEB implementation
   FAccTs GmbH                                   : IRC, NEB, NEB-TS, DLPNO-Multilevel, CI-OPT
                                                   MM, QMMM, 2- and 3-layer-ONIOM, Crystal-QMMM,
                                                   LR-CPCM, SF, NACMEs, symmetry and pop. for TD-DFT,
                                                   nearIR, NL-DFT gradient (VV10), updates on ESD,
                                                   ML-optimized integration grids
   S Lehtola, MJT Oliveira, MAL Marques          : LibXC Library
   Liviu Ungur et al                             : ANISO software


 Your calculation uses the libint2 library for the computation of 2-el integrals
 For citations please refer to: http://libint.valeyev.net

 Your ORCA version has been built with support for libXC version: 5.1.0
 For citations please refer to: https://tddft.org/programs/libxc/

 This ORCA versions uses:
   CBLAS   interface :  Fast vector & matrix operations
   LAPACKE interface :  Fast linear algebra routines
   SCALAPACK package :  Parallel linear algebra routines
   Shared memory     :  Shared parallel matrices
   BLAS/LAPACK       :  OpenBLAS 0.3.15  USE64BITINT DYNAMIC_ARCH NO_AFFINITY Haswell SINGLE_THREADED
        Core in use  :  Haswell
   Copyright (c) 2011-2014, The OpenBLAS Project




***************************************
The coordinates will be read from file: 22_benCl-Nm3AB.xyz
***************************************


Your calculation utilizes the geometrical counterpoise correction gCP
Please cite in your paper:
H.Kruse, S. Grimme J.Chem.Phys., 136, (2012), 154101 
   

Your calculation utilizes the atom-pairwise dispersion correction
with the Becke-Johnson damping scheme (D3BJ)
Cite in your paper:
S.Grimme, S.Ehrlich, L.Goerigk, J Comput Chem, (2011), 32, 1456–1465 
S.Grimme, J.Antony, S.Ehrlich and H.Krieg, J.Chem.Phys., 132, (2010), 154104 
   

Your calculation employs the composite approach PBEh-3c.
Please cite in your paper:
S. Grimme, J. G. Brandenburg, C. Bannwarth, A. Hansen J.Chem.Phys., 143, (2015), 054107 
   

================================================================================

----- Orbital basis set information -----
Your calculation utilizes the basis: def2-mSVP

----- AuxJ basis set information -----
Your calculation utilizes the auxiliary basis: def2/J
   F. Weigend, Phys. Chem. Chem. Phys. 8, 1057 (2006).

================================================================================
                                        WARNINGS
                       Please study these warnings very carefully!
================================================================================


INFO   : the flag for use of the SHARK integral package has been found!

================================================================================
                                       INPUT FILE
================================================================================
NAME = pbeh-3c.inp
|  1> ! PBEh-3c def2/J TightSCF DefGrid3
|  2> 
|  3> %maxcore 60000
|  4> 
|  5> %pal
|  6> nprocs 4
|  7> end
|  8> 
|  9> *xyzfile 0 1 22_benCl-Nm3AB.xyz
| 10> 
| 11>                          ****END OF INPUT****
================================================================================

                       ****************************
                       * Single Point Calculation *
                       ****************************

---------------------------------
CARTESIAN COORDINATES (ANGSTROEM)
---------------------------------
  C     -0.235164    0.002086    0.132755
  C     -0.238178    0.001189    1.525604
  C      0.955846   -0.002138    2.242723
  C      2.165457   -0.004625    1.552252
  C      2.182877   -0.003792    0.158977
  C      0.981045   -0.000426   -0.546039
  Cl    -1.748955    0.004260    2.378484
  H      0.930823   -0.002763    3.322934
  H      3.093653   -0.007217    2.107162
  H      3.124113   -0.005746   -0.372313
  H      0.985592    0.000253   -1.627467
  H     -1.172880    0.004700   -0.404018
  N     -4.403628    0.003356    3.894350
  C     -5.231718   -1.074214    3.388785
  C     -4.114028   -0.203131    5.300015
  C     -5.065000    1.279020    3.699968
  H     -5.027241   -0.220060    5.916981
  H     -3.593998   -1.150521    5.432396
  H     -3.470363    0.596298    5.663510
  H     -6.026503    1.337442    4.235674
  H     -4.424188    2.083133    4.058008
  H     -5.254103    1.436697    2.639381
  H     -6.201676   -1.135411    3.908711
  H     -5.421511   -0.924313    2.327182
  H     -4.715156   -2.024330    3.514793

----------------------------
CARTESIAN COORDINATES (A.U.)
----------------------------
  NO LB      ZA    FRAG     MASS         X           Y           Z
   0 C     6.0000    0    12.011   -0.444396    0.003942    0.250871
   1 C     6.0000    0    12.011   -0.450090    0.002247    2.882973
   2 C     6.0000    0    12.011    1.806287   -0.004040    4.238133
   3 C     6.0000    0    12.011    4.092120   -0.008740    2.933331
   4 C     6.0000    0    12.011    4.125040   -0.007165    0.300423
   5 C     6.0000    0    12.011    1.853906   -0.000805   -1.031863
   6 Cl   17.0000    0    35.453   -3.305046    0.008051    4.494683
   7 H     1.0000    0     1.008    1.759000   -0.005222    6.279434
   8 H     1.0000    0     1.008    5.846156   -0.013639    3.981960
   9 H     1.0000    0     1.008    5.903717   -0.010858   -0.703570
  10 H     1.0000    0     1.008    1.862500    0.000479   -3.075467
  11 H     1.0000    0     1.008   -2.216423    0.008881   -0.763484
  12 N     7.0000    0    14.007   -8.321651    0.006342    7.359254
  13 C     6.0000    0    12.011   -9.886514   -2.029970    6.403876
  14 C     6.0000    0    12.011   -7.774387   -0.383863   10.015576
  15 C     6.0000    0    12.011   -9.571463    2.416998    6.991926
  16 H     1.0000    0     1.008   -9.500109   -0.415853   11.181474
  17 H     1.0000    0     1.008   -6.791672   -2.174169   10.265740
  18 H     1.0000    0     1.008   -6.558036    1.126840   10.702482
  19 H     1.0000    0     1.008  -11.388440    2.527399    8.004264
  20 H     1.0000    0     1.008   -8.360504    3.936550    7.668525
  21 H     1.0000    0     1.008   -9.928815    2.714963    4.987707
  22 H     1.0000    0     1.008  -11.719469   -2.145617    7.386394
  23 H     1.0000    0     1.008  -10.245171   -1.746699    4.397737
  24 H     1.0000    0     1.008   -8.910354   -3.825430    6.641996

--------------------------------
INTERNAL COORDINATES (ANGSTROEM)
--------------------------------
 C      0   0   0     0.000000000000     0.00000000     0.00000000
 C      1   0   0     1.392852048851     0.00000000     0.00000000
 C      2   1   0     1.392825662920   120.86467265     0.00000000
 C      3   2   1     1.392808482808   119.29286066     0.00000000
 C      4   3   2     1.393384049252   120.43484420     0.00000000
 C      1   2   3     1.392814296936   119.29070717     0.00000000
 Cl     2   1   3     1.734895446590   119.56988446   179.99985470
 H      3   2   1     1.080500374795   119.66160761   179.99903996
 H      4   3   2     1.081424991539   119.40892828   180.00045818
 H      5   4   3     1.080831867750   120.15920167   180.00093006
 H      6   1   2     1.081437974813   119.40767497   179.99931101
 H      1   2   3     1.080483447579   119.66399230   180.00108337
 N      7   2   1     3.056981930975   179.69499352   157.26223622
 C     13   7   2     1.449994777369   108.86059022   254.57884050
 C     13   7   2     1.449965297743   107.89770084    14.23679703
 C     13   7   2     1.450005917916   109.22966851   134.11217448
 H     15  13   7     1.102221162431   112.29368778   180.22547154
 H     15  13   7     1.088807957491   109.70477931   300.73306513
 H     15  13   7     1.088816113833   109.70375380    59.72596336
 H     16  13   7     1.102217175543   112.29420606   180.59155447
 H     16  13   7     1.088773996130   109.70707894   301.11304640
 H     16  13   7     1.088791291021   109.70685339    60.08535144
 H     14  13   7     1.102219311973   112.29417664   179.18242590
 H     14  13   7     1.088803400294   109.70595585   299.68184299
 H     14  13   7     1.088777082035   109.70666782    58.65988759

---------------------------
INTERNAL COORDINATES (A.U.)
---------------------------
 C      0   0   0     0.000000000000     0.00000000     0.00000000
 C      1   0   0     2.632108917399     0.00000000     0.00000000
 C      2   1   0     2.632059055216   120.86467265     0.00000000
 C      3   2   1     2.632026589509   119.29286066     0.00000000
 C      4   3   2     2.633114252461   120.43484420     0.00000000
 C      1   2   3     2.632037576618   119.29070717     0.00000000
 Cl     2   1   3     3.278477265043   119.56988446   179.99985470
 H      3   2   1     2.041849795961   119.66160761   179.99903996
 H      4   3   2     2.043597068387   119.40892828   180.00045818
 H      5   4   3     2.042476226861   120.15920167   180.00093006
 H      6   1   2     2.043621603219   119.40767497   179.99931101
 H      1   2   3     2.041817808160   119.66399230   180.00108337
 N      7   2   1     5.776858645889   179.69499352   157.26223622
 C     13   7   2     2.740093024843   108.86059022   254.57884050
 C     13   7   2     2.740037316424   107.89770084    14.23679703
 C     13   7   2     2.740114077427   109.22966851   134.11217448
 H     15  13   7     2.082896136006   112.29368778   180.22547154
 H     15  13   7     2.057548852092   109.70477931   300.73306513
 H     15  13   7     2.057564265345   109.70375380    59.72596336
 H     16  13   7     2.082888601880   112.29420606   180.59155447
 H     16  13   7     2.057484674421   109.70707894   301.11304640
 H     16  13   7     2.057517357029   109.70685339    60.08535144
 H     14  13   7     2.082892639147   112.29417664   179.18242590
 H     14  13   7     2.057540240238   109.70595585   299.68184299
 H     14  13   7     2.057490505936   109.70666782    58.65988759

---------------------
BASIS SET INFORMATION
---------------------
There are 4 groups of distinct atoms

 Group   1 Type C   : 8s4p1d contracted to 4s2p1d pattern {5111/31/1}
 Group   2 Type Cl  : 10s7p1d contracted to 4s3p1d pattern {5311/511/1}
 Group   3 Type H   : 4s contracted to 2s pattern {31}
 Group   4 Type N   : 8s4p1d contracted to 4s2p1d pattern {5111/31/1}

Atom   0C    basis set group =>   1
Atom   1C    basis set group =>   1
Atom   2C    basis set group =>   1
Atom   3C    basis set group =>   1
Atom   4C    basis set group =>   1
Atom   5C    basis set group =>   1
Atom   6Cl   basis set group =>   2
Atom   7H    basis set group =>   3
Atom   8H    basis set group =>   3
Atom   9H    basis set group =>   3
Atom  10H    basis set group =>   3
Atom  11H    basis set group =>   3
Atom  12N    basis set group =>   4
Atom  13C    basis set group =>   1
Atom  14C    basis set group =>   1
Atom  15C    basis set group =>   1
Atom  16H    basis set group =>   3
Atom  17H    basis set group =>   3
Atom  18H    basis set group =>   3
Atom  19H    basis set group =>   3
Atom  20H    basis set group =>   3
Atom  21H    basis set group =>   3
Atom  22H    basis set group =>   3
Atom  23H    basis set group =>   3
Atom  24H    basis set group =>   3
---------------------------------
AUXILIARY/J BASIS SET INFORMATION
---------------------------------
There are 4 groups of distinct atoms

 Group   1 Type C   : 12s5p4d2f1g contracted to 6s4p3d1f1g pattern {711111/2111/211/2/1}
 Group   2 Type Cl  : 14s5p5d2f1g contracted to 8s4p3d1f1g pattern {71111111/2111/311/2/1}
 Group   3 Type H   : 5s2p1d contracted to 3s1p1d pattern {311/2/1}
 Group   4 Type N   : 12s5p4d2f1g contracted to 6s4p3d1f1g pattern {711111/2111/211/2/1}

Atom   0C    basis set group =>   1
Atom   1C    basis set group =>   1
Atom   2C    basis set group =>   1
Atom   3C    basis set group =>   1
Atom   4C    basis set group =>   1
Atom   5C    basis set group =>   1
Atom   6Cl   basis set group =>   2
Atom   7H    basis set group =>   3
Atom   8H    basis set group =>   3
Atom   9H    basis set group =>   3
Atom  10H    basis set group =>   3
Atom  11H    basis set group =>   3
Atom  12N    basis set group =>   4
Atom  13C    basis set group =>   1
Atom  14C    basis set group =>   1
Atom  15C    basis set group =>   1
Atom  16H    basis set group =>   3
Atom  17H    basis set group =>   3
Atom  18H    basis set group =>   3
Atom  19H    basis set group =>   3
Atom  20H    basis set group =>   3
Atom  21H    basis set group =>   3
Atom  22H    basis set group =>   3
Atom  23H    basis set group =>   3
Atom  24H    basis set group =>   3


           ************************************************************
           *        Program running with 4 parallel MPI-processes     *
           *              working on a common directory               *
           ************************************************************
------------------------------------------------------------------------------
                           ORCA GTO INTEGRAL CALCULATION
                           -- RI-GTO INTEGRALS CHOSEN --
------------------------------------------------------------------------------
------------------------------------------------------------------------------
                   ___                                                        
                  /   \      - P O W E R E D   B Y -                         
                 /     \                                                     
                 |  |  |   _    _      __       _____    __    __             
                 |  |  |  | |  | |    /  \     |  _  \  |  |  /  |          
                  \  \/   | |  | |   /    \    | | | |  |  | /  /          
                 / \  \   | |__| |  /  /\  \   | |_| |  |  |/  /          
                |  |  |   |  __  | /  /__\  \  |    /   |      \           
                |  |  |   | |  | | |   __   |  |    \   |  |\   \          
                \     /   | |  | | |  |  |  |  | |\  \  |  | \   \       
                 \___/    |_|  |_| |__|  |__|  |_| \__\ |__|  \__/        
                                                                              
                      - O R C A' S   B I G   F R I E N D -                    
                                      &                                       
                       - I N T E G R A L  F E E D E R -                       
                                                                              
 v1 FN, 2020, v2 2021                                                         
------------------------------------------------------------------------------


Reading SHARK input file pbeh-3c.SHARKINP.tmp ... ok
----------------------
SHARK INTEGRAL PACKAGE
----------------------

Number of atoms                             ...     25
Number of basis functions                   ...    196
Number of shells                            ...    106
Maximum angular momentum                    ...      2
Integral batch strategy                     ... SHARK/LIBINT Hybrid
RI-J (if used) integral strategy            ... SPLIT-RIJ (Revised 2003 algorithm where possible)
Printlevel                                  ...      1
Contraction scheme used                     ... SEGMENTED contraction
Coulomb Range Separation                    ... NOT USED
Exchange Range Separation                   ... NOT USED
Finite Nucleus Model                        ... NOT USED
Auxiliary Coulomb fitting basis             ... AVAILABLE
   # of basis functions in Aux-J            ...    695
   # of shells in Aux-J                     ...    237
   Maximum angular momentum in Aux-J        ...      4
Auxiliary J/K fitting basis                 ... NOT available
Auxiliary Correlation fitting basis         ... NOT available
Auxiliary 'external' fitting basis          ... NOT available
Integral threshold                          ...     2.500000e-11
Primitive cut-off                           ...     2.500000e-12
Primitive pair pre-selection threshold      ...     2.500000e-12

Calculating pre-screening integrals         ... done (  0.1 sec) Dimension = 106
Organizing shell pair data                  ... done (  0.3 sec)
Shell pair information
Total number of shell pairs                 ...      5671
Shell pairs after pre-screening             ...      3960
Total number of primitive shell pairs       ...     21105
Primitive shell pairs kept                  ...      9842
          la=0 lb=0:   1694 shell pairs
          la=1 lb=0:   1270 shell pairs
          la=1 lb=1:    254 shell pairs
          la=2 lb=0:    502 shell pairs
          la=2 lb=1:    197 shell pairs
          la=2 lb=2:     43 shell pairs

Calculating one electron integrals          ... done (  0.5 sec)
Calculating RI/J V-Matrix + Cholesky decomp.... done (  0.6 sec)
Calculating Nuclear repulsion               ... done (  0.0 sec) ENN=    648.832602562290 Eh

SHARK setup successfully completed in   2.7 seconds

Maximum memory used throughout the entire GTOINT-calculation: 12.6 MB


           ************************************************************
           *        Program running with 4 parallel MPI-processes     *
           *              working on a common directory               *
           ************************************************************
-------------------------------------------------------------------------------
                                 ORCA SCF
-------------------------------------------------------------------------------

------------
SCF SETTINGS
------------
Hamiltonian:
 Density Functional     Method          .... DFT(GTOs)
 Exchange Functional    Exchange        .... PBE
   PBE kappa parameter   XKappa         ....  1.024500
   PBE mue parameter    XMuePBE         ....  0.123457
 Correlation Functional Correlation     .... PBE
   PBE beta parameter  CBetaPBE         ....  0.030000
 LDA part of GGA corr.  LDAOpt          .... PW91-LDA
 Gradients option       PostSCFGGA      .... off
 Hybrid DFT is turned on
   Fraction HF Exchange ScalHFX         ....  0.420000
   Scaling of DF-GGA-X  ScalDFX         ....  0.580000
   Scaling of DF-GGA-C  ScalDFC         ....  1.000000
   Scaling of DF-LDA-C  ScalLDAC        ....  1.000000
   Perturbative correction              ....  0.000000
   Density functional embedding theory  .... OFF
 RI-approximation to the Coulomb term is turned on
   Number of AuxJ basis functions       .... 695
   RIJ-ON(X) (HFX calculated with O(N)) .... on
   Number of AuxJ basis functions       .... 695
   RIJ-COSX (HFX calculated with COS-X)).... on


General Settings:
 Integral files         IntName         .... pbeh-3c
 Hartree-Fock type      HFTyp           .... RHF
 Total Charge           Charge          ....    0
 Multiplicity           Mult            ....    1
 Number of Electrons    NEL             ....   92
 Basis Dimension        Dim             ....  196
 Nuclear Repulsion      ENuc            ....    648.8326025623 Eh

Convergence Acceleration:
 DIIS                   CNVDIIS         .... on
   Start iteration      DIISMaxIt       ....    12
   Startup error        DIISStart       ....  0.200000
   # of expansion vecs  DIISMaxEq       ....     5
   Bias factor          DIISBfac        ....   1.050
   Max. coefficient     DIISMaxC        ....  10.000
 Trust-Rad. Augm. Hess. CNVTRAH         .... auto
   Auto Start mean grad. ratio tolernc. ....  1.125000
   Auto Start start iteration           ....    20
   Auto Start num. interpolation iter.  ....    10
   Max. Number of Micro iterations      ....    16
   Max. Number of Macro iterations      .... Maxiter - #DIIS iter
   Number of Davidson start vectors     ....     2
   Converg. threshold I  (grad. norm)   ....   1.000e-05
   Converg. threshold II (energy diff.) ....   1.000e-08
   Grad. Scal. Fac. for Micro threshold ....   0.100
   Minimum threshold for Micro iter.    ....   0.010
   NR start threshold (gradient norm)   ....   0.001
   Initial trust radius                 ....   0.400
   Minimum AH scaling param. (alpha)    ....   1.000
   Maximum AH scaling param. (alpha)    .... 1000.000
   Orbital update algorithm             .... Taylor
   White noise on init. David. guess    .... on
   Maximum white noise                  ....   0.010
   Quad. conv. algorithm                .... NR
   COSX micro iterations for RIJONX calc.... off
 SOSCF                  CNVSOSCF        .... on
   Start iteration      SOSCFMaxIt      ....   150
   Startup grad/error   SOSCFStart      ....  0.003300
 Level Shifting         CNVShift        .... on
   Level shift para.    LevelShift      ....    0.2500
   Turn off err/grad.   ShiftErr        ....    0.0010
 Zerner damping         CNVZerner       .... off
 Static damping         CNVDamp         .... on
   Fraction old density DampFac         ....    0.7000
   Max. Damping (<1)    DampMax         ....    0.9800
   Min. Damping (>=0)   DampMin         ....    0.0000
   Turn off err/grad.   DampErr         ....    0.1000
 Fernandez-Rico         CNVRico         .... off

SCF Procedure:
 Maximum # iterations   MaxIter         ....   125
 SCF integral mode      SCFMode         .... Direct
   Integral package                     .... SHARK and LIBINT hybrid scheme
 Reset frequency        DirectResetFreq ....    20
 Integral Threshold     Thresh          ....  2.500e-11 Eh
 Primitive CutOff       TCut            ....  2.500e-12 Eh

Convergence Tolerance:
 Convergence Check Mode ConvCheckMode   .... Total+1el-Energy
 Convergence forced     ConvForced      .... 0
 Energy Change          TolE            ....  1.000e-08 Eh
 1-El. energy change                    ....  1.000e-05 Eh
 Orbital Gradient       TolG            ....  1.000e-05
 Orbital Rotation angle TolX            ....  1.000e-05
 DIIS Error             TolErr          ....  5.000e-07


Diagonalization of the overlap matrix:
Smallest eigenvalue                        ... 4.591e-04
Time for diagonalization                   ...    0.007 sec
Threshold for overlap eigenvalues          ... 1.000e-08
Number of eigenvalues below threshold      ... 0
Time for construction of square roots      ...    0.321 sec
Total time needed                          ...    0.436 sec

--------------------------------
INITIAL GUESS: MINIMAL BASIS EHT
--------------------------------
The minimal basis has 73 functions
EHT matrix was diagonalized
Basis set overlap was calculated now projecting the orbitals
Using GuessMode=FMatrix for the initial guess
C*T matrix was formed
Effective Fockian was calculated
Effective Fockian was diagonalized
Initial density was built
                      ------------------
                      INITIAL GUESS DONE
                      ------------------
-------------------
DFT GRID GENERATION
-------------------

General Integration Accuracy     IntAcc      ... 4.959
Radial Grid Type                 RadialGrid  ... OptM3 with GC (2021)
Angular Grid (max. ang.)         AngularGrid ... 6 (Lebedev-590)
Angular grid pruning method      GridPruning ... 4 (adaptive)
Weight generation scheme         WeightScheme... Becke
Basis function cutoff            BFCut       ... 1.0000e-11
Integration weight cutoff        WCut        ... 1.0000e-14
Angular grids for H and He will be reduced by one unit
Partially contracted basis set               ... off
Rotationally invariant grid construction     ... off

Total number of grid points                  ...   280730
Total number of batches                      ...     4399
Average number of points per batch           ...       63
Average number of grid points per atom       ...    11229
Time for grid setup =    6.723 sec

--------------------
COSX GRID GENERATION
--------------------

GRIDX 1
-------
General Integration Accuracy     IntAcc      ... 4.020
Radial Grid Type                 RadialGrid  ... OptM3 with GC (2021)
Angular Grid (max. ang.)         AngularGrid ... 2 (Lebedev-110)
Angular grid pruning method      GridPruning ... 4 (adaptive)
Weight generation scheme         WeightScheme... Becke
Basis function cutoff            BFCut       ... 1.0000e-11
Integration weight cutoff        WCut        ... 1.0000e-14
Angular grids for H and He will be reduced by one unit
Partially contracted basis set               ... on
Rotationally invariant grid construction     ... off

Total number of grid points                  ...    30472
Total number of batches                      ...      488
Average number of points per batch           ...       62
Average number of grid points per atom       ...     1219
UseSFitting                                  ... on

GRIDX 2
-------
General Integration Accuracy     IntAcc      ... 4.338
Radial Grid Type                 RadialGrid  ... OptM3 with GC (2021)
Angular Grid (max. ang.)         AngularGrid ... 3 (Lebedev-194)
Angular grid pruning method      GridPruning ... 4 (adaptive)
Weight generation scheme         WeightScheme... Becke
Basis function cutoff            BFCut       ... 1.0000e-11
Integration weight cutoff        WCut        ... 1.0000e-14
Angular grids for H and He will be reduced by one unit
Partially contracted basis set               ... on
Rotationally invariant grid construction     ... off

Total number of grid points                  ...    67147
Total number of batches                      ...     1062
Average number of points per batch           ...       63
Average number of grid points per atom       ...     2686
UseSFitting                                  ... on

GRIDX 3
-------
General Integration Accuracy     IntAcc      ... 4.871
Radial Grid Type                 RadialGrid  ... OptM3 with GC (2021)
Angular Grid (max. ang.)         AngularGrid ... 4 (Lebedev-302)
Angular grid pruning method      GridPruning ... 4 (adaptive)
Weight generation scheme         WeightScheme... Becke
Basis function cutoff            BFCut       ... 1.0000e-11
Integration weight cutoff        WCut        ... 1.0000e-14
Angular grids for H and He will be reduced by one unit
Partially contracted basis set               ... on
Rotationally invariant grid construction     ... off

Total number of grid points                  ...   129656
Total number of batches                      ...     2039
Average number of points per batch           ...       63
Average number of grid points per atom       ...     5186
UseSFitting                                  ... on

Time for X-Grid setup             =    5.440 sec

--------------
SCF ITERATIONS
--------------
ITER       Energy         Delta-E        Max-DP      RMS-DP      [F,P]     Damp
               ***  Starting incremental Fock matrix formation  ***
  0   -863.7525957645   0.000000000000 0.12435100  0.00342888  0.4122125 0.7000
  1   -864.1217380072  -0.369142242734 0.10812067  0.00249266  0.2903412 0.7000
  2   -864.3653234569  -0.243585449680 0.09097780  0.00176778  0.2032410 0.7000
                               ***Turning on DIIS***
  3   -864.5355695536  -0.170246096647 0.07301457  0.00128573  0.1422868 0.7000
  4   -864.6565736809  -0.121004127360 0.06310256  0.00101160  0.1002122 0.7000
  5   -864.7423680470  -0.085794366052 0.15955267  0.00252204  0.0700633 0.0000
                      *** Initiating the SOSCF procedure ***
                           *** Shutting down DIIS ***
                      *** Re-Reading the Fockian *** 
                      *** Removing any level shift *** 
ITER      Energy       Delta-E        Grad      Rot      Max-DP    RMS-DP
  6   -864.94682200  -0.2044539575  0.001971  0.001971  0.004637  0.000117
               *** Restarting incremental Fock matrix formation ***
  7   -864.94692189  -0.0000998885  0.000810  0.002076  0.003669  0.000073
  8   -864.94694413  -0.0000222401  0.000365  0.001032  0.001695  0.000043
  9   -864.94694723  -0.0000030971  0.000226  0.000422  0.000574  0.000016
 10   -864.94694843  -0.0000012027  0.000069  0.000183  0.000181  0.000005
 11   -864.94694847  -0.0000000399  0.000068  0.000113  0.000113  0.000003
 12   -864.94694855  -0.0000000743  0.000009  0.000019  0.000024  0.000001
 13   -864.94694856  -0.0000000093  0.000009  0.000008  0.000013  0.000000
                  ***Gradient check signals convergence***
              ***Rediagonalizing the Fockian in SOSCF/NRSCF***

               *****************************************************
               *                     SUCCESS                       *
               *           SCF CONVERGED AFTER  14 CYCLES          *
               *****************************************************

Old exchange energy                            =    -36.019760926 Eh
New exchange energy                            =    -36.019748673 Eh
Exchange energy change after final integration =      0.000012253 Eh
Total energy after final integration           =   -864.946936305 Eh
Final COS-X integration done in                =    11.363 sec

----------------
TOTAL SCF ENERGY
----------------

Total Energy       :         -864.94693630 Eh          -23536.40270 eV

Components:
Nuclear Repulsion  :          648.83260256 Eh           17655.63271 eV
Electronic Energy  :        -1513.77953887 Eh          -41192.03542 eV
One Electron Energy:        -2470.09822019 Eh          -67214.78971 eV
Two Electron Energy:          956.31868132 Eh           26022.75429 eV
Max COSX asymmetry :            0.00000092 Eh               0.00003 eV

Virial components:
Potential Energy   :        -1726.05403985 Eh          -46968.31825 eV
Kinetic Energy     :          861.10710354 Eh           23431.91554 eV
Virial Ratio       :            2.00445918


DFT components:
N(Alpha)           :       46.000002739183 electrons
N(Beta)            :       46.000002739183 electrons
N(Total)           :       92.000005478365 electrons
E(X)               :      -47.890693460044 Eh       
E(C)               :       -4.100716663133 Eh       
E(XC)              :      -51.991410123177 Eh       
DFET-embed. en.    :        0.000000000000 Eh       

---------------
SCF CONVERGENCE
---------------

  Last Energy change         ...   -1.7089e-09  Tolerance :   1.0000e-08
  Last MAX-Density change    ...    1.7764e-15  Tolerance :   1.0000e-07
  Last RMS-Density change    ...    4.0883e-17  Tolerance :   5.0000e-09
  Last Orbital Gradient      ...    4.7510e-07  Tolerance :   1.0000e-05
  Last Orbital Rotation      ...    1.6046e-06  Tolerance :   1.0000e-05

             **** THE GBW FILE WAS UPDATED (pbeh-3c.gbw) ****
             **** DENSITY pbeh-3c.scfp WAS UPDATED ****
             **** ENERGY FILE WAS UPDATED (pbeh-3c.en.tmp) ****
             **** THE GBW FILE WAS UPDATED (pbeh-3c.gbw) ****
             **** DENSITY pbeh-3c.scfp WAS UPDATED ****
----------------
ORBITAL ENERGIES
----------------

  NO   OCC          E(Eh)            E(eV) 
   0   2.0000    -102.291176     -2783.4844 
   1   2.0000     -14.625437      -397.9784 
   2   2.0000     -10.503378      -285.8114 
   3   2.0000     -10.456341      -284.5315 
   4   2.0000     -10.456338      -284.5314 
   5   2.0000     -10.455340      -284.5043 
   6   2.0000     -10.455324      -284.5038 
   7   2.0000     -10.452353      -284.4230 
   8   2.0000     -10.445596      -284.2391 
   9   2.0000     -10.445484      -284.2361 
  10   2.0000     -10.445413      -284.2341 
  11   2.0000      -9.757900      -265.5260 
  12   2.0000      -7.445642      -202.6062 
  13   2.0000      -7.437224      -202.3771 
  14   2.0000      -7.436996      -202.3710 
  15   2.0000      -1.019687       -27.7471 
  16   2.0000      -0.983859       -26.7722 
  17   2.0000      -0.923118       -25.1193 
  18   2.0000      -0.845442       -23.0057 
  19   2.0000      -0.814753       -22.1706 
  20   2.0000      -0.782573       -21.2949 
  21   2.0000      -0.782489       -21.2926 
  22   2.0000      -0.693214       -18.8633 
  23   2.0000      -0.671326       -18.2677 
  24   2.0000      -0.659523       -17.9465 
  25   2.0000      -0.589065       -16.0293 
  26   2.0000      -0.531528       -14.4636 
  27   2.0000      -0.528163       -14.3720 
  28   2.0000      -0.522908       -14.2291 
  29   2.0000      -0.522370       -14.2144 
  30   2.0000      -0.522299       -14.2125 
  31   2.0000      -0.490390       -13.3442 
  32   2.0000      -0.481990       -13.1156 
  33   2.0000      -0.447481       -12.1766 
  34   2.0000      -0.443318       -12.0633 
  35   2.0000      -0.443101       -12.0574 
  36   2.0000      -0.416805       -11.3419 
  37   2.0000      -0.412271       -11.2185 
  38   2.0000      -0.411912       -11.2087 
  39   2.0000      -0.406005       -11.0480 
  40   2.0000      -0.405962       -11.0468 
  41   2.0000      -0.376864       -10.2550 
  42   2.0000      -0.350996        -9.5511 
  43   2.0000      -0.300560        -8.1787 
  44   2.0000      -0.278943        -7.5904 
  45   2.0000      -0.261152        -7.1063 
  46   0.0000       0.011630         0.3165 
  47   0.0000       0.013819         0.3760 
  48   0.0000       0.093140         2.5345 
  49   0.0000       0.129438         3.5222 
  50   0.0000       0.169189         4.6039 
  51   0.0000       0.187780         5.1098 
  52   0.0000       0.197793         5.3822 
  53   0.0000       0.198691         5.4066 
  54   0.0000       0.198720         5.4075 
  55   0.0000       0.208560         5.6752 
  56   0.0000       0.212389         5.7794 
  57   0.0000       0.213342         5.8053 
  58   0.0000       0.214087         5.8256 
  59   0.0000       0.220280         5.9941 
  60   0.0000       0.231591         6.3019 
  61   0.0000       0.240636         6.5480 
  62   0.0000       0.247284         6.7289 
  63   0.0000       0.247459         6.7337 
  64   0.0000       0.276709         7.5296 
  65   0.0000       0.277384         7.5480 
  66   0.0000       0.290193         7.8966 
  67   0.0000       0.294247         8.0069 
  68   0.0000       0.319660         8.6984 
  69   0.0000       0.322499         8.7756 
  70   0.0000       0.329913         8.9774 
  71   0.0000       0.451215        12.2782 
  72   0.0000       0.483647        13.1607 
  73   0.0000       0.513201        13.9649 
  74   0.0000       0.526799        14.3349 
  75   0.0000       0.530033        14.4229 
  76   0.0000       0.543611        14.7924 
  77   0.0000       0.544901        14.8275 
  78   0.0000       0.549710        14.9584 
  79   0.0000       0.567992        15.4558 
  80   0.0000       0.570846        15.5335 
  81   0.0000       0.581070        15.8117 
  82   0.0000       0.584898        15.9159 
  83   0.0000       0.611575        16.6418 
  84   0.0000       0.616263        16.7694 
  85   0.0000       0.617871        16.8131 
  86   0.0000       0.622422        16.9370 
  87   0.0000       0.629799        17.1377 
  88   0.0000       0.645678        17.5698 
  89   0.0000       0.647209        17.6115 
  90   0.0000       0.655094        17.8260 
  91   0.0000       0.658926        17.9303 
  92   0.0000       0.674032        18.3413 
  93   0.0000       0.709886        19.3170 
  94   0.0000       0.724704        19.7202 
  95   0.0000       0.743259        20.2251 
  96   0.0000       0.763214        20.7681 
  97   0.0000       0.838028        22.8039 
  98   0.0000       0.843582        22.9550 
  99   0.0000       0.853193        23.2166 
 100   0.0000       0.859123        23.3779 
 101   0.0000       0.868408        23.6306 
 102   0.0000       0.934029        25.4162 
 103   0.0000       0.941110        25.6089 
 104   0.0000       0.941498        25.6195 
 105   0.0000       0.943518        25.6744 
 106   0.0000       0.955538        26.0015 
 107   0.0000       0.958477        26.0815 
 108   0.0000       0.983484        26.7619 
 109   0.0000       0.986912        26.8553 
 110   0.0000       1.010659        27.5014 
 111   0.0000       1.020045        27.7568 
 112   0.0000       1.030175        28.0325 
 113   0.0000       1.038382        28.2558 
 114   0.0000       1.039675        28.2910 
 115   0.0000       1.046170        28.4677 
 116   0.0000       1.048341        28.5268 
 117   0.0000       1.053565        28.6690 
 118   0.0000       1.077939        29.3322 
 119   0.0000       1.085435        29.5362 
 120   0.0000       1.086339        29.5608 
 121   0.0000       1.087267        29.5860 
 122   0.0000       1.103330        30.0231 
 123   0.0000       1.106428        30.1074 
 124   0.0000       1.106827        30.1183 
 125   0.0000       1.143710        31.1219 
 126   0.0000       1.148031        31.2395 
 127   0.0000       1.171253        31.8714 
 128   0.0000       1.294617        35.2283 
 129   0.0000       1.295766        35.2596 
 130   0.0000       1.301301        35.4102 
 131   0.0000       1.377964        37.4963 
 132   0.0000       1.420192        38.6454 
 133   0.0000       1.445135        39.3241 
 134   0.0000       1.446105        39.3505 
 135   0.0000       1.459277        39.7090 
 136   0.0000       1.497692        40.7543 
 137   0.0000       1.497936        40.7609 
 138   0.0000       1.523267        41.4502 
 139   0.0000       1.537796        41.8456 
 140   0.0000       1.558990        42.4223 
 141   0.0000       1.559889        42.4467 
 142   0.0000       1.592297        43.3286 
 143   0.0000       1.640594        44.6428 
 144   0.0000       1.820355        49.5344 
 145   0.0000       1.836492        49.9735 
 146   0.0000       1.837328        49.9962 
 147   0.0000       1.951260        53.0965 
 148   0.0000       1.971213        53.6394 
 149   0.0000       1.971247        53.6404 
 150   0.0000       2.031937        55.2918 
 151   0.0000       2.052942        55.8634 
 152   0.0000       2.081865        56.6504 
 153   0.0000       2.082178        56.6590 
 154   0.0000       2.089027        56.8453 
 155   0.0000       2.128331        57.9148 
 156   0.0000       2.134290        58.0770 
 157   0.0000       2.174745        59.1778 
 158   0.0000       2.174911        59.1823 
 159   0.0000       2.186224        59.4902 
 160   0.0000       2.195738        59.7491 
 161   0.0000       2.198528        59.8250 
 162   0.0000       2.207801        60.0773 
 163   0.0000       2.226118        60.5757 
 164   0.0000       2.315004        62.9945 
 165   0.0000       2.315571        63.0099 
 166   0.0000       2.318796        63.0976 
 167   0.0000       2.339955        63.6734 
 168   0.0000       2.359945        64.2174 
 169   0.0000       2.363665        64.3186 
 170   0.0000       2.368654        64.4544 
 171   0.0000       2.554002        69.4979 
 172   0.0000       2.571895        69.9848 
 173   0.0000       2.612662        71.0941 
 174   0.0000       2.700255        73.4777 
 175   0.0000       2.700307        73.4791 
 176   0.0000       2.720021        74.0155 
 177   0.0000       2.721664        74.0603 
 178   0.0000       2.735301        74.4313 
 179   0.0000       2.776656        75.5566 
 180   0.0000       2.791943        75.9726 
 181   0.0000       2.830462        77.0208 
 182   0.0000       2.839194        77.2584 
 183   0.0000       2.839397        77.2639 
 184   0.0000       3.056628        83.1751 
 185   0.0000       3.432006        93.3896 
 186   0.0000      13.198421       359.1473 
 187   0.0000      13.613571       370.4441 
 188   0.0000      13.645298       371.3074 
 189   0.0000      13.678905       372.2219 
 190   0.0000      13.865111       377.2889 
 191   0.0000      13.865146       377.2898 
 192   0.0000      14.092019       383.4633 
 193   0.0000      14.113701       384.0533 
 194   0.0000      14.538477       395.6121 
 195   0.0000      19.315515       525.6019 

                    ********************************
                    * MULLIKEN POPULATION ANALYSIS *
                    ********************************

-----------------------
MULLIKEN ATOMIC CHARGES
-----------------------
   0 C :   -0.192669
   1 C :   -0.022406
   2 C :   -0.192750
   3 C :   -0.225641
   4 C :   -0.218991
   5 C :   -0.225664
   6 Cl:   -0.090059
   7 H :    0.241034
   8 H :    0.225683
   9 H :    0.222866
  10 H :    0.225708
  11 H :    0.240954
  12 N :   -0.373385
  13 C :   -0.491204
  14 C :   -0.491649
  15 C :   -0.491063
  16 H :    0.176903
  17 H :    0.221689
  18 H :    0.221158
  19 H :    0.176495
  20 H :    0.222188
  21 H :    0.221073
  22 H :    0.176610
  23 H :    0.220726
  24 H :    0.222392
Sum of atomic charges:   -0.0000000

--------------------------------
MULLIKEN REDUCED ORBITAL CHARGES
--------------------------------
  0 C s       :     3.240856  s :     3.240856
      pz      :     0.888276  p :     2.912820
      px      :     1.023096
      py      :     1.001449
      dz2     :     0.010401  d :     0.038993
      dxz     :     0.012906
      dyz     :     0.005725
      dx2y2   :     0.006424
      dxy     :     0.003536
  1 C s       :     3.258560  s :     3.258560
      pz      :     0.893362  p :     2.708444
      px      :     0.785509
      py      :     1.029573
      dz2     :     0.013114  d :     0.055402
      dxz     :     0.018426
      dyz     :     0.007683
      dx2y2   :     0.008266
      dxy     :     0.007913
  2 C s       :     3.240792  s :     3.240792
      pz      :     1.047253  p :     2.912964
      px      :     0.864186
      py      :     1.001525
      dz2     :     0.012486  d :     0.038993
      dxz     :     0.011260
      dyz     :     0.002482
      dx2y2   :     0.005987
      dxy     :     0.006780
  3 C s       :     3.252771  s :     3.252771
      pz      :     0.938220  p :     2.932928
      px      :     1.010565
      py      :     0.984144
      dz2     :     0.009548  d :     0.039942
      dxz     :     0.014650
      dyz     :     0.005927
      dx2y2   :     0.006182
      dxy     :     0.003634
  4 C s       :     3.243148  s :     3.243148
      pz      :     0.930863  p :     2.936395
      px      :     1.003867
      py      :     1.001666
      dz2     :     0.009889  d :     0.039448
      dxz     :     0.014273
      dyz     :     0.005611
      dx2y2   :     0.006306
      dxy     :     0.003370
  5 C s       :     3.252767  s :     3.252767
      pz      :     1.051550  p :     2.932954
      px      :     0.897263
      py      :     0.984141
      dz2     :     0.013193  d :     0.039942
      dxz     :     0.011033
      dyz     :     0.002289
      dx2y2   :     0.006155
      dxy     :     0.007272
  6 Cls       :     5.963664  s :     5.963664
      pz      :     3.770640  p :    11.083773
      px      :     3.388817
      py      :     3.924316
      dz2     :     0.003609  d :     0.042621
      dxz     :     0.017130
      dyz     :     0.002238
      dx2y2   :     0.012796
      dxy     :     0.006849
  7 H s       :     0.758966  s :     0.758966
  8 H s       :     0.774317  s :     0.774317
  9 H s       :     0.777134  s :     0.777134
 10 H s       :     0.774292  s :     0.774292
 11 H s       :     0.759046  s :     0.759046
 12 N s       :     3.550295  s :     3.550295
      pz      :     1.213431  p :     3.777246
      px      :     1.503141
      py      :     1.060675
      dz2     :     0.014044  d :     0.045844
      dxz     :     0.005185
      dyz     :     0.007283
      dx2y2   :     0.005808
      dxy     :     0.013524
 13 C s       :     3.334157  s :     3.334157
      pz      :     1.102577  p :     3.104450
      px      :     1.024501
      py      :     0.977372
      dz2     :     0.013645  d :     0.052597
      dxz     :     0.008249
      dyz     :     0.005412
      dx2y2   :     0.012332
      dxy     :     0.012959
 14 C s       :     3.334160  s :     3.334160
      pz      :     0.845766  p :     3.104881
      px      :     1.107198
      py      :     1.151917
      dz2     :     0.014880  d :     0.052609
      dxz     :     0.016470
      dyz     :     0.006533
      dx2y2   :     0.005005
      dxy     :     0.009720
 15 C s       :     3.334150  s :     3.334150
      pz      :     1.139010  p :     3.104321
      px      :     1.061561
      py      :     0.903749
      dz2     :     0.011907  d :     0.052593
      dxz     :     0.007847
      dyz     :     0.006717
      dx2y2   :     0.011870
      dxy     :     0.014252
 16 H s       :     0.823097  s :     0.823097
 17 H s       :     0.778311  s :     0.778311
 18 H s       :     0.778842  s :     0.778842
 19 H s       :     0.823505  s :     0.823505
 20 H s       :     0.777812  s :     0.777812
 21 H s       :     0.778927  s :     0.778927
 22 H s       :     0.823390  s :     0.823390
 23 H s       :     0.779274  s :     0.779274
 24 H s       :     0.777608  s :     0.777608


                     *******************************
                     * LOEWDIN POPULATION ANALYSIS *
                     *******************************

----------------------
LOEWDIN ATOMIC CHARGES
----------------------
   0 C :   -0.149934
   1 C :   -0.128793
   2 C :   -0.150015
   3 C :   -0.127826
   4 C :   -0.142007
   5 C :   -0.127819
   6 Cl:    0.109487
   7 H :    0.145998
   8 H :    0.139188
   9 H :    0.137956
  10 H :    0.139194
  11 H :    0.145994
  12 N :   -0.231884
  13 C :   -0.260189
  14 C :   -0.260414
  15 C :   -0.260117
  16 H :    0.094363
  17 H :    0.123097
  18 H :    0.122870
  19 H :    0.094201
  20 H :    0.123362
  21 H :    0.122883
  22 H :    0.094247
  23 H :    0.122723
  24 H :    0.123434

-------------------------------
LOEWDIN REDUCED ORBITAL CHARGES
-------------------------------
  0 C s       :     2.896660  s :     2.896660
      pz      :     1.073222  p :     3.164385
      px      :     1.092024
      py      :     0.999140
      dz2     :     0.027674  d :     0.088889
      dxz     :     0.031453
      dyz     :     0.011589
      dx2y2   :     0.012004
      dxy     :     0.006168
  1 C s       :     2.899245  s :     2.899245
      pz      :     1.092275  p :     3.105110
      px      :     0.993717
      py      :     1.019118
      dz2     :     0.032808  d :     0.124438
      dxz     :     0.044151
      dyz     :     0.015190
      dx2y2   :     0.016997
      dxy     :     0.015292
  2 C s       :     2.896660  s :     2.896660
      pz      :     1.084950  p :     3.164462
      px      :     1.080320
      py      :     0.999192
      dz2     :     0.025733  d :     0.088893
      dxz     :     0.029442
      dyz     :     0.003625
      dx2y2   :     0.015958
      dxy     :     0.014135
  3 C s       :     2.893882  s :     2.893882
      pz      :     1.088041  p :     3.143761
      px      :     1.079981
      py      :     0.975739
      dz2     :     0.025042  d :     0.090183
      dxz     :     0.035129
      dyz     :     0.011950
      dx2y2   :     0.011564
      dxy     :     0.006498
  4 C s       :     2.892642  s :     2.892642
      pz      :     1.085430  p :     3.160095
      px      :     1.081639
      py      :     0.993026
      dz2     :     0.025897  d :     0.089270
      dxz     :     0.034514
      dyz     :     0.011293
      dx2y2   :     0.011633
      dxy     :     0.005932
  5 C s       :     2.893881  s :     2.893881
      pz      :     1.080446  p :     3.143755
      px      :     1.087581
      py      :     0.975728
      dz2     :     0.027226  d :     0.090184
      dxz     :     0.028886
      dyz     :     0.003355
      dx2y2   :     0.015624
      dxy     :     0.015093
  6 Cls       :     5.770925  s :     5.770925
      pz      :     3.758149  p :    11.069948
      px      :     3.405595
      py      :     3.906205
      dz2     :     0.004026  d :     0.049641
      dxz     :     0.020675
      dyz     :     0.002445
      dx2y2   :     0.014992
      dxy     :     0.007504
  7 H s       :     0.854002  s :     0.854002
  8 H s       :     0.860812  s :     0.860812
  9 H s       :     0.862044  s :     0.862044
 10 H s       :     0.860806  s :     0.860806
 11 H s       :     0.854006  s :     0.854006
 12 N s       :     3.136828  s :     3.136828
      pz      :     1.290024  p :     3.988732
      px      :     1.541127
      py      :     1.157581
      dz2     :     0.031329  d :     0.106324
      dxz     :     0.011867
      dyz     :     0.019725
      dx2y2   :     0.014573
      dxy     :     0.028830
 13 C s       :     2.945686  s :     2.945686
      pz      :     1.110739  p :     3.213366
      px      :     1.069828
      py      :     1.032799
      dz2     :     0.024847  d :     0.101137
      dxz     :     0.015184
      dyz     :     0.010713
      dx2y2   :     0.024343
      dxy     :     0.026051
 14 C s       :     2.945688  s :     2.945688
      pz      :     0.957502  p :     3.213582
      px      :     1.119469
      py      :     1.136611
      dz2     :     0.031088  d :     0.101144
      dxz     :     0.033134
      dyz     :     0.013062
      dx2y2   :     0.007856
      dxy     :     0.016004
 15 C s       :     2.945684  s :     2.945684
      pz      :     1.132267  p :     3.213299
      px      :     1.091942
      py      :     0.989090
      dz2     :     0.021427  d :     0.101134
      dxz     :     0.013857
      dyz     :     0.013157
      dx2y2   :     0.023912
      dxy     :     0.028781
 16 H s       :     0.905637  s :     0.905637
 17 H s       :     0.876903  s :     0.876903
 18 H s       :     0.877130  s :     0.877130
 19 H s       :     0.905799  s :     0.905799
 20 H s       :     0.876638  s :     0.876638
 21 H s       :     0.877117  s :     0.877117
 22 H s       :     0.905753  s :     0.905753
 23 H s       :     0.877277  s :     0.877277
 24 H s       :     0.876566  s :     0.876566


                      *****************************
                      * MAYER POPULATION ANALYSIS *
                      *****************************

  NA   - Mulliken gross atomic population
  ZA   - Total nuclear charge
  QA   - Mulliken gross atomic charge
  VA   - Mayer's total valence
  BVA  - Mayer's bonded valence
  FA   - Mayer's free valence

  ATOM       NA         ZA         QA         VA         BVA        FA
  0 C      6.1927     6.0000    -0.1927     3.7639     3.7639     0.0000
  1 C      6.0224     6.0000    -0.0224     3.7954     3.7954    -0.0000
  2 C      6.1927     6.0000    -0.1927     3.7638     3.7638    -0.0000
  3 C      6.2256     6.0000    -0.2256     3.8189     3.8189     0.0000
  4 C      6.2190     6.0000    -0.2190     3.8092     3.8092    -0.0000
  5 C      6.2257     6.0000    -0.2257     3.8188     3.8188     0.0000
  6 Cl    17.0901    17.0000    -0.0901     1.1473     1.1473     0.0000
  7 H      0.7590     1.0000     0.2410     0.9045     0.9045    -0.0000
  8 H      0.7743     1.0000     0.2257     0.9104     0.9104    -0.0000
  9 H      0.7771     1.0000     0.2229     0.9112     0.9112     0.0000
 10 H      0.7743     1.0000     0.2257     0.9104     0.9104    -0.0000
 11 H      0.7590     1.0000     0.2410     0.9045     0.9045    -0.0000
 12 N      7.3734     7.0000    -0.3734     3.0088     3.0088    -0.0000
 13 C      6.4912     6.0000    -0.4912     3.7201     3.7201     0.0000
 14 C      6.4916     6.0000    -0.4916     3.7203     3.7203    -0.0000
 15 C      6.4911     6.0000    -0.4911     3.7199     3.7199    -0.0000
 16 H      0.8231     1.0000     0.1769     0.9197     0.9197     0.0000
 17 H      0.7783     1.0000     0.2217     0.9158     0.9158     0.0000
 18 H      0.7788     1.0000     0.2212     0.9159     0.9159    -0.0000
 19 H      0.8235     1.0000     0.1765     0.9197     0.9197    -0.0000
 20 H      0.7778     1.0000     0.2222     0.9156     0.9156    -0.0000
 21 H      0.7789     1.0000     0.2211     0.9160     0.9160    -0.0000
 22 H      0.8234     1.0000     0.1766     0.9197     0.9197    -0.0000
 23 H      0.7793     1.0000     0.2207     0.9161     0.9161    -0.0000
 24 H      0.7776     1.0000     0.2224     0.9155     0.9155     0.0000

  Mayer bond orders larger than 0.100000
B(  0-C ,  1-C ) :   1.3609 B(  0-C ,  5-C ) :   1.4226 B(  0-C , 11-H ) :   0.9099 
B(  1-C ,  2-C ) :   1.3608 B(  1-C ,  6-Cl) :   1.0239 B(  2-C ,  3-C ) :   1.4226 
B(  2-C ,  7-H ) :   0.9098 B(  3-C ,  4-C ) :   1.4224 B(  3-C ,  8-H ) :   0.9177 
B(  4-C ,  5-C ) :   1.4223 B(  4-C ,  9-H ) :   0.9192 B(  5-C , 10-H ) :   0.9177 
B( 12-N , 13-C ) :   0.9944 B( 12-N , 14-C ) :   0.9943 B( 12-N , 15-C ) :   0.9944 
B( 13-C , 22-H ) :   0.9062 B( 13-C , 23-H ) :   0.9278 B( 13-C , 24-H ) :   0.9272 
B( 14-C , 16-H ) :   0.9062 B( 14-C , 17-H ) :   0.9274 B( 14-C , 18-H ) :   0.9276 
B( 15-C , 19-H ) :   0.9062 B( 15-C , 20-H ) :   0.9273 B( 15-C , 21-H ) :   0.9277 


-------
TIMINGS
-------

Total SCF time: 0 days 0 hours 2 min 27 sec 

Total time                  ....     147.588 sec
Sum of individual times     ....     139.164 sec  ( 94.3%)

Fock matrix formation       ....     121.255 sec  ( 82.2%)
  Split-RI-J                ....       9.765 sec  (  8.1% of F)
  Chain of spheres X        ....      67.045 sec  ( 55.3% of F)
  XC integration            ....      26.469 sec  ( 21.8% of F)
    Basis function eval.    ....       5.119 sec  ( 19.3% of XC)
    Density eval.           ....       3.115 sec  ( 11.8% of XC)
    XC-Functional eval.     ....       2.460 sec  (  9.3% of XC)
    XC-Potential eval.      ....       1.691 sec  (  6.4% of XC)
Diagonalization             ....       1.159 sec  (  0.8%)
Density matrix formation    ....       0.092 sec  (  0.1%)
Population analysis         ....       0.679 sec  (  0.5%)
Initial guess               ....       0.156 sec  (  0.1%)
Orbital Transformation      ....       0.000 sec  (  0.0%)
Orbital Orthonormalization  ....       0.000 sec  (  0.0%)
DIIS solution               ....       2.157 sec  (  1.5%)
SOSCF solution              ....       1.503 sec  (  1.0%)
Grid generation             ....      12.162 sec  (  8.2%)

Maximum memory used throughout the entire SCF-calculation: 67.2 MB


-------------------------------------------------------------------------------
                          DFT DISPERSION CORRECTION                            
                                                                               
                              DFTD3 V3.1  Rev 1                                
                          USING Becke-Johnson damping                          
-------------------------------------------------------------------------------
The PBEh-3c composite method is recognized
Using three-body term ABC
Active option DFTDOPT                   ...         4   

molecular C6(AA) [au] = 6543.101406 


            DFT-D V3
 parameters
 s6 scaling factor         :     1.0000 
 a1 scaling factor         :     0.4860 
 s8 scaling factor         :     0.0000 
 a2 scaling factor         :     4.5000 
 Damping factor alpha9(ATM):    16.0000 
 ad hoc parameters k1-k3   :    16.0000     1.3333    -4.0000 

 Edisp/kcal,au: -8.296998200671  -0.013222106850 
 E6   /kcal   :  -8.312115528 
 E8   /kcal   :  -0.000000000 
 E6(ABC)      :   0.015117327 
 % E8         :   0.000000000 
 % E6(ABC)    :  -0.182202369 

-------------------------   ----------------
Dispersion correction           -0.013222107
-------------------------   ----------------

------------------   -----------------
gCP correction             0.037636581
------------------   -----------------

-------------------------   --------------------
FINAL SINGLE POINT ENERGY      -864.922521831083
-------------------------   --------------------


                            ***************************************
                            *     ORCA property calculations      *
                            ***************************************

                                    ---------------------
                                    Active property flags
                                    ---------------------
   (+) Dipole Moment


------------------------------------------------------------------------------
                       ORCA ELECTRIC PROPERTIES CALCULATION
------------------------------------------------------------------------------

Dipole Moment Calculation                       ... on
Quadrupole Moment Calculation                   ... off
Polarizability Calculation                      ... off
GBWName                                         ... pbeh-3c.gbw
Electron density                                ... pbeh-3c.scfp
The origin for moment calculation is the CENTER OF MASS  = (-2.910902,  0.001252  4.288364)

-------------
DIPOLE MOMENT
-------------
                                X             Y             Z
Electronic contribution:     14.47006       0.02178      -8.30660
Nuclear contribution   :    -14.37895      -0.02462       8.26159
                        -----------------------------------------
Total Dipole Moment    :      0.09111      -0.00284      -0.04500
                        -----------------------------------------
Magnitude (a.u.)       :      0.10166
Magnitude (Debye)      :      0.25840



--------------------
Rotational spectrum 
--------------------
 
Rotational constants in cm-1:     0.089103     0.010595     0.010036 
Rotational constants in MHz :  2671.239566   317.624085   300.870087 

 Dipole components along the rotational axes: 
x,y,z [a.u.] :    -0.101451     0.005887     0.002765 
x,y,z [Debye]:    -0.257869     0.014963     0.007027 

 

Timings for individual modules:

Sum of individual times         ...      152.297 sec (=   2.538 min)
GTO integral calculation        ...        3.826 sec (=   0.064 min)   2.5 %
SCF iterations                  ...      148.471 sec (=   2.475 min)  97.5 %
                             ****ORCA TERMINATED NORMALLY****
TOTAL RUN TIME: 0 days 0 hours 2 minutes 37 seconds 885 msec
