
                                 *****************
                                 * O   R   C   A *
                                 *****************

                                            #,                                       
                                            ###                                      
                                            ####                                     
                                            #####                                    
                                            ######                                   
                                           ########,                                 
                                     ,,################,,,,,                         
                               ,,#################################,,                 
                          ,,##########################################,,             
                       ,#########################################, ''#####,          
                    ,#############################################,,   '####,        
                  ,##################################################,,,,####,       
                ,###########''''           ''''###############################       
              ,#####''   ,,,,##########,,,,          '''####'''          '####       
            ,##' ,,,,###########################,,,                        '##       
           ' ,,###''''                  '''############,,,                           
         ,,##''                                '''############,,,,        ,,,,,,###''
      ,#''                                            '''#######################'''  
     '                                                          ''''####''''         
             ,#######,   #######,   ,#######,      ##                                
            ,#'     '#,  ##    ##  ,#'     '#,    #''#        ######   ,####,        
            ##       ##  ##   ,#'  ##            #'  '#       #        #'  '#        
            ##       ##  #######   ##           ,######,      #####,   #    #        
            '#,     ,#'  ##    ##  '#,     ,#' ,#      #,         ##   #,  ,#        
             '#######'   ##     ##  '#######'  #'      '#     #####' # '####'        



                  #######################################################
                  #                        -***-                        #
                  #          Department of theory and spectroscopy      #
                  #    Directorship and core code : Frank Neese         #
                  #        Max Planck Institute fuer Kohlenforschung    #
                  #                Kaiser Wilhelm Platz 1               #
                  #                 D-45470 Muelheim/Ruhr               #
                  #                      Germany                        #
                  #                                                     #
                  #                  All rights reserved                #
                  #                        -***-                        #
                  #######################################################


                         Program Version 5.0.3 -  RELEASE  -


 With contributions from (in alphabetic order):
   Daniel Aravena         : Magnetic Suceptibility
   Michael Atanasov       : Ab Initio Ligand Field Theory (pilot matlab implementation)
   Alexander A. Auer      : GIAO ZORA, VPT2 properties, NMR spectrum
   Ute Becker             : Parallelization
   Giovanni Bistoni       : ED, misc. LED, open-shell LED, HFLD
   Martin Brehm           : Molecular dynamics
   Dmytro Bykov           : SCF Hessian
   Vijay G. Chilkuri      : MRCI spin determinant printing, contributions to CSF-ICE
   Dipayan Datta          : RHF DLPNO-CCSD density
   Achintya Kumar Dutta   : EOM-CC, STEOM-CC
   Dmitry Ganyushin       : Spin-Orbit,Spin-Spin,Magnetic field MRCI
   Miquel Garcia          : C-PCM and meta-GGA Hessian, CC/C-PCM, Gaussian charge scheme
   Yang Guo               : DLPNO-NEVPT2, F12-NEVPT2, CIM, IAO-localization
   Andreas Hansen         : Spin unrestricted coupled pair/coupled cluster methods
   Benjamin Helmich-Paris : MC-RPA, TRAH-SCF, COSX integrals
   Lee Huntington         : MR-EOM, pCC
   Robert Izsak           : Overlap fitted RIJCOSX, COSX-SCS-MP3, EOM
   Marcus Kettner         : VPT2
   Christian Kollmar      : KDIIS, OOCD, Brueckner-CCSD(T), CCSD density, CASPT2, CASPT2-K
   Simone Kossmann        : Meta GGA functionals, TD-DFT gradient, OOMP2, MP2 Hessian
   Martin Krupicka        : Initial AUTO-CI
   Lucas Lang             : DCDCAS
   Marvin Lechner         : AUTO-CI (C++ implementation), FIC-MRCC
   Dagmar Lenk            : GEPOL surface, SMD
   Dimitrios Liakos       : Extrapolation schemes; Compound Job, initial MDCI parallelization
   Dimitrios Manganas     : Further ROCIS development; embedding schemes
   Dimitrios Pantazis     : SARC Basis sets
   Anastasios Papadopoulos: AUTO-CI, single reference methods and gradients
   Taras Petrenko         : DFT Hessian,TD-DFT gradient, ASA, ECA, R-Raman, ABS, FL, XAS/XES, NRVS
   Peter Pinski           : DLPNO-MP2, DLPNO-MP2 Gradient
   Christoph Reimann      : Effective Core Potentials
   Marius Retegan         : Local ZFS, SOC
   Christoph Riplinger    : Optimizer, TS searches, QM/MM, DLPNO-CCSD(T), (RO)-DLPNO pert. Triples
   Tobias Risthaus        : Range-separated hybrids, TD-DFT gradient, RPA, STAB
   Michael Roemelt        : Original ROCIS implementation
   Masaaki Saitow         : Open-shell DLPNO-CCSD energy and density
   Barbara Sandhoefer     : DKH picture change effects
   Avijit Sen             : IP-ROCIS
   Kantharuban Sivalingam : CASSCF convergence, NEVPT2, FIC-MRCI
   Bernardo de Souza      : ESD, SOC TD-DFT
   Georgi Stoychev        : AutoAux, RI-MP2 NMR, DLPNO-MP2 response
   Willem Van den Heuvel  : Paramagnetic NMR
   Boris Wezisla          : Elementary symmetry handling
   Frank Wennmohs         : Technical directorship


 We gratefully acknowledge several colleagues who have allowed us to
 interface, adapt or use parts of their codes:
   Stefan Grimme, W. Hujo, H. Kruse, P. Pracht,  : VdW corrections, initial TS optimization,
                  C. Bannwarth, S. Ehlert          DFT functionals, gCP, sTDA/sTD-DF
   Ed Valeev, F. Pavosevic, A. Kumar             : LibInt (2-el integral package), F12 methods
   Garnet Chan, S. Sharma, J. Yang, R. Olivares  : DMRG
   Ulf Ekstrom                                   : XCFun DFT Library
   Mihaly Kallay                                 : mrcc  (arbitrary order and MRCC methods)
   Jiri Pittner, Ondrej Demel                    : Mk-CCSD
   Frank Weinhold                                : gennbo (NPA and NBO analysis)
   Christopher J. Cramer and Donald G. Truhlar   : smd solvation model
   Lars Goerigk                                  : TD-DFT with DH, B97 family of functionals
   V. Asgeirsson, H. Jonsson                     : NEB implementation
   FAccTs GmbH                                   : IRC, NEB, NEB-TS, DLPNO-Multilevel, CI-OPT
                                                   MM, QMMM, 2- and 3-layer-ONIOM, Crystal-QMMM,
                                                   LR-CPCM, SF, NACMEs, symmetry and pop. for TD-DFT,
                                                   nearIR, NL-DFT gradient (VV10), updates on ESD,
                                                   ML-optimized integration grids
   S Lehtola, MJT Oliveira, MAL Marques          : LibXC Library
   Liviu Ungur et al                             : ANISO software


 Your calculation uses the libint2 library for the computation of 2-el integrals
 For citations please refer to: http://libint.valeyev.net

 Your ORCA version has been built with support for libXC version: 5.1.0
 For citations please refer to: https://tddft.org/programs/libxc/

 This ORCA versions uses:
   CBLAS   interface :  Fast vector & matrix operations
   LAPACKE interface :  Fast linear algebra routines
   SCALAPACK package :  Parallel linear algebra routines
   Shared memory     :  Shared parallel matrices
   BLAS/LAPACK       :  OpenBLAS 0.3.15  USE64BITINT DYNAMIC_ARCH NO_AFFINITY Haswell SINGLE_THREADED
        Core in use  :  Haswell
   Copyright (c) 2011-2014, The OpenBLAS Project




***************************************
The coordinates will be read from file: B6.xyz
***************************************


Your calculation utilizes the geometrical counterpoise correction gCP
Please cite in your paper:
H.Kruse, S. Grimme J.Chem.Phys., 136, (2012), 154101 
   

Your calculation utilizes the atom-pairwise dispersion correction
with the Becke-Johnson damping scheme (D3BJ)
Cite in your paper:
S.Grimme, S.Ehrlich, L.Goerigk, J Comput Chem, (2011), 32, 1456–1465 
S.Grimme, J.Antony, S.Ehrlich and H.Krieg, J.Chem.Phys., 132, (2010), 154104 
   

Your calculation employs the composite approach PBEh-3c.
Please cite in your paper:
S. Grimme, J. G. Brandenburg, C. Bannwarth, A. Hansen J.Chem.Phys., 143, (2015), 054107 
   

================================================================================

----- Orbital basis set information -----
Your calculation utilizes the basis: def2-mSVP

----- AuxJ basis set information -----
Your calculation utilizes the auxiliary basis: def2/J
   F. Weigend, Phys. Chem. Chem. Phys. 8, 1057 (2006).

================================================================================
                                        WARNINGS
                       Please study these warnings very carefully!
================================================================================


INFO   : the flag for use of the SHARK integral package has been found!

================================================================================
                                       INPUT FILE
================================================================================
NAME = pbeh-3c.inp
|  1> ! PBEh-3c def2/J TightSCF DefGrid3
|  2> 
|  3> %maxcore 60000
|  4> 
|  5> %pal
|  6> nprocs 4
|  7> end
|  8> 
|  9> *xyzfile 0 1 B6.xyz
| 10> 
| 11>                          ****END OF INPUT****
================================================================================

                       ****************************
                       * Single Point Calculation *
                       ****************************

---------------------------------
CARTESIAN COORDINATES (ANGSTROEM)
---------------------------------
  C      1.398890   -0.051902    0.578874
  H      0.847483   -0.488257    1.410002
  O      1.425370   -1.079354   -0.419635
  C      0.721991    1.227465    0.100633
  H      0.626390    1.888500    0.966428
  H      1.377791    1.741483   -0.608366
  C     -0.657736    1.024448   -0.542881
  H     -0.555442    0.584578   -1.537038
  H     -1.113192    2.007037   -0.682955
  H      1.869050   -0.728859   -1.197578
  H      2.411397    0.164223    0.927947
  C     -1.612850    0.146872    0.265340
  H     -1.527577    0.398114    1.330342
  H     -2.640388    0.356194   -0.033161
  O     -1.412462   -1.248012    0.072650
  H     -0.500543   -1.385385   -0.211537

----------------------------
CARTESIAN COORDINATES (A.U.)
----------------------------
  NO LB      ZA    FRAG     MASS         X           Y           Z
   0 C     6.0000    0    12.011    2.643519   -0.098081    1.093913
   1 H     1.0000    0     1.008    1.601511   -0.922672    2.664518
   2 O     8.0000    0    15.999    2.693559   -2.039683   -0.792995
   3 C     6.0000    0    12.011    1.364365    2.319573    0.190169
   4 H     1.0000    0     1.008    1.183706    3.568748    1.826284
   5 H     1.0000    0     1.008    2.603648    3.290926   -1.149645
   6 C     6.0000    0    12.011   -1.242941    1.935926   -1.025896
   7 H     1.0000    0     1.008   -1.049633    1.104692   -2.904581
   8 H     1.0000    0     1.008   -2.103628    3.792750   -1.290598
   9 H     1.0000    0     1.008    3.531993   -1.377344   -2.263094
  10 H     1.0000    0     1.008    4.556880    0.310336    1.753566
  11 C     6.0000    0    12.011   -3.047845    0.277548    0.501420
  12 H     1.0000    0     1.008   -2.886702    0.752326    2.513982
  13 H     1.0000    0     1.008   -4.989610    0.673109   -0.062665
  14 O     8.0000    0    15.999   -2.669166   -2.358401    0.137289
  15 H     1.0000    0     1.008   -0.945889   -2.617998   -0.399747

--------------------------------
INTERNAL COORDINATES (ANGSTROEM)
--------------------------------
 C      0   0   0     0.000000000000     0.00000000     0.00000000
 H      1   0   0     1.088682285177     0.00000000     0.00000000
 O      1   2   0     1.432961627464   104.71077233     0.00000000
 C      1   2   3     1.524364336690   110.54809802   122.04171410
 H      4   1   2     1.093484249750   107.32430804    55.13721718
 H      4   1   2     1.094060202331   109.35699627   170.10576434
 C      4   1   2     1.535894776674   114.79756356   293.23326385
 H      7   4   1     1.091923907598   110.52157095   286.47308577
 H      7   4   1     1.092035730337   108.02740383   170.26927874
 H      3   1   2     0.961714094039   108.11189541   177.39026165
 H      1   2   3     1.092580614876   107.74283980   242.54523314
 C      7   4   1     1.528268161552   114.56615189    48.71916955
 H     12   7   4     1.097553318567   109.46067786    41.20971332
 H     12   7   4     1.090299448835   109.50922393   158.40639245
 O     12   7   4     1.422317179851   113.79447058   277.45019785
 H     15  12   7     0.965002515364   108.21867471    24.52410686

---------------------------
INTERNAL COORDINATES (A.U.)
---------------------------
 C      0   0   0     0.000000000000     0.00000000     0.00000000
 H      1   0   0     2.057311365836     0.00000000     0.00000000
 O      1   2   0     2.707905036326   104.71077233     0.00000000
 C      1   2   3     2.880631124660   110.54809802   122.04171410
 H      4   1   2     2.066385763784   107.32430804    55.13721718
 H      4   1   2     2.067474156428   109.35699627   170.10576434
 C      4   1   2     2.902420498434   114.79756356   293.23326385
 H      7   4   1     2.063437144442   110.52157095   286.47308577
 H      7   4   1     2.063648458794   108.02740383   170.26927874
 H      3   1   2     1.817376256867   108.11189541   177.39026165
 H      1   2   3     2.064678141347   107.74283980   242.54523314
 C      7   4   1     2.888008284524   114.56615189    48.71916955
 H     12   7   4     2.074075189468   109.46067786    41.20971332
 H     12   7   4     2.060367362263   109.50922393   158.40639245
 O     12   7   4     2.687789945490   113.79447058   277.45019785
 H     15  12   7     1.823590472583   108.21867471    24.52410686

---------------------
BASIS SET INFORMATION
---------------------
There are 3 groups of distinct atoms

 Group   1 Type C   : 8s4p1d contracted to 4s2p1d pattern {5111/31/1}
 Group   2 Type H   : 4s contracted to 2s pattern {31}
 Group   3 Type O   : 8s4p1d contracted to 4s2p1d pattern {5111/31/1}

Atom   0C    basis set group =>   1
Atom   1H    basis set group =>   2
Atom   2O    basis set group =>   3
Atom   3C    basis set group =>   1
Atom   4H    basis set group =>   2
Atom   5H    basis set group =>   2
Atom   6C    basis set group =>   1
Atom   7H    basis set group =>   2
Atom   8H    basis set group =>   2
Atom   9H    basis set group =>   2
Atom  10H    basis set group =>   2
Atom  11C    basis set group =>   1
Atom  12H    basis set group =>   2
Atom  13H    basis set group =>   2
Atom  14O    basis set group =>   3
Atom  15H    basis set group =>   2
---------------------------------
AUXILIARY/J BASIS SET INFORMATION
---------------------------------
There are 3 groups of distinct atoms

 Group   1 Type C   : 12s5p4d2f1g contracted to 6s4p3d1f1g pattern {711111/2111/211/2/1}
 Group   2 Type H   : 5s2p1d contracted to 3s1p1d pattern {311/2/1}
 Group   3 Type O   : 12s5p4d2f1g contracted to 6s4p3d1f1g pattern {711111/2111/211/2/1}

Atom   0C    basis set group =>   1
Atom   1H    basis set group =>   2
Atom   2O    basis set group =>   3
Atom   3C    basis set group =>   1
Atom   4H    basis set group =>   2
Atom   5H    basis set group =>   2
Atom   6C    basis set group =>   1
Atom   7H    basis set group =>   2
Atom   8H    basis set group =>   2
Atom   9H    basis set group =>   2
Atom  10H    basis set group =>   2
Atom  11C    basis set group =>   1
Atom  12H    basis set group =>   2
Atom  13H    basis set group =>   2
Atom  14O    basis set group =>   3
Atom  15H    basis set group =>   2


           ************************************************************
           *        Program running with 4 parallel MPI-processes     *
           *              working on a common directory               *
           ************************************************************
------------------------------------------------------------------------------
                           ORCA GTO INTEGRAL CALCULATION
                           -- RI-GTO INTEGRALS CHOSEN --
------------------------------------------------------------------------------
------------------------------------------------------------------------------
                   ___                                                        
                  /   \      - P O W E R E D   B Y -                         
                 /     \                                                     
                 |  |  |   _    _      __       _____    __    __             
                 |  |  |  | |  | |    /  \     |  _  \  |  |  /  |          
                  \  \/   | |  | |   /    \    | | | |  |  | /  /          
                 / \  \   | |__| |  /  /\  \   | |_| |  |  |/  /          
                |  |  |   |  __  | /  /__\  \  |    /   |      \           
                |  |  |   | |  | | |   __   |  |    \   |  |\   \          
                \     /   | |  | | |  |  |  |  | |\  \  |  | \   \       
                 \___/    |_|  |_| |__|  |__|  |_| \__\ |__|  \__/        
                                                                              
                      - O R C A' S   B I G   F R I E N D -                    
                                      &                                       
                       - I N T E G R A L  F E E D E R -                       
                                                                              
 v1 FN, 2020, v2 2021                                                         
------------------------------------------------------------------------------


Reading SHARK input file pbeh-3c.SHARKINP.tmp ... ok
----------------------
SHARK INTEGRAL PACKAGE
----------------------

Number of atoms                             ...     16
Number of basis functions                   ...    110
Number of shells                            ...     62
Maximum angular momentum                    ...      2
Integral batch strategy                     ... SHARK/LIBINT Hybrid
RI-J (if used) integral strategy            ... SPLIT-RIJ (Revised 2003 algorithm where possible)
Printlevel                                  ...      1
Contraction scheme used                     ... SEGMENTED contraction
Coulomb Range Separation                    ... NOT USED
Exchange Range Separation                   ... NOT USED
Finite Nucleus Model                        ... NOT USED
Auxiliary Coulomb fitting basis             ... AVAILABLE
   # of basis functions in Aux-J            ...    404
   # of shells in Aux-J                     ...    140
   Maximum angular momentum in Aux-J        ...      4
Auxiliary J/K fitting basis                 ... NOT available
Auxiliary Correlation fitting basis         ... NOT available
Auxiliary 'external' fitting basis          ... NOT available
Integral threshold                          ...     2.500000e-11
Primitive cut-off                           ...     2.500000e-12
Primitive pair pre-selection threshold      ...     2.500000e-12

Calculating pre-screening integrals         ... done (  0.1 sec) Dimension = 62
Organizing shell pair data                  ... done (  0.4 sec)
Shell pair information
Total number of shell pairs                 ...      1953
Shell pairs after pre-screening             ...      1858
Total number of primitive shell pairs       ...      7129
Primitive shell pairs kept                  ...      4997
          la=0 lb=0:    905 shell pairs
          la=1 lb=0:    520 shell pairs
          la=1 lb=1:     78 shell pairs
          la=2 lb=0:    262 shell pairs
          la=2 lb=1:     72 shell pairs
          la=2 lb=2:     21 shell pairs

Calculating one electron integrals          ... done (  0.0 sec)
Calculating RI/J V-Matrix + Cholesky decomp.... done (  0.8 sec)
Calculating Nuclear repulsion               ... done (  0.1 sec) ENN=    264.965010885763 Eh

SHARK setup successfully completed in   2.7 seconds

Maximum memory used throughout the entire GTOINT-calculation: 10.6 MB


           ************************************************************
           *        Program running with 4 parallel MPI-processes     *
           *              working on a common directory               *
           ************************************************************
-------------------------------------------------------------------------------
                                 ORCA SCF
-------------------------------------------------------------------------------

------------
SCF SETTINGS
------------
Hamiltonian:
 Density Functional     Method          .... DFT(GTOs)
 Exchange Functional    Exchange        .... PBE
   PBE kappa parameter   XKappa         ....  1.024500
   PBE mue parameter    XMuePBE         ....  0.123457
 Correlation Functional Correlation     .... PBE
   PBE beta parameter  CBetaPBE         ....  0.030000
 LDA part of GGA corr.  LDAOpt          .... PW91-LDA
 Gradients option       PostSCFGGA      .... off
 Hybrid DFT is turned on
   Fraction HF Exchange ScalHFX         ....  0.420000
   Scaling of DF-GGA-X  ScalDFX         ....  0.580000
   Scaling of DF-GGA-C  ScalDFC         ....  1.000000
   Scaling of DF-LDA-C  ScalLDAC        ....  1.000000
   Perturbative correction              ....  0.000000
   Density functional embedding theory  .... OFF
 RI-approximation to the Coulomb term is turned on
   Number of AuxJ basis functions       .... 404
   RIJ-ON(X) (HFX calculated with O(N)) .... on
   Number of AuxJ basis functions       .... 404
   RIJ-COSX (HFX calculated with COS-X)).... on


General Settings:
 Integral files         IntName         .... pbeh-3c
 Hartree-Fock type      HFTyp           .... RHF
 Total Charge           Charge          ....    0
 Multiplicity           Mult            ....    1
 Number of Electrons    NEL             ....   50
 Basis Dimension        Dim             ....  110
 Nuclear Repulsion      ENuc            ....    264.9650108858 Eh

Convergence Acceleration:
 DIIS                   CNVDIIS         .... on
   Start iteration      DIISMaxIt       ....    12
   Startup error        DIISStart       ....  0.200000
   # of expansion vecs  DIISMaxEq       ....     5
   Bias factor          DIISBfac        ....   1.050
   Max. coefficient     DIISMaxC        ....  10.000
 Trust-Rad. Augm. Hess. CNVTRAH         .... auto
   Auto Start mean grad. ratio tolernc. ....  1.125000
   Auto Start start iteration           ....    20
   Auto Start num. interpolation iter.  ....    10
   Max. Number of Micro iterations      ....    16
   Max. Number of Macro iterations      .... Maxiter - #DIIS iter
   Number of Davidson start vectors     ....     2
   Converg. threshold I  (grad. norm)   ....   1.000e-05
   Converg. threshold II (energy diff.) ....   1.000e-08
   Grad. Scal. Fac. for Micro threshold ....   0.100
   Minimum threshold for Micro iter.    ....   0.010
   NR start threshold (gradient norm)   ....   0.001
   Initial trust radius                 ....   0.400
   Minimum AH scaling param. (alpha)    ....   1.000
   Maximum AH scaling param. (alpha)    .... 1000.000
   Orbital update algorithm             .... Taylor
   White noise on init. David. guess    .... on
   Maximum white noise                  ....   0.010
   Quad. conv. algorithm                .... NR
   COSX micro iterations for RIJONX calc.... off
 SOSCF                  CNVSOSCF        .... on
   Start iteration      SOSCFMaxIt      ....   150
   Startup grad/error   SOSCFStart      ....  0.003300
 Level Shifting         CNVShift        .... on
   Level shift para.    LevelShift      ....    0.2500
   Turn off err/grad.   ShiftErr        ....    0.0010
 Zerner damping         CNVZerner       .... off
 Static damping         CNVDamp         .... on
   Fraction old density DampFac         ....    0.7000
   Max. Damping (<1)    DampMax         ....    0.9800
   Min. Damping (>=0)   DampMin         ....    0.0000
   Turn off err/grad.   DampErr         ....    0.1000
 Fernandez-Rico         CNVRico         .... off

SCF Procedure:
 Maximum # iterations   MaxIter         ....   125
 SCF integral mode      SCFMode         .... Direct
   Integral package                     .... SHARK and LIBINT hybrid scheme
 Reset frequency        DirectResetFreq ....    20
 Integral Threshold     Thresh          ....  2.500e-11 Eh
 Primitive CutOff       TCut            ....  2.500e-12 Eh

Convergence Tolerance:
 Convergence Check Mode ConvCheckMode   .... Total+1el-Energy
 Convergence forced     ConvForced      .... 0
 Energy Change          TolE            ....  1.000e-08 Eh
 1-El. energy change                    ....  1.000e-05 Eh
 Orbital Gradient       TolG            ....  1.000e-05
 Orbital Rotation angle TolX            ....  1.000e-05
 DIIS Error             TolErr          ....  5.000e-07


Diagonalization of the overlap matrix:
Smallest eigenvalue                        ... 6.025e-03
Time for diagonalization                   ...    0.002 sec
Threshold for overlap eigenvalues          ... 1.000e-08
Number of eigenvalues below threshold      ... 0
Time for construction of square roots      ...    0.300 sec
Total time needed                          ...    0.302 sec

--------------------------------
INITIAL GUESS: MINIMAL BASIS EHT
--------------------------------
The minimal basis has 40 functions
EHT matrix was diagonalized
Basis set overlap was calculated now projecting the orbitals
Using GuessMode=FMatrix for the initial guess
C*T matrix was formed
Effective Fockian was calculated
Effective Fockian was diagonalized
Initial density was built
                      ------------------
                      INITIAL GUESS DONE
                      ------------------
-------------------
DFT GRID GENERATION
-------------------

General Integration Accuracy     IntAcc      ... 4.959
Radial Grid Type                 RadialGrid  ... OptM3 with GC (2021)
Angular Grid (max. ang.)         AngularGrid ... 6 (Lebedev-590)
Angular grid pruning method      GridPruning ... 4 (adaptive)
Weight generation scheme         WeightScheme... Becke
Basis function cutoff            BFCut       ... 1.0000e-11
Integration weight cutoff        WCut        ... 1.0000e-14
Angular grids for H and He will be reduced by one unit
Partially contracted basis set               ... off
Rotationally invariant grid construction     ... off

Total number of grid points                  ...   172583
Total number of batches                      ...     2706
Average number of points per batch           ...       63
Average number of grid points per atom       ...    10786
Time for grid setup =    3.847 sec

--------------------
COSX GRID GENERATION
--------------------

GRIDX 1
-------
General Integration Accuracy     IntAcc      ... 4.020
Radial Grid Type                 RadialGrid  ... OptM3 with GC (2021)
Angular Grid (max. ang.)         AngularGrid ... 2 (Lebedev-110)
Angular grid pruning method      GridPruning ... 4 (adaptive)
Weight generation scheme         WeightScheme... Becke
Basis function cutoff            BFCut       ... 1.0000e-11
Integration weight cutoff        WCut        ... 1.0000e-14
Angular grids for H and He will be reduced by one unit
Partially contracted basis set               ... on
Rotationally invariant grid construction     ... off

Total number of grid points                  ...    18352
Total number of batches                      ...      297
Average number of points per batch           ...       61
Average number of grid points per atom       ...     1147
UseSFitting                                  ... on

GRIDX 2
-------
General Integration Accuracy     IntAcc      ... 4.338
Radial Grid Type                 RadialGrid  ... OptM3 with GC (2021)
Angular Grid (max. ang.)         AngularGrid ... 3 (Lebedev-194)
Angular grid pruning method      GridPruning ... 4 (adaptive)
Weight generation scheme         WeightScheme... Becke
Basis function cutoff            BFCut       ... 1.0000e-11
Integration weight cutoff        WCut        ... 1.0000e-14
Angular grids for H and He will be reduced by one unit
Partially contracted basis set               ... on
Rotationally invariant grid construction     ... off

Total number of grid points                  ...    40178
Total number of batches                      ...      637
Average number of points per batch           ...       63
Average number of grid points per atom       ...     2511
UseSFitting                                  ... on

GRIDX 3
-------
General Integration Accuracy     IntAcc      ... 4.871
Radial Grid Type                 RadialGrid  ... OptM3 with GC (2021)
Angular Grid (max. ang.)         AngularGrid ... 4 (Lebedev-302)
Angular grid pruning method      GridPruning ... 4 (adaptive)
Weight generation scheme         WeightScheme... Becke
Basis function cutoff            BFCut       ... 1.0000e-11
Integration weight cutoff        WCut        ... 1.0000e-14
Angular grids for H and He will be reduced by one unit
Partially contracted basis set               ... on
Rotationally invariant grid construction     ... off

Total number of grid points                  ...    79102
Total number of batches                      ...     1243
Average number of points per batch           ...       63
Average number of grid points per atom       ...     4944
UseSFitting                                  ... on

Time for X-Grid setup             =    5.182 sec

--------------
SCF ITERATIONS
--------------
ITER       Energy         Delta-E        Max-DP      RMS-DP      [F,P]     Damp
               ***  Starting incremental Fock matrix formation  ***
  0   -307.4035022610   0.000000000000 0.17161681  0.00608664  0.4861495 0.7000
  1   -307.7019864220  -0.298484160913 0.09054641  0.00356289  0.2790885 0.7000
                               ***Turning on DIIS***
  2   -307.8646468939  -0.162660471918 0.04437390  0.00195538  0.1966190 0.7000
  3   -307.9754941143  -0.110847220389 0.02338947  0.00119145  0.1382080 0.7000
  4   -308.0541427286  -0.078648614294 0.05522316  0.00295370  0.0967619 0.0000
  5   -308.2427682546  -0.188625526017 0.00918282  0.00030355  0.0094831 0.0000
  6   -308.2429644236  -0.000196169033 0.00268672  0.00008717  0.0053285 0.0000
                      *** Initiating the SOSCF procedure ***
                           *** Shutting down DIIS ***
                      *** Re-Reading the Fockian *** 
                      *** Removing any level shift *** 
ITER      Energy       Delta-E        Grad      Rot      Max-DP    RMS-DP
  7   -308.24303436  -0.0000699384  0.000323  0.000323  0.001382  0.000057
               *** Restarting incremental Fock matrix formation ***
  8   -308.24302545   0.0000089160  0.000041  0.000082  0.000208  0.000009
  9   -308.24302556  -0.0000001149  0.000034  0.000026  0.000100  0.000004
 10   -308.24302562  -0.0000000577  0.000008  0.000005  0.000016  0.000001
 11   -308.24302562   0.0000000005  0.000005  0.000002  0.000008  0.000000
                  ***Gradient check signals convergence***
              ***Rediagonalizing the Fockian in SOSCF/NRSCF***

               *****************************************************
               *                     SUCCESS                       *
               *           SCF CONVERGED AFTER  12 CYCLES          *
               *****************************************************

Old exchange energy                            =    -17.131675320 Eh
New exchange energy                            =    -17.131682902 Eh
Exchange energy change after final integration =     -0.000007582 Eh
Total energy after final integration           =   -308.243033201 Eh
Final COS-X integration done in                =     3.451 sec

----------------
TOTAL SCF ENERGY
----------------

Total Energy       :         -308.24303320 Eh           -8387.71936 eV

Components:
Nuclear Repulsion  :          264.96501089 Eh            7210.06450 eV
Electronic Energy  :         -573.20804409 Eh          -15597.78386 eV
One Electron Energy:         -944.90879637 Eh          -25712.27554 eV
Two Electron Energy:          371.70075228 Eh           10114.49168 eV
Max COSX asymmetry :            0.00000154 Eh               0.00004 eV

Virial components:
Potential Energy   :         -614.24497733 Eh          -16714.45558 eV
Kinetic Energy     :          306.00194413 Eh            8326.73622 eV
Virial Ratio       :            2.00732377


DFT components:
N(Alpha)           :       25.000007165761 electrons
N(Beta)            :       25.000007165761 electrons
N(Total)           :       50.000014331522 electrons
E(X)               :      -22.762144937128 Eh       
E(C)               :       -2.180572086969 Eh       
E(XC)              :      -24.942717024098 Eh       
DFET-embed. en.    :        0.000000000000 Eh       

---------------
SCF CONVERGENCE
---------------

  Last Energy change         ...   -1.0823e-09  Tolerance :   1.0000e-08
  Last MAX-Density change    ...    1.2212e-15  Tolerance :   1.0000e-07
  Last RMS-Density change    ...    5.0880e-17  Tolerance :   5.0000e-09
  Last Orbital Gradient      ...    5.5197e-07  Tolerance :   1.0000e-05
  Last Orbital Rotation      ...    7.8657e-07  Tolerance :   1.0000e-05

             **** THE GBW FILE WAS UPDATED (pbeh-3c.gbw) ****
             **** DENSITY pbeh-3c.scfp WAS UPDATED ****
             **** ENERGY FILE WAS UPDATED (pbeh-3c.en.tmp) ****
             **** THE GBW FILE WAS UPDATED (pbeh-3c.gbw) ****
             **** DENSITY pbeh-3c.scfp WAS UPDATED ****
----------------
ORBITAL ENERGIES
----------------

  NO   OCC          E(Eh)            E(eV) 
   0   2.0000     -19.510466      -530.9068 
   1   2.0000     -19.459314      -529.5149 
   2   2.0000     -10.493722      -285.5487 
   3   2.0000     -10.471302      -284.9386 
   4   2.0000     -10.447027      -284.2780 
   5   2.0000     -10.438949      -284.0582 
   6   2.0000      -1.143726       -31.1224 
   7   2.0000      -1.098229       -29.8843 
   8   2.0000      -0.886908       -24.1340 
   9   2.0000      -0.799746       -21.7622 
  10   2.0000      -0.723086       -19.6762 
  11   2.0000      -0.664067       -18.0702 
  12   2.0000      -0.577594       -15.7171 
  13   2.0000      -0.552983       -15.0474 
  14   2.0000      -0.538277       -14.6473 
  15   2.0000      -0.508089       -13.8258 
  16   2.0000      -0.493287       -13.4230 
  17   2.0000      -0.470119       -12.7926 
  18   2.0000      -0.460088       -12.5196 
  19   2.0000      -0.411123       -11.1872 
  20   2.0000      -0.400668       -10.9027 
  21   2.0000      -0.392499       -10.6804 
  22   2.0000      -0.361855        -9.8466 
  23   2.0000      -0.341207        -9.2847 
  24   2.0000      -0.304639        -8.2896 
  25   0.0000       0.103271         2.8101 
  26   0.0000       0.155280         4.2254 
  27   0.0000       0.167994         4.5714 
  28   0.0000       0.177761         4.8371 
  29   0.0000       0.186698         5.0803 
  30   0.0000       0.188791         5.1373 
  31   0.0000       0.211926         5.7668 
  32   0.0000       0.219914         5.9842 
  33   0.0000       0.228090         6.2066 
  34   0.0000       0.239431         6.5152 
  35   0.0000       0.252210         6.8630 
  36   0.0000       0.261102         7.1049 
  37   0.0000       0.284989         7.7550 
  38   0.0000       0.327880         8.9221 
  39   0.0000       0.337678         9.1887 
  40   0.0000       0.495820        13.4919 
  41   0.0000       0.534183        14.5359 
  42   0.0000       0.540930        14.7194 
  43   0.0000       0.558470        15.1967 
  44   0.0000       0.570493        15.5239 
  45   0.0000       0.596576        16.2337 
  46   0.0000       0.610920        16.6240 
  47   0.0000       0.643746        17.5172 
  48   0.0000       0.666627        18.1398 
  49   0.0000       0.714980        19.4556 
  50   0.0000       0.762854        20.7583 
  51   0.0000       0.851333        23.1660 
  52   0.0000       0.906561        24.6688 
  53   0.0000       0.921600        25.0780 
  54   0.0000       0.950158        25.8551 
  55   0.0000       0.980439        26.6791 
  56   0.0000       0.989740        26.9322 
  57   0.0000       1.013134        27.5688 
  58   0.0000       1.027364        27.9560 
  59   0.0000       1.034896        28.1609 
  60   0.0000       1.049433        28.5565 
  61   0.0000       1.063043        28.9269 
  62   0.0000       1.064641        28.9704 
  63   0.0000       1.135812        30.9070 
  64   0.0000       1.148575        31.2543 
  65   0.0000       1.173450        31.9312 
  66   0.0000       1.210734        32.9457 
  67   0.0000       1.256623        34.1944 
  68   0.0000       1.325781        36.0763 
  69   0.0000       1.362251        37.0687 
  70   0.0000       1.447058        39.3764 
  71   0.0000       1.458068        39.6761 
  72   0.0000       1.516023        41.2531 
  73   0.0000       1.564826        42.5811 
  74   0.0000       1.591441        43.3053 
  75   0.0000       1.632321        44.4177 
  76   0.0000       1.768333        48.1188 
  77   0.0000       1.794359        48.8270 
  78   0.0000       1.846734        50.2522 
  79   0.0000       1.862196        50.6729 
  80   0.0000       1.907675        51.9105 
  81   0.0000       1.924901        52.3792 
  82   0.0000       1.987349        54.0785 
  83   0.0000       1.992826        54.2276 
  84   0.0000       2.019967        54.9661 
  85   0.0000       2.100956        57.1699 
  86   0.0000       2.115240        57.5586 
  87   0.0000       2.149573        58.4929 
  88   0.0000       2.193123        59.6779 
  89   0.0000       2.237274        60.8793 
  90   0.0000       2.323033        63.2130 
  91   0.0000       2.341404        63.7128 
  92   0.0000       2.395896        65.1956 
  93   0.0000       2.423929        65.9585 
  94   0.0000       2.466617        67.1201 
  95   0.0000       2.500283        68.0362 
  96   0.0000       2.525100        68.7115 
  97   0.0000       2.624401        71.4136 
  98   0.0000       2.633224        71.6537 
  99   0.0000       2.699332        73.4526 
 100   0.0000       2.738789        74.5262 
 101   0.0000       2.780587        75.6636 
 102   0.0000       2.898051        78.8600 
 103   0.0000       2.936177        79.8974 
 104   0.0000      13.567842       369.1998 
 105   0.0000      13.814515       375.9121 
 106   0.0000      13.958148       379.8205 
 107   0.0000      14.049461       382.3053 
 108   0.0000      25.495757       693.7748 
 109   0.0000      25.596299       696.5107 

                    ********************************
                    * MULLIKEN POPULATION ANALYSIS *
                    ********************************

-----------------------
MULLIKEN ATOMIC CHARGES
-----------------------
   0 C :   -0.198478
   1 H :    0.235667
   2 O :   -0.634804
   3 C :   -0.473089
   4 H :    0.222921
   5 H :    0.213326
   6 C :   -0.478017
   7 H :    0.221456
   8 H :    0.224635
   9 H :    0.421720
  10 H :    0.214823
  11 C :   -0.130844
  12 H :    0.169970
  13 H :    0.205315
  14 O :   -0.656842
  15 H :    0.442242
Sum of atomic charges:    0.0000000

--------------------------------
MULLIKEN REDUCED ORBITAL CHARGES
--------------------------------
  0 C s       :     3.268399  s :     3.268399
      pz      :     0.901363  p :     2.863021
      px      :     1.125897
      py      :     0.835762
      dz2     :     0.009992  d :     0.067057
      dxz     :     0.012566
      dyz     :     0.019497
      dx2y2   :     0.013808
      dxy     :     0.011194
  1 H s       :     0.764333  s :     0.764333
  2 O s       :     3.818849  s :     3.818849
      pz      :     1.352917  p :     4.787399
      px      :     1.810161
      py      :     1.624321
      dz2     :     0.003573  d :     0.028555
      dxz     :     0.005730
      dyz     :     0.010310
      dx2y2   :     0.004842
      dxy     :     0.004100
  3 C s       :     3.332392  s :     3.332392
      pz      :     1.110674  p :     3.098101
      px      :     0.981632
      py      :     1.005795
      dz2     :     0.004936  d :     0.042597
      dxz     :     0.009186
      dyz     :     0.012157
      dx2y2   :     0.007326
      dxy     :     0.008992
  4 H s       :     0.777079  s :     0.777079
  5 H s       :     0.786674  s :     0.786674
  6 C s       :     3.332213  s :     3.332213
      pz      :     1.051896  p :     3.103394
      px      :     0.940483
      py      :     1.111016
      dz2     :     0.010665  d :     0.042409
      dxz     :     0.006965
      dyz     :     0.006758
      dx2y2   :     0.008618
      dxy     :     0.009403
  7 H s       :     0.778544  s :     0.778544
  8 H s       :     0.775365  s :     0.775365
  9 H s       :     0.578280  s :     0.578280
 10 H s       :     0.785177  s :     0.785177
 11 C s       :     3.254858  s :     3.254858
      pz      :     1.032901  p :     2.807207
      px      :     1.055915
      py      :     0.718391
      dz2     :     0.016037  d :     0.068779
      dxz     :     0.004659
      dyz     :     0.015736
      dx2y2   :     0.019901
      dxy     :     0.012445
 12 H s       :     0.830030  s :     0.830030
 13 H s       :     0.794685  s :     0.794685
 14 O s       :     3.808455  s :     3.808455
      pz      :     1.867344  p :     4.819939
      px      :     1.538484
      py      :     1.414111
      dz2     :     0.004340  d :     0.028448
      dxz     :     0.003312
      dyz     :     0.003161
      dx2y2   :     0.014572
      dxy     :     0.003063
 15 H s       :     0.557758  s :     0.557758


                     *******************************
                     * LOEWDIN POPULATION ANALYSIS *
                     *******************************

----------------------
LOEWDIN ATOMIC CHARGES
----------------------
   0 C :   -0.107091
   1 H :    0.128508
   2 O :   -0.408618
   3 C :   -0.270372
   4 H :    0.132694
   5 H :    0.121590
   6 C :   -0.271513
   7 H :    0.127112
   8 H :    0.132772
   9 H :    0.312789
  10 H :    0.111492
  11 C :   -0.090466
  12 H :    0.092641
  13 H :    0.113782
  14 O :   -0.429058
  15 H :    0.303735

-------------------------------
LOEWDIN REDUCED ORBITAL CHARGES
-------------------------------
  0 C s       :     2.913082  s :     2.913082
      pz      :     0.968873  p :     3.052577
      px      :     1.115219
      py      :     0.968485
      dz2     :     0.021419  d :     0.141432
      dxz     :     0.024114
      dyz     :     0.042784
      dx2y2   :     0.028634
      dxy     :     0.024481
  1 H s       :     0.871492  s :     0.871492
  2 O s       :     3.528323  s :     3.528323
      pz      :     1.378592  p :     4.830060
      px      :     1.805072
      py      :     1.646396
      dz2     :     0.008847  d :     0.050235
      dxz     :     0.010291
      dyz     :     0.017727
      dx2y2   :     0.007325
      dxy     :     0.006045
  3 C s       :     2.922003  s :     2.922003
      pz      :     1.108426  p :     3.260970
      px      :     1.072797
      py      :     1.079746
      dz2     :     0.009574  d :     0.087399
      dxz     :     0.018592
      dyz     :     0.022905
      dx2y2   :     0.016836
      dxy     :     0.019493
  4 H s       :     0.867306  s :     0.867306
  5 H s       :     0.878410  s :     0.878410
  6 C s       :     2.920635  s :     2.920635
      pz      :     1.099543  p :     3.264346
      px      :     1.062748
      py      :     1.102055
      dz2     :     0.019806  d :     0.086533
      dxz     :     0.016299
      dyz     :     0.013180
      dx2y2   :     0.018191
      dxy     :     0.019056
  7 H s       :     0.872888  s :     0.872888
  8 H s       :     0.867228  s :     0.867228
  9 H s       :     0.687211  s :     0.687211
 10 H s       :     0.888508  s :     0.888508
 11 C s       :     2.906741  s :     2.906741
      pz      :     1.088563  p :     3.039182
      px      :     1.089518
      py      :     0.861101
      dz2     :     0.031522  d :     0.144542
      dxz     :     0.009042
      dyz     :     0.034469
      dx2y2   :     0.041992
      dxy     :     0.027517
 12 H s       :     0.907359  s :     0.907359
 13 H s       :     0.886218  s :     0.886218
 14 O s       :     3.516383  s :     3.516383
      pz      :     1.872542  p :     4.863129
      px      :     1.529102
      py      :     1.461486
      dz2     :     0.006211  d :     0.049545
      dxz     :     0.004322
      dyz     :     0.006991
      dx2y2   :     0.024214
      dxy     :     0.007807
 15 H s       :     0.696265  s :     0.696265


                      *****************************
                      * MAYER POPULATION ANALYSIS *
                      *****************************

  NA   - Mulliken gross atomic population
  ZA   - Total nuclear charge
  QA   - Mulliken gross atomic charge
  VA   - Mayer's total valence
  BVA  - Mayer's bonded valence
  FA   - Mayer's free valence

  ATOM       NA         ZA         QA         VA         BVA        FA
  0 C      6.1985     6.0000    -0.1985     3.7343     3.7343     0.0000
  1 H      0.7643     1.0000     0.2357     0.9026     0.9026    -0.0000
  2 O      8.6348     8.0000    -0.6348     1.8749     1.8749     0.0000
  3 C      6.4731     6.0000    -0.4731     3.7260     3.7260    -0.0000
  4 H      0.7771     1.0000     0.2229     0.9054     0.9054    -0.0000
  5 H      0.7867     1.0000     0.2133     0.9074     0.9074    -0.0000
  6 C      6.4780     6.0000    -0.4780     3.7271     3.7271     0.0000
  7 H      0.7785     1.0000     0.2215     0.9102     0.9102    -0.0000
  8 H      0.7754     1.0000     0.2246     0.9064     0.9064    -0.0000
  9 H      0.5783     1.0000     0.4217     0.7967     0.7967    -0.0000
 10 H      0.7852     1.0000     0.2148     0.9028     0.9028     0.0000
 11 C      6.1308     6.0000    -0.1308     3.7938     3.7938     0.0000
 12 H      0.8300     1.0000     0.1700     0.9061     0.9061     0.0000
 13 H      0.7947     1.0000     0.2053     0.9073     0.9073     0.0000
 14 O      8.6568     8.0000    -0.6568     1.8326     1.8326    -0.0000
 15 H      0.5578     1.0000     0.4422     0.8060     0.8060    -0.0000

  Mayer bond orders larger than 0.100000
B(  0-C ,  1-H ) :   0.9047 B(  0-C ,  2-O ) :   0.9702 B(  0-C ,  3-C ) :   0.9707 
B(  0-C , 10-H ) :   0.9116 B(  2-O ,  9-H ) :   0.7858 B(  3-C ,  4-H ) :   0.9098 
B(  3-C ,  5-H ) :   0.9214 B(  3-C ,  6-C ) :   0.9740 B(  6-C ,  7-H ) :   0.9118 
B(  6-C ,  8-H ) :   0.9149 B(  6-C , 11-C ) :   0.9685 B( 11-C , 12-H ) :   0.9061 
B( 11-C , 13-H ) :   0.9166 B( 11-C , 14-O ) :   1.0353 B( 14-O , 15-H ) :   0.7233 


-------
TIMINGS
-------

Total SCF time: 0 days 0 hours 1 min 29 sec 

Total time                  ....      89.783 sec
Sum of individual times     ....      80.275 sec  ( 89.4%)

Fock matrix formation       ....      65.474 sec  ( 72.9%)
  Split-RI-J                ....       6.832 sec  ( 10.4% of F)
  Chain of spheres X        ....      20.828 sec  ( 31.8% of F)
  XC integration            ....      20.912 sec  ( 31.9% of F)
    Basis function eval.    ....       3.022 sec  ( 14.5% of XC)
    Density eval.           ....       1.867 sec  (  8.9% of XC)
    XC-Functional eval.     ....       1.644 sec  (  7.9% of XC)
    XC-Potential eval.      ....       0.869 sec  (  4.2% of XC)
Diagonalization             ....       1.566 sec  (  1.7%)
Density matrix formation    ....       0.102 sec  (  0.1%)
Population analysis         ....       0.878 sec  (  1.0%)
Initial guess               ....       0.232 sec  (  0.3%)
Orbital Transformation      ....       0.000 sec  (  0.0%)
Orbital Orthonormalization  ....       0.000 sec  (  0.0%)
DIIS solution               ....       1.876 sec  (  2.1%)
SOSCF solution              ....       1.119 sec  (  1.2%)
Grid generation             ....       9.029 sec  ( 10.1%)

Maximum memory used throughout the entire SCF-calculation: 52.9 MB


-------------------------------------------------------------------------------
                          DFT DISPERSION CORRECTION                            
                                                                               
                              DFTD3 V3.1  Rev 1                                
                          USING Becke-Johnson damping                          
-------------------------------------------------------------------------------
The PBEh-3c composite method is recognized
Using three-body term ABC
Active option DFTDOPT                   ...         4   

molecular C6(AA) [au] = 1675.101863 


            DFT-D V3
 parameters
 s6 scaling factor         :     1.0000 
 a1 scaling factor         :     0.4860 
 s8 scaling factor         :     0.0000 
 a2 scaling factor         :     4.5000 
 Damping factor alpha9(ATM):    16.0000 
 ad hoc parameters k1-k3   :    16.0000     1.3333    -4.0000 

 Edisp/kcal,au: -4.460882790431  -0.007108868470 
 E6   /kcal   :  -4.494799093 
 E8   /kcal   :  -0.000000000 
 E6(ABC)      :   0.033916302 
 % E8         :   0.000000000 
 % E6(ABC)    :  -0.760304715 

-------------------------   ----------------
Dispersion correction           -0.007108868
-------------------------   ----------------

------------------   -----------------
gCP correction             0.041881625
------------------   -----------------

-------------------------   --------------------
FINAL SINGLE POINT ENERGY      -308.208260444563
-------------------------   --------------------


                            ***************************************
                            *     ORCA property calculations      *
                            ***************************************

                                    ---------------------
                                    Active property flags
                                    ---------------------
   (+) Dipole Moment


------------------------------------------------------------------------------
                       ORCA ELECTRIC PROPERTIES CALCULATION
------------------------------------------------------------------------------

Dipole Moment Calculation                       ... on
Quadrupole Moment Calculation                   ... off
Polarizability Calculation                      ... off
GBWName                                         ... pbeh-3c.gbw
Electron density                                ... pbeh-3c.scfp
The origin for moment calculation is the CENTER OF MASS  = (-0.016571, -0.093796 -0.007473)

-------------
DIPOLE MOMENT
-------------
                                X             Y             Z
Electronic contribution:      0.10347      -3.54693      -0.64381
Nuclear contribution   :      0.82854       4.68981       0.37366
                        -----------------------------------------
Total Dipole Moment    :      0.93201       1.14287      -0.27015
                        -----------------------------------------
Magnitude (a.u.)       :      1.49926
Magnitude (Debye)      :      3.81082



--------------------
Rotational spectrum 
--------------------
 
Rotational constants in cm-1:     0.153066     0.095785     0.069474 
Rotational constants in MHz :  4588.793579  2871.556976  2082.774939 

 Dipole components along the rotational axes: 
x,y,z [a.u.] :    -0.953444     1.124901    -0.270780 
x,y,z [Debye]:    -2.423462     2.859272    -0.688269 

 

Timings for individual modules:

Sum of individual times         ...       94.910 sec (=   1.582 min)
GTO integral calculation        ...        3.882 sec (=   0.065 min)   4.1 %
SCF iterations                  ...       91.028 sec (=   1.517 min)  95.9 %
                             ****ORCA TERMINATED NORMALLY****
TOTAL RUN TIME: 0 days 0 hours 1 minutes 40 seconds 666 msec
