
                                 *****************
                                 * O   R   C   A *
                                 *****************

                                            #,                                       
                                            ###                                      
                                            ####                                     
                                            #####                                    
                                            ######                                   
                                           ########,                                 
                                     ,,################,,,,,                         
                               ,,#################################,,                 
                          ,,##########################################,,             
                       ,#########################################, ''#####,          
                    ,#############################################,,   '####,        
                  ,##################################################,,,,####,       
                ,###########''''           ''''###############################       
              ,#####''   ,,,,##########,,,,          '''####'''          '####       
            ,##' ,,,,###########################,,,                        '##       
           ' ,,###''''                  '''############,,,                           
         ,,##''                                '''############,,,,        ,,,,,,###''
      ,#''                                            '''#######################'''  
     '                                                          ''''####''''         
             ,#######,   #######,   ,#######,      ##                                
            ,#'     '#,  ##    ##  ,#'     '#,    #''#        ######   ,####,        
            ##       ##  ##   ,#'  ##            #'  '#       #        #'  '#        
            ##       ##  #######   ##           ,######,      #####,   #    #        
            '#,     ,#'  ##    ##  '#,     ,#' ,#      #,         ##   #,  ,#        
             '#######'   ##     ##  '#######'  #'      '#     #####' # '####'        



                  #######################################################
                  #                        -***-                        #
                  #          Department of theory and spectroscopy      #
                  #    Directorship and core code : Frank Neese         #
                  #        Max Planck Institute fuer Kohlenforschung    #
                  #                Kaiser Wilhelm Platz 1               #
                  #                 D-45470 Muelheim/Ruhr               #
                  #                      Germany                        #
                  #                                                     #
                  #                  All rights reserved                #
                  #                        -***-                        #
                  #######################################################


                         Program Version 5.0.3 -  RELEASE  -


 With contributions from (in alphabetic order):
   Daniel Aravena         : Magnetic Suceptibility
   Michael Atanasov       : Ab Initio Ligand Field Theory (pilot matlab implementation)
   Alexander A. Auer      : GIAO ZORA, VPT2 properties, NMR spectrum
   Ute Becker             : Parallelization
   Giovanni Bistoni       : ED, misc. LED, open-shell LED, HFLD
   Martin Brehm           : Molecular dynamics
   Dmytro Bykov           : SCF Hessian
   Vijay G. Chilkuri      : MRCI spin determinant printing, contributions to CSF-ICE
   Dipayan Datta          : RHF DLPNO-CCSD density
   Achintya Kumar Dutta   : EOM-CC, STEOM-CC
   Dmitry Ganyushin       : Spin-Orbit,Spin-Spin,Magnetic field MRCI
   Miquel Garcia          : C-PCM and meta-GGA Hessian, CC/C-PCM, Gaussian charge scheme
   Yang Guo               : DLPNO-NEVPT2, F12-NEVPT2, CIM, IAO-localization
   Andreas Hansen         : Spin unrestricted coupled pair/coupled cluster methods
   Benjamin Helmich-Paris : MC-RPA, TRAH-SCF, COSX integrals
   Lee Huntington         : MR-EOM, pCC
   Robert Izsak           : Overlap fitted RIJCOSX, COSX-SCS-MP3, EOM
   Marcus Kettner         : VPT2
   Christian Kollmar      : KDIIS, OOCD, Brueckner-CCSD(T), CCSD density, CASPT2, CASPT2-K
   Simone Kossmann        : Meta GGA functionals, TD-DFT gradient, OOMP2, MP2 Hessian
   Martin Krupicka        : Initial AUTO-CI
   Lucas Lang             : DCDCAS
   Marvin Lechner         : AUTO-CI (C++ implementation), FIC-MRCC
   Dagmar Lenk            : GEPOL surface, SMD
   Dimitrios Liakos       : Extrapolation schemes; Compound Job, initial MDCI parallelization
   Dimitrios Manganas     : Further ROCIS development; embedding schemes
   Dimitrios Pantazis     : SARC Basis sets
   Anastasios Papadopoulos: AUTO-CI, single reference methods and gradients
   Taras Petrenko         : DFT Hessian,TD-DFT gradient, ASA, ECA, R-Raman, ABS, FL, XAS/XES, NRVS
   Peter Pinski           : DLPNO-MP2, DLPNO-MP2 Gradient
   Christoph Reimann      : Effective Core Potentials
   Marius Retegan         : Local ZFS, SOC
   Christoph Riplinger    : Optimizer, TS searches, QM/MM, DLPNO-CCSD(T), (RO)-DLPNO pert. Triples
   Tobias Risthaus        : Range-separated hybrids, TD-DFT gradient, RPA, STAB
   Michael Roemelt        : Original ROCIS implementation
   Masaaki Saitow         : Open-shell DLPNO-CCSD energy and density
   Barbara Sandhoefer     : DKH picture change effects
   Avijit Sen             : IP-ROCIS
   Kantharuban Sivalingam : CASSCF convergence, NEVPT2, FIC-MRCI
   Bernardo de Souza      : ESD, SOC TD-DFT
   Georgi Stoychev        : AutoAux, RI-MP2 NMR, DLPNO-MP2 response
   Willem Van den Heuvel  : Paramagnetic NMR
   Boris Wezisla          : Elementary symmetry handling
   Frank Wennmohs         : Technical directorship


 We gratefully acknowledge several colleagues who have allowed us to
 interface, adapt or use parts of their codes:
   Stefan Grimme, W. Hujo, H. Kruse, P. Pracht,  : VdW corrections, initial TS optimization,
                  C. Bannwarth, S. Ehlert          DFT functionals, gCP, sTDA/sTD-DF
   Ed Valeev, F. Pavosevic, A. Kumar             : LibInt (2-el integral package), F12 methods
   Garnet Chan, S. Sharma, J. Yang, R. Olivares  : DMRG
   Ulf Ekstrom                                   : XCFun DFT Library
   Mihaly Kallay                                 : mrcc  (arbitrary order and MRCC methods)
   Jiri Pittner, Ondrej Demel                    : Mk-CCSD
   Frank Weinhold                                : gennbo (NPA and NBO analysis)
   Christopher J. Cramer and Donald G. Truhlar   : smd solvation model
   Lars Goerigk                                  : TD-DFT with DH, B97 family of functionals
   V. Asgeirsson, H. Jonsson                     : NEB implementation
   FAccTs GmbH                                   : IRC, NEB, NEB-TS, DLPNO-Multilevel, CI-OPT
                                                   MM, QMMM, 2- and 3-layer-ONIOM, Crystal-QMMM,
                                                   LR-CPCM, SF, NACMEs, symmetry and pop. for TD-DFT,
                                                   nearIR, NL-DFT gradient (VV10), updates on ESD,
                                                   ML-optimized integration grids
   S Lehtola, MJT Oliveira, MAL Marques          : LibXC Library
   Liviu Ungur et al                             : ANISO software


 Your calculation uses the libint2 library for the computation of 2-el integrals
 For citations please refer to: http://libint.valeyev.net

 Your ORCA version has been built with support for libXC version: 5.1.0
 For citations please refer to: https://tddft.org/programs/libxc/

 This ORCA versions uses:
   CBLAS   interface :  Fast vector & matrix operations
   LAPACKE interface :  Fast linear algebra routines
   SCALAPACK package :  Parallel linear algebra routines
   Shared memory     :  Shared parallel matrices
   BLAS/LAPACK       :  OpenBLAS 0.3.15  USE64BITINT DYNAMIC_ARCH NO_AFFINITY Haswell SINGLE_THREADED
        Core in use  :  Haswell
   Copyright (c) 2011-2014, The OpenBLAS Project




***************************************
The coordinates will be read from file: 20B.xyz
***************************************


Your calculation utilizes the geometrical counterpoise correction gCP
Please cite in your paper:
H.Kruse, S. Grimme J.Chem.Phys., 136, (2012), 154101 
   

Your calculation utilizes the atom-pairwise dispersion correction
with the Becke-Johnson damping scheme (D3BJ)
Cite in your paper:
S.Grimme, S.Ehrlich, L.Goerigk, J Comput Chem, (2011), 32, 1456–1465 
S.Grimme, J.Antony, S.Ehrlich and H.Krieg, J.Chem.Phys., 132, (2010), 154104 
   

Your calculation employs the composite approach PBEh-3c.
Please cite in your paper:
S. Grimme, J. G. Brandenburg, C. Bannwarth, A. Hansen J.Chem.Phys., 143, (2015), 054107 
   

================================================================================

----- Orbital basis set information -----
Your calculation utilizes the basis: def2-mSVP

----- AuxJ basis set information -----
Your calculation utilizes the auxiliary basis: def2/J
   F. Weigend, Phys. Chem. Chem. Phys. 8, 1057 (2006).

================================================================================
                                        WARNINGS
                       Please study these warnings very carefully!
================================================================================


INFO   : the flag for use of the SHARK integral package has been found!

================================================================================
                                       INPUT FILE
================================================================================
NAME = pbeh-3c.inp
|  1> ! PBEh-3c def2/J TightSCF DefGrid3
|  2> 
|  3> %maxcore 60000
|  4> 
|  5> %pal
|  6> nprocs 4
|  7> end
|  8> 
|  9> *xyzfile 0 1 20B.xyz
| 10> 
| 11>                          ****END OF INPUT****
================================================================================

                       ****************************
                       * Single Point Calculation *
                       ****************************

---------------------------------
CARTESIAN COORDINATES (ANGSTROEM)
---------------------------------
  C     -0.554409   -0.158519    0.000000
  O     -1.258056   -1.160912    0.000000
  O     -1.026826    1.077873    0.000000
  H     -2.020634    1.042529    0.000000
  C      0.942329   -0.203621    0.000000
  H      1.279913   -1.232725    0.000000
  H      1.318842    0.317688   -0.876950
  H      1.318842    0.317688    0.876950

----------------------------
CARTESIAN COORDINATES (A.U.)
----------------------------
  NO LB      ZA    FRAG     MASS         X           Y           Z
   0 C     6.0000    0    12.011   -1.047682   -0.299558    0.000000
   1 O     8.0000    0    15.999   -2.377381   -2.193805    0.000000
   2 O     8.0000    0    15.999   -1.940420    2.036886    0.000000
   3 H     1.0000    0     1.008   -3.818446    1.970094    0.000000
   4 C     6.0000    0    12.011    1.780743   -0.384788    0.000000
   5 H     1.0000    0     1.008    2.418684   -2.329513    0.000000
   6 H     1.0000    0     1.008    2.492251    0.600343   -1.657196
   7 H     1.0000    0     1.008    2.492251    0.600343    1.657196

--------------------------------
INTERNAL COORDINATES (ANGSTROEM)
--------------------------------
 C      0   0   0     0.000000000000     0.00000000     0.00000000
 O      1   0   0     1.224707712187     0.00000000     0.00000000
 O      1   2   0     1.323572571705   124.02092300     0.00000000
 H      3   1   2     0.994436813187   108.87463628     0.00000000
 C      1   2   3     1.497417381029   123.34159213   180.00000000
 H      5   1   2     1.083059681278   109.88739253     0.00000000
 H      5   1   2     1.087459162972   109.36813170   121.26270223
 H      5   1   2     1.087459162972   109.36813170   238.73729777

---------------------------
INTERNAL COORDINATES (A.U.)
---------------------------
 C      0   0   0     0.000000000000     0.00000000     0.00000000
 O      1   0   0     2.314362170134     0.00000000     0.00000000
 O      1   2   0     2.501189678892   124.02092300     0.00000000
 H      3   1   2     1.879213234413   108.87463628     0.00000000
 C      1   2   3     2.829708758318   123.34159213   180.00000000
 H      5   1   2     2.046686184307   109.88739253     0.00000000
 H      5   1   2     2.054999999840   109.36813170   121.26270223
 H      5   1   2     2.054999999840   109.36813170   238.73729777

---------------------
BASIS SET INFORMATION
---------------------
There are 3 groups of distinct atoms

 Group   1 Type C   : 8s4p1d contracted to 4s2p1d pattern {5111/31/1}
 Group   2 Type O   : 8s4p1d contracted to 4s2p1d pattern {5111/31/1}
 Group   3 Type H   : 4s contracted to 2s pattern {31}

Atom   0C    basis set group =>   1
Atom   1O    basis set group =>   2
Atom   2O    basis set group =>   2
Atom   3H    basis set group =>   3
Atom   4C    basis set group =>   1
Atom   5H    basis set group =>   3
Atom   6H    basis set group =>   3
Atom   7H    basis set group =>   3
---------------------------------
AUXILIARY/J BASIS SET INFORMATION
---------------------------------
There are 3 groups of distinct atoms

 Group   1 Type C   : 12s5p4d2f1g contracted to 6s4p3d1f1g pattern {711111/2111/211/2/1}
 Group   2 Type O   : 12s5p4d2f1g contracted to 6s4p3d1f1g pattern {711111/2111/211/2/1}
 Group   3 Type H   : 5s2p1d contracted to 3s1p1d pattern {311/2/1}

Atom   0C    basis set group =>   1
Atom   1O    basis set group =>   2
Atom   2O    basis set group =>   2
Atom   3H    basis set group =>   3
Atom   4C    basis set group =>   1
Atom   5H    basis set group =>   3
Atom   6H    basis set group =>   3
Atom   7H    basis set group =>   3


           ************************************************************
           *        Program running with 4 parallel MPI-processes     *
           *              working on a common directory               *
           ************************************************************
------------------------------------------------------------------------------
                           ORCA GTO INTEGRAL CALCULATION
                           -- RI-GTO INTEGRALS CHOSEN --
------------------------------------------------------------------------------
------------------------------------------------------------------------------
                   ___                                                        
                  /   \      - P O W E R E D   B Y -                         
                 /     \                                                     
                 |  |  |   _    _      __       _____    __    __             
                 |  |  |  | |  | |    /  \     |  _  \  |  |  /  |          
                  \  \/   | |  | |   /    \    | | | |  |  | /  /          
                 / \  \   | |__| |  /  /\  \   | |_| |  |  |/  /          
                |  |  |   |  __  | /  /__\  \  |    /   |      \           
                |  |  |   | |  | | |   __   |  |    \   |  |\   \          
                \     /   | |  | | |  |  |  |  | |\  \  |  | \   \       
                 \___/    |_|  |_| |__|  |__|  |_| \__\ |__|  \__/        
                                                                              
                      - O R C A' S   B I G   F R I E N D -                    
                                      &                                       
                       - I N T E G R A L  F E E D E R -                       
                                                                              
 v1 FN, 2020, v2 2021                                                         
------------------------------------------------------------------------------


Reading SHARK input file pbeh-3c.SHARKINP.tmp ... ok
----------------------
SHARK INTEGRAL PACKAGE
----------------------

Number of atoms                             ...      8
Number of basis functions                   ...     68
Number of shells                            ...     36
Maximum angular momentum                    ...      2
Integral batch strategy                     ... SHARK/LIBINT Hybrid
RI-J (if used) integral strategy            ... SPLIT-RIJ (Revised 2003 algorithm where possible)
Printlevel                                  ...      1
Contraction scheme used                     ... SEGMENTED contraction
Coulomb Range Separation                    ... NOT USED
Exchange Range Separation                   ... NOT USED
Finite Nucleus Model                        ... NOT USED
Auxiliary Coulomb fitting basis             ... AVAILABLE
   # of basis functions in Aux-J            ...    240
   # of shells in Aux-J                     ...     80
   Maximum angular momentum in Aux-J        ...      4
Auxiliary J/K fitting basis                 ... NOT available
Auxiliary Correlation fitting basis         ... NOT available
Auxiliary 'external' fitting basis          ... NOT available
Integral threshold                          ...     2.500000e-11
Primitive cut-off                           ...     2.500000e-12
Primitive pair pre-selection threshold      ...     2.500000e-12

Calculating pre-screening integrals         ... done (  0.1 sec) Dimension = 36
Organizing shell pair data                  ... done (  0.3 sec)
Shell pair information
Total number of shell pairs                 ...       666
Shell pairs after pre-screening             ...       651
Total number of primitive shell pairs       ...      2410
Primitive shell pairs kept                  ...      1862
          la=0 lb=0:    285 shell pairs
          la=1 lb=0:    192 shell pairs
          la=1 lb=1:     36 shell pairs
          la=2 lb=0:     96 shell pairs
          la=2 lb=1:     32 shell pairs
          la=2 lb=2:     10 shell pairs

Calculating one electron integrals          ... done (  0.0 sec)
Calculating RI/J V-Matrix + Cholesky decomp.... done (  0.7 sec)
Calculating Nuclear repulsion               ... done (  0.2 sec) ENN=    121.349645811976 Eh

SHARK setup successfully completed in   2.5 seconds

Maximum memory used throughout the entire GTOINT-calculation: 9.4 MB


           ************************************************************
           *        Program running with 4 parallel MPI-processes     *
           *              working on a common directory               *
           ************************************************************
-------------------------------------------------------------------------------
                                 ORCA SCF
-------------------------------------------------------------------------------

------------
SCF SETTINGS
------------
Hamiltonian:
 Density Functional     Method          .... DFT(GTOs)
 Exchange Functional    Exchange        .... PBE
   PBE kappa parameter   XKappa         ....  1.024500
   PBE mue parameter    XMuePBE         ....  0.123457
 Correlation Functional Correlation     .... PBE
   PBE beta parameter  CBetaPBE         ....  0.030000
 LDA part of GGA corr.  LDAOpt          .... PW91-LDA
 Gradients option       PostSCFGGA      .... off
 Hybrid DFT is turned on
   Fraction HF Exchange ScalHFX         ....  0.420000
   Scaling of DF-GGA-X  ScalDFX         ....  0.580000
   Scaling of DF-GGA-C  ScalDFC         ....  1.000000
   Scaling of DF-LDA-C  ScalLDAC        ....  1.000000
   Perturbative correction              ....  0.000000
   Density functional embedding theory  .... OFF
 RI-approximation to the Coulomb term is turned on
   Number of AuxJ basis functions       .... 240
   RIJ-ON(X) (HFX calculated with O(N)) .... on
   Number of AuxJ basis functions       .... 240
   RIJ-COSX (HFX calculated with COS-X)).... on


General Settings:
 Integral files         IntName         .... pbeh-3c
 Hartree-Fock type      HFTyp           .... RHF
 Total Charge           Charge          ....    0
 Multiplicity           Mult            ....    1
 Number of Electrons    NEL             ....   32
 Basis Dimension        Dim             ....   68
 Nuclear Repulsion      ENuc            ....    121.3496458120 Eh

Convergence Acceleration:
 DIIS                   CNVDIIS         .... on
   Start iteration      DIISMaxIt       ....    12
   Startup error        DIISStart       ....  0.200000
   # of expansion vecs  DIISMaxEq       ....     5
   Bias factor          DIISBfac        ....   1.050
   Max. coefficient     DIISMaxC        ....  10.000
 Trust-Rad. Augm. Hess. CNVTRAH         .... auto
   Auto Start mean grad. ratio tolernc. ....  1.125000
   Auto Start start iteration           ....    20
   Auto Start num. interpolation iter.  ....    10
   Max. Number of Micro iterations      ....    16
   Max. Number of Macro iterations      .... Maxiter - #DIIS iter
   Number of Davidson start vectors     ....     2
   Converg. threshold I  (grad. norm)   ....   1.000e-05
   Converg. threshold II (energy diff.) ....   1.000e-08
   Grad. Scal. Fac. for Micro threshold ....   0.100
   Minimum threshold for Micro iter.    ....   0.010
   NR start threshold (gradient norm)   ....   0.001
   Initial trust radius                 ....   0.400
   Minimum AH scaling param. (alpha)    ....   1.000
   Maximum AH scaling param. (alpha)    .... 1000.000
   Orbital update algorithm             .... Taylor
   White noise on init. David. guess    .... on
   Maximum white noise                  ....   0.010
   Quad. conv. algorithm                .... NR
   COSX micro iterations for RIJONX calc.... off
 SOSCF                  CNVSOSCF        .... on
   Start iteration      SOSCFMaxIt      ....   150
   Startup grad/error   SOSCFStart      ....  0.003300
 Level Shifting         CNVShift        .... on
   Level shift para.    LevelShift      ....    0.2500
   Turn off err/grad.   ShiftErr        ....    0.0010
 Zerner damping         CNVZerner       .... off
 Static damping         CNVDamp         .... on
   Fraction old density DampFac         ....    0.7000
   Max. Damping (<1)    DampMax         ....    0.9800
   Min. Damping (>=0)   DampMin         ....    0.0000
   Turn off err/grad.   DampErr         ....    0.1000
 Fernandez-Rico         CNVRico         .... off

SCF Procedure:
 Maximum # iterations   MaxIter         ....   125
 SCF integral mode      SCFMode         .... Direct
   Integral package                     .... SHARK and LIBINT hybrid scheme
 Reset frequency        DirectResetFreq ....    20
 Integral Threshold     Thresh          ....  2.500e-11 Eh
 Primitive CutOff       TCut            ....  2.500e-12 Eh

Convergence Tolerance:
 Convergence Check Mode ConvCheckMode   .... Total+1el-Energy
 Convergence forced     ConvForced      .... 0
 Energy Change          TolE            ....  1.000e-08 Eh
 1-El. energy change                    ....  1.000e-05 Eh
 Orbital Gradient       TolG            ....  1.000e-05
 Orbital Rotation angle TolX            ....  1.000e-05
 DIIS Error             TolErr          ....  5.000e-07


Diagonalization of the overlap matrix:
Smallest eigenvalue                        ... 7.119e-03
Time for diagonalization                   ...    0.001 sec
Threshold for overlap eigenvalues          ... 1.000e-08
Number of eigenvalues below threshold      ... 0
Time for construction of square roots      ...    0.167 sec
Total time needed                          ...    0.169 sec

--------------------------------
INITIAL GUESS: MINIMAL BASIS EHT
--------------------------------
The minimal basis has 24 functions
EHT matrix was diagonalized
Basis set overlap was calculated now projecting the orbitals
Using GuessMode=FMatrix for the initial guess
C*T matrix was formed
Effective Fockian was calculated
Effective Fockian was diagonalized
Initial density was built
                      ------------------
                      INITIAL GUESS DONE
                      ------------------
-------------------
DFT GRID GENERATION
-------------------

General Integration Accuracy     IntAcc      ... 4.959
Radial Grid Type                 RadialGrid  ... OptM3 with GC (2021)
Angular Grid (max. ang.)         AngularGrid ... 6 (Lebedev-590)
Angular grid pruning method      GridPruning ... 4 (adaptive)
Weight generation scheme         WeightScheme... Becke
Basis function cutoff            BFCut       ... 1.0000e-11
Integration weight cutoff        WCut        ... 1.0000e-14
Angular grids for H and He will be reduced by one unit
Partially contracted basis set               ... off
Rotationally invariant grid construction     ... off

Total number of grid points                  ...    93381
Total number of batches                      ...     1463
Average number of points per batch           ...       63
Average number of grid points per atom       ...    11673
Time for grid setup =    2.770 sec

--------------------
COSX GRID GENERATION
--------------------

GRIDX 1
-------
General Integration Accuracy     IntAcc      ... 4.020
Radial Grid Type                 RadialGrid  ... OptM3 with GC (2021)
Angular Grid (max. ang.)         AngularGrid ... 2 (Lebedev-110)
Angular grid pruning method      GridPruning ... 4 (adaptive)
Weight generation scheme         WeightScheme... Becke
Basis function cutoff            BFCut       ... 1.0000e-11
Integration weight cutoff        WCut        ... 1.0000e-14
Angular grids for H and He will be reduced by one unit
Partially contracted basis set               ... on
Rotationally invariant grid construction     ... off

Total number of grid points                  ...    10536
Total number of batches                      ...      168
Average number of points per batch           ...       62
Average number of grid points per atom       ...     1317
UseSFitting                                  ... on

GRIDX 2
-------
General Integration Accuracy     IntAcc      ... 4.338
Radial Grid Type                 RadialGrid  ... OptM3 with GC (2021)
Angular Grid (max. ang.)         AngularGrid ... 3 (Lebedev-194)
Angular grid pruning method      GridPruning ... 4 (adaptive)
Weight generation scheme         WeightScheme... Becke
Basis function cutoff            BFCut       ... 1.0000e-11
Integration weight cutoff        WCut        ... 1.0000e-14
Angular grids for H and He will be reduced by one unit
Partially contracted basis set               ... on
Rotationally invariant grid construction     ... off

Total number of grid points                  ...    23254
Total number of batches                      ...      367
Average number of points per batch           ...       63
Average number of grid points per atom       ...     2907
UseSFitting                                  ... on

GRIDX 3
-------
General Integration Accuracy     IntAcc      ... 4.871
Radial Grid Type                 RadialGrid  ... OptM3 with GC (2021)
Angular Grid (max. ang.)         AngularGrid ... 4 (Lebedev-302)
Angular grid pruning method      GridPruning ... 4 (adaptive)
Weight generation scheme         WeightScheme... Becke
Basis function cutoff            BFCut       ... 1.0000e-11
Integration weight cutoff        WCut        ... 1.0000e-14
Angular grids for H and He will be reduced by one unit
Partially contracted basis set               ... on
Rotationally invariant grid construction     ... off

Total number of grid points                  ...    44759
Total number of batches                      ...      703
Average number of points per batch           ...       63
Average number of grid points per atom       ...     5595
UseSFitting                                  ... on

Time for X-Grid setup             =    2.985 sec

--------------
SCF ITERATIONS
--------------
ITER       Energy         Delta-E        Max-DP      RMS-DP      [F,P]     Damp
               ***  Starting incremental Fock matrix formation  ***
  0   -227.7628851572   0.000000000000 0.19996224  0.01029706  0.5658688 0.7000
  1   -228.0965058925  -0.333620735264 0.11326923  0.00549120  0.2971415 0.7000
  2   -228.2497616066  -0.153255714087 0.04554036  0.00275193  0.2099018 0.7000
                               ***Turning on DIIS***
  3   -228.3554876149  -0.105726008374 0.02595641  0.00175652  0.1476293 0.7000
  4   -228.4318885272  -0.076400912248 0.02154731  0.00128320  0.1036198 0.7000
  5   -228.4858283695  -0.053939842306 0.05283535  0.00315905  0.0727407 0.0000
  6   -228.6134315884  -0.127603218913 0.00391758  0.00019659  0.0042319 0.0000
                      *** Initiating the SOSCF procedure ***
                           *** Shutting down DIIS ***
                      *** Re-Reading the Fockian *** 
                      *** Removing any level shift *** 
ITER      Energy       Delta-E        Grad      Rot      Max-DP    RMS-DP
  7   -228.61349058  -0.0000589945  0.000678  0.000678  0.001359  0.000085
               *** Restarting incremental Fock matrix formation ***
  8   -228.61350814  -0.0000175543  0.000573  0.001365  0.001539  0.000060
  9   -228.61350980  -0.0000016663  0.000418  0.000312  0.000722  0.000042
 10   -228.61351137  -0.0000015700  0.000091  0.000083  0.000271  0.000013
 11   -228.61351146  -0.0000000871  0.000029  0.000045  0.000074  0.000003
 12   -228.61351147  -0.0000000062  0.000021  0.000025  0.000040  0.000002
                  ***Gradient check signals convergence***
              ***Rediagonalizing the Fockian in SOSCF/NRSCF***

               *****************************************************
               *                     SUCCESS                       *
               *           SCF CONVERGED AFTER  13 CYCLES          *
               *****************************************************

Old exchange energy                            =    -11.859119755 Eh
New exchange energy                            =    -11.859118784 Eh
Exchange energy change after final integration =      0.000000971 Eh
Total energy after final integration           =   -228.613510502 Eh
Final COS-X integration done in                =     1.316 sec

----------------
TOTAL SCF ENERGY
----------------

Total Energy       :         -228.61351050 Eh           -6220.88988 eV

Components:
Nuclear Repulsion  :          121.34964581 Eh            3302.09174 eV
Electronic Energy  :         -349.96315631 Eh           -9522.98162 eV
One Electron Energy:         -552.44967342 Eh          -15032.91987 eV
Two Electron Energy:          202.48651710 Eh            5509.93825 eV
Max COSX asymmetry :            0.00000241 Eh               0.00007 eV

Virial components:
Potential Energy   :         -455.63822335 Eh          -12398.54639 eV
Kinetic Energy     :          227.02471285 Eh            6177.65650 eV
Virial Ratio       :            2.00699835


DFT components:
N(Alpha)           :       16.000000061755 electrons
N(Beta)            :       16.000000061755 electrons
N(Total)           :       32.000000123511 electrons
E(X)               :      -15.792336124422 Eh       
E(C)               :       -1.416717228800 Eh       
E(XC)              :      -17.209053353223 Eh       
DFET-embed. en.    :        0.000000000000 Eh       

---------------
SCF CONVERGENCE
---------------

  Last Energy change         ...   -6.1040e-09  Tolerance :   1.0000e-08
  Last MAX-Density change    ...    1.9984e-15  Tolerance :   1.0000e-07
  Last RMS-Density change    ...    6.4569e-17  Tolerance :   5.0000e-09
  Last Orbital Gradient      ...    1.6158e-06  Tolerance :   1.0000e-05
  Last Orbital Rotation      ...    2.2997e-06  Tolerance :   1.0000e-05

             **** THE GBW FILE WAS UPDATED (pbeh-3c.gbw) ****
             **** DENSITY pbeh-3c.scfp WAS UPDATED ****
             **** ENERGY FILE WAS UPDATED (pbeh-3c.en.tmp) ****
             **** THE GBW FILE WAS UPDATED (pbeh-3c.gbw) ****
             **** DENSITY pbeh-3c.scfp WAS UPDATED ****
----------------
ORBITAL ENERGIES
----------------

  NO   OCC          E(Eh)            E(eV) 
   0   2.0000     -19.551964      -532.0360 
   1   2.0000     -19.478867      -530.0469 
   2   2.0000     -10.583624      -287.9951 
   3   2.0000     -10.447054      -284.2788 
   4   2.0000      -1.225062       -33.3356 
   5   2.0000      -1.116382       -30.3783 
   6   2.0000      -0.848645       -23.0928 
   7   2.0000      -0.693701       -18.8766 
   8   2.0000      -0.557814       -15.1789 
   9   2.0000      -0.549821       -14.9614 
  10   2.0000      -0.536347       -14.5948 
  11   2.0000      -0.471042       -12.8177 
  12   2.0000      -0.453401       -12.3377 
  13   2.0000      -0.450206       -12.2507 
  14   2.0000      -0.372515       -10.1367 
  15   2.0000      -0.330887        -9.0039 
  16   0.0000       0.047304         1.2872 
  17   0.0000       0.114106         3.1050 
  18   0.0000       0.167058         4.5459 
  19   0.0000       0.207514         5.6467 
  20   0.0000       0.220704         6.0057 
  21   0.0000       0.242748         6.6055 
  22   0.0000       0.324713         8.8359 
  23   0.0000       0.381659        10.3855 
  24   0.0000       0.505887        13.7659 
  25   0.0000       0.538946        14.6655 
  26   0.0000       0.574134        15.6230 
  27   0.0000       0.574983        15.6461 
  28   0.0000       0.591248        16.0887 
  29   0.0000       0.685826        18.6623 
  30   0.0000       0.794359        21.6156 
  31   0.0000       0.863327        23.4923 
  32   0.0000       0.956277        26.0216 
  33   0.0000       0.970176        26.3998 
  34   0.0000       1.010562        27.4988 
  35   0.0000       1.034442        28.1486 
  36   0.0000       1.045478        28.4489 
  37   0.0000       1.089531        29.6477 
  38   0.0000       1.152019        31.3480 
  39   0.0000       1.158644        31.5283 
  40   0.0000       1.197479        32.5851 
  41   0.0000       1.392921        37.9033 
  42   0.0000       1.423674        38.7401 
  43   0.0000       1.449615        39.4460 
  44   0.0000       1.715067        46.6694 
  45   0.0000       1.769758        48.1576 
  46   0.0000       1.776145        48.3314 
  47   0.0000       1.867199        50.8091 
  48   0.0000       1.869246        50.8648 
  49   0.0000       1.935715        52.6735 
  50   0.0000       1.965216        53.4763 
  51   0.0000       2.035562        55.3905 
  52   0.0000       2.076776        56.5119 
  53   0.0000       2.123885        57.7938 
  54   0.0000       2.264866        61.6301 
  55   0.0000       2.272297        61.8323 
  56   0.0000       2.356174        64.1148 
  57   0.0000       2.519413        68.5567 
  58   0.0000       2.534266        68.9609 
  59   0.0000       2.720735        74.0350 
  60   0.0000       2.774012        75.4847 
  61   0.0000       2.897109        78.8343 
  62   0.0000       2.993774        81.4647 
  63   0.0000       3.158643        85.9511 
  64   0.0000      13.650871       371.4591 
  65   0.0000      14.066604       382.7718 
  66   0.0000      25.536724       694.8896 
  67   0.0000      25.699751       699.3258 

                    ********************************
                    * MULLIKEN POPULATION ANALYSIS *
                    ********************************

-----------------------
MULLIKEN ATOMIC CHARGES
-----------------------
   0 C :    0.506698
   1 O :   -0.410803
   2 O :   -0.566212
   3 H :    0.445887
   4 C :   -0.738225
   5 H :    0.261675
   6 H :    0.250490
   7 H :    0.250490
Sum of atomic charges:   -0.0000000

--------------------------------
MULLIKEN REDUCED ORBITAL CHARGES
--------------------------------
  0 C s       :     2.960317  s :     2.960317
      pz      :     0.737921  p :     2.395517
      px      :     0.907509
      py      :     0.750088
      dz2     :     0.007035  d :     0.137468
      dxz     :     0.010076
      dyz     :     0.027092
      dx2y2   :     0.054112
      dxy     :     0.039154
  1 O s       :     3.765370  s :     3.765370
      pz      :     1.428438  p :     4.615495
      px      :     1.662171
      py      :     1.524885
      dz2     :     0.002729  d :     0.029938
      dxz     :     0.003688
      dyz     :     0.007906
      dx2y2   :     0.007143
      dxy     :     0.008472
  2 O s       :     3.795682  s :     3.795682
      pz      :     1.805072  p :     4.740299
      px      :     1.405336
      py      :     1.529890
      dz2     :     0.004814  d :     0.030231
      dxz     :     0.000168
      dyz     :     0.005726
      dx2y2   :     0.015356
      dxy     :     0.004167
  3 H s       :     0.554113  s :     0.554113
  4 C s       :     3.407337  s :     3.407337
      pz      :     1.159059  p :     3.297051
      px      :     0.952395
      py      :     1.185597
      dz2     :     0.007159  d :     0.033838
      dxz     :     0.004378
      dyz     :     0.007346
      dx2y2   :     0.010208
      dxy     :     0.004747
  5 H s       :     0.738325  s :     0.738325
  6 H s       :     0.749510  s :     0.749510
  7 H s       :     0.749510  s :     0.749510


                     *******************************
                     * LOEWDIN POPULATION ANALYSIS *
                     *******************************

----------------------
LOEWDIN ATOMIC CHARGES
----------------------
   0 C :    0.121648
   1 O :   -0.254704
   2 O :   -0.282334
   3 H :    0.341093
   4 C :   -0.389534
   5 H :    0.154197
   6 H :    0.154817
   7 H :    0.154817

-------------------------------
LOEWDIN REDUCED ORBITAL CHARGES
-------------------------------
  0 C s       :     2.831794  s :     2.831794
      pz      :     0.748080  p :     2.738480
      px      :     1.034675
      py      :     0.955725
      dz2     :     0.017359  d :     0.308078
      dxz     :     0.018354
      dyz     :     0.056557
      dx2y2   :     0.129642
      dxy     :     0.086168
  1 O s       :     3.533087  s :     3.533087
      pz      :     1.415390  p :     4.666672
      px      :     1.684601
      py      :     1.566681
      dz2     :     0.006570  d :     0.054945
      dxz     :     0.004557
      dyz     :     0.010017
      dx2y2   :     0.013902
      dxy     :     0.019899
  2 O s       :     3.495074  s :     3.495074
      pz      :     1.780256  p :     4.732142
      px      :     1.390041
      py      :     1.561845
      dz2     :     0.007684  d :     0.055118
      dxz     :     0.000820
      dyz     :     0.008097
      dx2y2   :     0.027225
      dxy     :     0.011292
  3 H s       :     0.658907  s :     0.658907
  4 C s       :     2.962091  s :     2.962091
      pz      :     1.143690  p :     3.363979
      px      :     1.069650
      py      :     1.150640
      dz2     :     0.012844  d :     0.063463
      dxz     :     0.009109
      dyz     :     0.011137
      dx2y2   :     0.020943
      dxy     :     0.009431
  5 H s       :     0.845803  s :     0.845803
  6 H s       :     0.845183  s :     0.845183
  7 H s       :     0.845183  s :     0.845183


                      *****************************
                      * MAYER POPULATION ANALYSIS *
                      *****************************

  NA   - Mulliken gross atomic population
  ZA   - Total nuclear charge
  QA   - Mulliken gross atomic charge
  VA   - Mayer's total valence
  BVA  - Mayer's bonded valence
  FA   - Mayer's free valence

  ATOM       NA         ZA         QA         VA         BVA        FA
  0 C      5.4933     6.0000     0.5067     4.1288     4.1288    -0.0000
  1 O      8.4108     8.0000    -0.4108     2.1847     2.1847    -0.0000
  2 O      8.5662     8.0000    -0.5662     2.0088     2.0088    -0.0000
  3 H      0.5541     1.0000     0.4459     0.7924     0.7924    -0.0000
  4 C      6.7382     6.0000    -0.7382     3.6686     3.6686    -0.0000
  5 H      0.7383     1.0000     0.2617     0.9010     0.9010    -0.0000
  6 H      0.7495     1.0000     0.2505     0.9011     0.9011    -0.0000
  7 H      0.7495     1.0000     0.2505     0.9011     0.9011    -0.0000

  Mayer bond orders larger than 0.100000
B(  0-C ,  1-O ) :   2.0472 B(  0-C ,  2-O ) :   1.1702 B(  0-C ,  4-C ) :   0.9379 
B(  2-O ,  3-H ) :   0.7543 B(  4-C ,  5-H ) :   0.9173 B(  4-C ,  6-H ) :   0.9059 
B(  4-C ,  7-H ) :   0.9059 

-------
TIMINGS
-------

Total SCF time: 0 days 0 hours 1 min 8 sec 

Total time                  ....      68.472 sec
Sum of individual times     ....      60.543 sec  ( 88.4%)

Fock matrix formation       ....      49.066 sec  ( 71.7%)
  Split-RI-J                ....       7.652 sec  ( 15.6% of F)
  Chain of spheres X        ....      10.200 sec  ( 20.8% of F)
  XC integration            ....      14.500 sec  ( 29.6% of F)
    Basis function eval.    ....       1.389 sec  (  9.6% of XC)
    Density eval.           ....       0.794 sec  (  5.5% of XC)
    XC-Functional eval.     ....       1.013 sec  (  7.0% of XC)
    XC-Potential eval.      ....       0.479 sec  (  3.3% of XC)
Diagonalization             ....       0.976 sec  (  1.4%)
Density matrix formation    ....       0.109 sec  (  0.2%)
Population analysis         ....       1.023 sec  (  1.5%)
Initial guess               ....       0.005 sec  (  0.0%)
Orbital Transformation      ....       0.000 sec  (  0.0%)
Orbital Orthonormalization  ....       0.000 sec  (  0.0%)
DIIS solution               ....       2.384 sec  (  3.5%)
SOSCF solution              ....       1.224 sec  (  1.8%)
Grid generation             ....       5.755 sec  (  8.4%)

Maximum memory used throughout the entire SCF-calculation: 47.0 MB


-------------------------------------------------------------------------------
                          DFT DISPERSION CORRECTION                            
                                                                               
                              DFTD3 V3.1  Rev 1                                
                          USING Becke-Johnson damping                          
-------------------------------------------------------------------------------
The PBEh-3c composite method is recognized
Using three-body term ABC
Active option DFTDOPT                   ...         4   

molecular C6(AA) [au] = 530.201871 


            DFT-D V3
 parameters
 s6 scaling factor         :     1.0000 
 a1 scaling factor         :     0.4860 
 s8 scaling factor         :     0.0000 
 a2 scaling factor         :     4.5000 
 Damping factor alpha9(ATM):    16.0000 
 ad hoc parameters k1-k3   :    16.0000     1.3333    -4.0000 

 Edisp/kcal,au: -1.451697273430  -0.002313426615 
 E6   /kcal   :  -1.453408056 
 E8   /kcal   :  -0.000000000 
 E6(ABC)      :   0.001710782 
 % E8         :   0.000000000 
 % E6(ABC)    :  -0.117847038 

-------------------------   ----------------
Dispersion correction           -0.002313427
-------------------------   ----------------

------------------   -----------------
gCP correction             0.015414063
------------------   -----------------

-------------------------   --------------------
FINAL SINGLE POINT ENERGY      -228.600409866404
-------------------------   --------------------


                            ***************************************
                            *     ORCA property calculations      *
                            ***************************************

                                    ---------------------
                                    Active property flags
                                    ---------------------
   (+) Dipole Moment


------------------------------------------------------------------------------
                       ORCA ELECTRIC PROPERTIES CALCULATION
------------------------------------------------------------------------------

Dipole Moment Calculation                       ... on
Quadrupole Moment Calculation                   ... off
Polarizability Calculation                      ... off
GBWName                                         ... pbeh-3c.gbw
Electron density                                ... pbeh-3c.scfp
The origin for moment calculation is the CENTER OF MASS  = (-0.943554, -0.164561  0.000000)

-------------
DIPOLE MOMENT
-------------
                                X             Y             Z
Electronic contribution:     -3.36456      -0.04954      -0.00000
Nuclear contribution   :      3.63442       0.74580       0.00000
                        -----------------------------------------
Total Dipole Moment    :      0.26985       0.69625      -0.00000
                        -----------------------------------------
Magnitude (a.u.)       :      0.74672
Magnitude (Debye)      :      1.89801



--------------------
Rotational spectrum 
--------------------
 
Rotational constants in cm-1:     0.376907     0.320794     0.179003 
Rotational constants in MHz : 11299.400641  9617.176259  5366.380205 

 Dipole components along the rotational axes: 
x,y,z [a.u.] :    -0.171081     0.726858    -0.000000 
x,y,z [Debye]:    -0.434852     1.847527    -0.000000 

 

Timings for individual modules:

Sum of individual times         ...       73.148 sec (=   1.219 min)
GTO integral calculation        ...        3.434 sec (=   0.057 min)   4.7 %
SCF iterations                  ...       69.715 sec (=   1.162 min)  95.3 %
                             ****ORCA TERMINATED NORMALLY****
TOTAL RUN TIME: 0 days 0 hours 1 minutes 17 seconds 185 msec
