
                                 *****************
                                 * O   R   C   A *
                                 *****************

                                            #,                                       
                                            ###                                      
                                            ####                                     
                                            #####                                    
                                            ######                                   
                                           ########,                                 
                                     ,,################,,,,,                         
                               ,,#################################,,                 
                          ,,##########################################,,             
                       ,#########################################, ''#####,          
                    ,#############################################,,   '####,        
                  ,##################################################,,,,####,       
                ,###########''''           ''''###############################       
              ,#####''   ,,,,##########,,,,          '''####'''          '####       
            ,##' ,,,,###########################,,,                        '##       
           ' ,,###''''                  '''############,,,                           
         ,,##''                                '''############,,,,        ,,,,,,###''
      ,#''                                            '''#######################'''  
     '                                                          ''''####''''         
             ,#######,   #######,   ,#######,      ##                                
            ,#'     '#,  ##    ##  ,#'     '#,    #''#        ######   ,####,        
            ##       ##  ##   ,#'  ##            #'  '#       #        #'  '#        
            ##       ##  #######   ##           ,######,      #####,   #    #        
            '#,     ,#'  ##    ##  '#,     ,#' ,#      #,         ##   #,  ,#        
             '#######'   ##     ##  '#######'  #'      '#     #####' # '####'        



                  #######################################################
                  #                        -***-                        #
                  #          Department of theory and spectroscopy      #
                  #    Directorship and core code : Frank Neese         #
                  #        Max Planck Institute fuer Kohlenforschung    #
                  #                Kaiser Wilhelm Platz 1               #
                  #                 D-45470 Muelheim/Ruhr               #
                  #                      Germany                        #
                  #                                                     #
                  #                  All rights reserved                #
                  #                        -***-                        #
                  #######################################################


                         Program Version 5.0.3 -  RELEASE  -


 With contributions from (in alphabetic order):
   Daniel Aravena         : Magnetic Suceptibility
   Michael Atanasov       : Ab Initio Ligand Field Theory (pilot matlab implementation)
   Alexander A. Auer      : GIAO ZORA, VPT2 properties, NMR spectrum
   Ute Becker             : Parallelization
   Giovanni Bistoni       : ED, misc. LED, open-shell LED, HFLD
   Martin Brehm           : Molecular dynamics
   Dmytro Bykov           : SCF Hessian
   Vijay G. Chilkuri      : MRCI spin determinant printing, contributions to CSF-ICE
   Dipayan Datta          : RHF DLPNO-CCSD density
   Achintya Kumar Dutta   : EOM-CC, STEOM-CC
   Dmitry Ganyushin       : Spin-Orbit,Spin-Spin,Magnetic field MRCI
   Miquel Garcia          : C-PCM and meta-GGA Hessian, CC/C-PCM, Gaussian charge scheme
   Yang Guo               : DLPNO-NEVPT2, F12-NEVPT2, CIM, IAO-localization
   Andreas Hansen         : Spin unrestricted coupled pair/coupled cluster methods
   Benjamin Helmich-Paris : MC-RPA, TRAH-SCF, COSX integrals
   Lee Huntington         : MR-EOM, pCC
   Robert Izsak           : Overlap fitted RIJCOSX, COSX-SCS-MP3, EOM
   Marcus Kettner         : VPT2
   Christian Kollmar      : KDIIS, OOCD, Brueckner-CCSD(T), CCSD density, CASPT2, CASPT2-K
   Simone Kossmann        : Meta GGA functionals, TD-DFT gradient, OOMP2, MP2 Hessian
   Martin Krupicka        : Initial AUTO-CI
   Lucas Lang             : DCDCAS
   Marvin Lechner         : AUTO-CI (C++ implementation), FIC-MRCC
   Dagmar Lenk            : GEPOL surface, SMD
   Dimitrios Liakos       : Extrapolation schemes; Compound Job, initial MDCI parallelization
   Dimitrios Manganas     : Further ROCIS development; embedding schemes
   Dimitrios Pantazis     : SARC Basis sets
   Anastasios Papadopoulos: AUTO-CI, single reference methods and gradients
   Taras Petrenko         : DFT Hessian,TD-DFT gradient, ASA, ECA, R-Raman, ABS, FL, XAS/XES, NRVS
   Peter Pinski           : DLPNO-MP2, DLPNO-MP2 Gradient
   Christoph Reimann      : Effective Core Potentials
   Marius Retegan         : Local ZFS, SOC
   Christoph Riplinger    : Optimizer, TS searches, QM/MM, DLPNO-CCSD(T), (RO)-DLPNO pert. Triples
   Tobias Risthaus        : Range-separated hybrids, TD-DFT gradient, RPA, STAB
   Michael Roemelt        : Original ROCIS implementation
   Masaaki Saitow         : Open-shell DLPNO-CCSD energy and density
   Barbara Sandhoefer     : DKH picture change effects
   Avijit Sen             : IP-ROCIS
   Kantharuban Sivalingam : CASSCF convergence, NEVPT2, FIC-MRCI
   Bernardo de Souza      : ESD, SOC TD-DFT
   Georgi Stoychev        : AutoAux, RI-MP2 NMR, DLPNO-MP2 response
   Willem Van den Heuvel  : Paramagnetic NMR
   Boris Wezisla          : Elementary symmetry handling
   Frank Wennmohs         : Technical directorship


 We gratefully acknowledge several colleagues who have allowed us to
 interface, adapt or use parts of their codes:
   Stefan Grimme, W. Hujo, H. Kruse, P. Pracht,  : VdW corrections, initial TS optimization,
                  C. Bannwarth, S. Ehlert          DFT functionals, gCP, sTDA/sTD-DF
   Ed Valeev, F. Pavosevic, A. Kumar             : LibInt (2-el integral package), F12 methods
   Garnet Chan, S. Sharma, J. Yang, R. Olivares  : DMRG
   Ulf Ekstrom                                   : XCFun DFT Library
   Mihaly Kallay                                 : mrcc  (arbitrary order and MRCC methods)
   Jiri Pittner, Ondrej Demel                    : Mk-CCSD
   Frank Weinhold                                : gennbo (NPA and NBO analysis)
   Christopher J. Cramer and Donald G. Truhlar   : smd solvation model
   Lars Goerigk                                  : TD-DFT with DH, B97 family of functionals
   V. Asgeirsson, H. Jonsson                     : NEB implementation
   FAccTs GmbH                                   : IRC, NEB, NEB-TS, DLPNO-Multilevel, CI-OPT
                                                   MM, QMMM, 2- and 3-layer-ONIOM, Crystal-QMMM,
                                                   LR-CPCM, SF, NACMEs, symmetry and pop. for TD-DFT,
                                                   nearIR, NL-DFT gradient (VV10), updates on ESD,
                                                   ML-optimized integration grids
   S Lehtola, MJT Oliveira, MAL Marques          : LibXC Library
   Liviu Ungur et al                             : ANISO software


 Your calculation uses the libint2 library for the computation of 2-el integrals
 For citations please refer to: http://libint.valeyev.net

 Your ORCA version has been built with support for libXC version: 5.1.0
 For citations please refer to: https://tddft.org/programs/libxc/

 This ORCA versions uses:
   CBLAS   interface :  Fast vector & matrix operations
   LAPACKE interface :  Fast linear algebra routines
   SCALAPACK package :  Parallel linear algebra routines
   Shared memory     :  Shared parallel matrices
   BLAS/LAPACK       :  OpenBLAS 0.3.15  USE64BITINT DYNAMIC_ARCH NO_AFFINITY Haswell SINGLE_THREADED
        Core in use  :  Haswell
   Copyright (c) 2011-2014, The OpenBLAS Project




***************************************
The coordinates will be read from file: asme2.xyz
***************************************


Your calculation utilizes the geometrical counterpoise correction gCP
Please cite in your paper:
H.Kruse, S. Grimme J.Chem.Phys., 136, (2012), 154101 
   

Your calculation utilizes the atom-pairwise dispersion correction
with the Becke-Johnson damping scheme (D3BJ)
Cite in your paper:
S.Grimme, S.Ehrlich, L.Goerigk, J Comput Chem, (2011), 32, 1456–1465 
S.Grimme, J.Antony, S.Ehrlich and H.Krieg, J.Chem.Phys., 132, (2010), 154104 
   

Your calculation employs the composite approach PBEh-3c.
Please cite in your paper:
S. Grimme, J. G. Brandenburg, C. Bannwarth, A. Hansen J.Chem.Phys., 143, (2015), 054107 
   

================================================================================

----- Orbital basis set information -----
Your calculation utilizes the basis: def2-mSVP

----- AuxJ basis set information -----
Your calculation utilizes the auxiliary basis: def2/J
   F. Weigend, Phys. Chem. Chem. Phys. 8, 1057 (2006).

================================================================================
                                        WARNINGS
                       Please study these warnings very carefully!
================================================================================


WARNING: your system is open-shell and RHF/RKS was chosen
  ===> : WILL SWITCH to UHF/UKS


INFO   : the flag for use of the SHARK integral package has been found!

================================================================================
                                       INPUT FILE
================================================================================
NAME = pbeh-3c.inp
|  1> ! PBEh-3c def2/J TightSCF DefGrid3
|  2> 
|  3> %maxcore 60000
|  4> 
|  5> %pal
|  6> nprocs 4
|  7> end
|  8> 
|  9> *xyzfile 0 2 asme2.xyz
| 10> 
| 11>                          ****END OF INPUT****
================================================================================

                       ****************************
                       * Single Point Calculation *
                       ****************************

---------------------------------
CARTESIAN COORDINATES (ANGSTROEM)
---------------------------------
  As     0.000000    0.000000   -1.337961
  C     -0.000000    1.459287   -0.021413
  C     -0.000000   -1.459287   -0.021413
  H     -0.000000    2.420020   -0.535882
  H      0.886769    1.394192    0.613138
  H     -0.886769    1.394192    0.613138
  H     -0.000000   -2.420020   -0.535882
  H      0.886769   -1.394192    0.613138
  H     -0.886769   -1.394192    0.613138

----------------------------
CARTESIAN COORDINATES (A.U.)
----------------------------
  NO LB      ZA    FRAG     MASS         X           Y           Z
   0 As   33.0000    0    74.920    0.000000    0.000000   -2.528380
   1 C     6.0000    0    12.011   -0.000000    2.757653   -0.040465
   2 C     6.0000    0    12.011   -0.000000   -2.757653   -0.040465
   3 H     1.0000    0     1.008   -0.000000    4.573175   -1.012669
   4 H     1.0000    0     1.008    1.675750    2.634642    1.158663
   5 H     1.0000    0     1.008   -1.675750    2.634642    1.158663
   6 H     1.0000    0     1.008   -0.000000   -4.573175   -1.012669
   7 H     1.0000    0     1.008    1.675750   -2.634642    1.158663
   8 H     1.0000    0     1.008   -1.675750   -2.634642    1.158663

--------------------------------
INTERNAL COORDINATES (ANGSTROEM)
--------------------------------
 As     0   0   0     0.000000000000     0.00000000     0.00000000
 C      1   0   0     1.965405168542     0.00000000     0.00000000
 C      1   2   0     1.965405168542    95.88734608     0.00000000
 H      2   1   3     1.089809635582   109.77481894   180.00000085
 H      2   1   3     1.092360436455   110.17423229    59.86576160
 H      2   1   3     1.092360436455   110.17423229   300.13423840
 H      3   1   2     1.089809635582   109.77481894   180.00000085
 H      3   1   2     1.092360436455   110.17423229   300.13423840
 H      3   1   2     1.092360436455   110.17423229    59.86576160

---------------------------
INTERNAL COORDINATES (A.U.)
---------------------------
 As     0   0   0     0.000000000000     0.00000000     0.00000000
 C      1   0   0     3.714077510737     0.00000000     0.00000000
 C      1   2   0     3.714077510737    95.88734608     0.00000000
 H      2   1   3     2.059441749358   109.77481894   180.00000085
 H      2   1   3     2.064262064431   110.17423229    59.86576160
 H      2   1   3     2.064262064431   110.17423229   300.13423840
 H      3   1   2     2.059441749358   109.77481894   180.00000085
 H      3   1   2     2.064262064431   110.17423229   300.13423840
 H      3   1   2     2.064262064431   110.17423229    59.86576160

---------------------
BASIS SET INFORMATION
---------------------
There are 3 groups of distinct atoms

 Group   1 Type As  : 14s10p6d contracted to 5s4p3d pattern {63311/5311/411}
 Group   2 Type C   : 8s4p1d contracted to 4s2p1d pattern {5111/31/1}
 Group   3 Type H   : 4s contracted to 2s pattern {31}

Atom   0As   basis set group =>   1
Atom   1C    basis set group =>   2
Atom   2C    basis set group =>   2
Atom   3H    basis set group =>   3
Atom   4H    basis set group =>   3
Atom   5H    basis set group =>   3
Atom   6H    basis set group =>   3
Atom   7H    basis set group =>   3
Atom   8H    basis set group =>   3
---------------------------------
AUXILIARY/J BASIS SET INFORMATION
---------------------------------
There are 3 groups of distinct atoms

 Group   1 Type As  : 19s5p5d3f1g contracted to 8s4p3d2f1g pattern {121111111/2111/311/21/1}
 Group   2 Type C   : 12s5p4d2f1g contracted to 6s4p3d1f1g pattern {711111/2111/211/2/1}
 Group   3 Type H   : 5s2p1d contracted to 3s1p1d pattern {311/2/1}

Atom   0As   basis set group =>   1
Atom   1C    basis set group =>   2
Atom   2C    basis set group =>   2
Atom   3H    basis set group =>   3
Atom   4H    basis set group =>   3
Atom   5H    basis set group =>   3
Atom   6H    basis set group =>   3
Atom   7H    basis set group =>   3
Atom   8H    basis set group =>   3


           ************************************************************
           *        Program running with 4 parallel MPI-processes     *
           *              working on a common directory               *
           ************************************************************
------------------------------------------------------------------------------
                           ORCA GTO INTEGRAL CALCULATION
                           -- RI-GTO INTEGRALS CHOSEN --
------------------------------------------------------------------------------
------------------------------------------------------------------------------
                   ___                                                        
                  /   \      - P O W E R E D   B Y -                         
                 /     \                                                     
                 |  |  |   _    _      __       _____    __    __             
                 |  |  |  | |  | |    /  \     |  _  \  |  |  /  |          
                  \  \/   | |  | |   /    \    | | | |  |  | /  /          
                 / \  \   | |__| |  /  /\  \   | |_| |  |  |/  /          
                |  |  |   |  __  | /  /__\  \  |    /   |      \           
                |  |  |   | |  | | |   __   |  |    \   |  |\   \          
                \     /   | |  | | |  |  |  |  | |\  \  |  | \   \       
                 \___/    |_|  |_| |__|  |__|  |_| \__\ |__|  \__/        
                                                                              
                      - O R C A' S   B I G   F R I E N D -                    
                                      &                                       
                       - I N T E G R A L  F E E D E R -                       
                                                                              
 v1 FN, 2020, v2 2021                                                         
------------------------------------------------------------------------------


Reading SHARK input file pbeh-3c.SHARKINP.tmp ... ok
----------------------
SHARK INTEGRAL PACKAGE
----------------------

Number of atoms                             ...      9
Number of basis functions                   ...     74
Number of shells                            ...     38
Maximum angular momentum                    ...      2
Integral batch strategy                     ... SHARK/LIBINT Hybrid
RI-J (if used) integral strategy            ... SPLIT-RIJ (Revised 2003 algorithm where possible)
Printlevel                                  ...      1
Contraction scheme used                     ... SEGMENTED contraction
Coulomb Range Separation                    ... NOT USED
Exchange Range Separation                   ... NOT USED
Finite Nucleus Model                        ... NOT USED
Auxiliary Coulomb fitting basis             ... AVAILABLE
   # of basis functions in Aux-J            ...    222
   # of shells in Aux-J                     ...     78
   Maximum angular momentum in Aux-J        ...      4
Auxiliary J/K fitting basis                 ... NOT available
Auxiliary Correlation fitting basis         ... NOT available
Auxiliary 'external' fitting basis          ... NOT available
Integral threshold                          ...     2.500000e-11
Primitive cut-off                           ...     2.500000e-12
Primitive pair pre-selection threshold      ...     2.500000e-12

Calculating pre-screening integrals         ... done (  0.0 sec) Dimension = 38
Organizing shell pair data                  ... done (  0.2 sec)
Shell pair information
Total number of shell pairs                 ...       741
Shell pairs after pre-screening             ...       718
Total number of primitive shell pairs       ...      3324
Primitive shell pairs kept                  ...      2461
          la=0 lb=0:    308 shell pairs
          la=1 lb=0:    196 shell pairs
          la=1 lb=1:     36 shell pairs
          la=2 lb=0:    123 shell pairs
          la=2 lb=1:     40 shell pairs
          la=2 lb=2:     15 shell pairs

Calculating one electron integrals          ... done (  0.0 sec)
Calculating RI/J V-Matrix + Cholesky decomp.... done (  0.4 sec)
Calculating Nuclear repulsion               ... done (  0.1 sec) ENN=    180.517367624607 Eh

SHARK setup successfully completed in   2.2 seconds

Maximum memory used throughout the entire GTOINT-calculation: 10.3 MB


           ************************************************************
           *        Program running with 4 parallel MPI-processes     *
           *              working on a common directory               *
           ************************************************************
-------------------------------------------------------------------------------
                                 ORCA SCF
-------------------------------------------------------------------------------

------------
SCF SETTINGS
------------
Hamiltonian:
 Density Functional     Method          .... DFT(GTOs)
 Exchange Functional    Exchange        .... PBE
   PBE kappa parameter   XKappa         ....  1.024500
   PBE mue parameter    XMuePBE         ....  0.123457
 Correlation Functional Correlation     .... PBE
   PBE beta parameter  CBetaPBE         ....  0.030000
 LDA part of GGA corr.  LDAOpt          .... PW91-LDA
 Gradients option       PostSCFGGA      .... off
 Hybrid DFT is turned on
   Fraction HF Exchange ScalHFX         ....  0.420000
   Scaling of DF-GGA-X  ScalDFX         ....  0.580000
   Scaling of DF-GGA-C  ScalDFC         ....  1.000000
   Scaling of DF-LDA-C  ScalLDAC        ....  1.000000
   Perturbative correction              ....  0.000000
   Density functional embedding theory  .... OFF
 RI-approximation to the Coulomb term is turned on
   Number of AuxJ basis functions       .... 222
   RIJ-ON(X) (HFX calculated with O(N)) .... on
   Number of AuxJ basis functions       .... 222
   RIJ-COSX (HFX calculated with COS-X)).... on


General Settings:
 Integral files         IntName         .... pbeh-3c
 Hartree-Fock type      HFTyp           .... UHF
 Total Charge           Charge          ....    0
 Multiplicity           Mult            ....    2
 Number of Electrons    NEL             ....   51
 Basis Dimension        Dim             ....   74
 Nuclear Repulsion      ENuc            ....    180.5173676246 Eh

Convergence Acceleration:
 DIIS                   CNVDIIS         .... on
   Start iteration      DIISMaxIt       ....    12
   Startup error        DIISStart       ....  0.200000
   # of expansion vecs  DIISMaxEq       ....     5
   Bias factor          DIISBfac        ....   1.050
   Max. coefficient     DIISMaxC        ....  10.000
 Trust-Rad. Augm. Hess. CNVTRAH         .... auto
   Auto Start mean grad. ratio tolernc. ....  1.125000
   Auto Start start iteration           ....    20
   Auto Start num. interpolation iter.  ....    10
   Max. Number of Micro iterations      ....    16
   Max. Number of Macro iterations      .... Maxiter - #DIIS iter
   Number of Davidson start vectors     ....     2
   Converg. threshold I  (grad. norm)   ....   1.000e-05
   Converg. threshold II (energy diff.) ....   1.000e-08
   Grad. Scal. Fac. for Micro threshold ....   0.100
   Minimum threshold for Micro iter.    ....   0.010
   NR start threshold (gradient norm)   ....   0.001
   Initial trust radius                 ....   0.400
   Minimum AH scaling param. (alpha)    ....   1.000
   Maximum AH scaling param. (alpha)    .... 1000.000
   Orbital update algorithm             .... Taylor
   White noise on init. David. guess    .... on
   Maximum white noise                  ....   0.010
   Quad. conv. algorithm                .... NR
   COSX micro iterations for RIJONX calc.... off
 SOSCF                  CNVSOSCF        .... off
 Level Shifting         CNVShift        .... on
   Level shift para.    LevelShift      ....    0.2500
   Turn off err/grad.   ShiftErr        ....    0.0010
 Zerner damping         CNVZerner       .... off
 Static damping         CNVDamp         .... on
   Fraction old density DampFac         ....    0.7000
   Max. Damping (<1)    DampMax         ....    0.9800
   Min. Damping (>=0)   DampMin         ....    0.0000
   Turn off err/grad.   DampErr         ....    0.1000
 Fernandez-Rico         CNVRico         .... off

SCF Procedure:
 Maximum # iterations   MaxIter         ....   125
 SCF integral mode      SCFMode         .... Direct
   Integral package                     .... SHARK and LIBINT hybrid scheme
 Reset frequency        DirectResetFreq ....    20
 Integral Threshold     Thresh          ....  2.500e-11 Eh
 Primitive CutOff       TCut            ....  2.500e-12 Eh

Convergence Tolerance:
 Convergence Check Mode ConvCheckMode   .... Total+1el-Energy
 Convergence forced     ConvForced      .... 0
 Energy Change          TolE            ....  1.000e-08 Eh
 1-El. energy change                    ....  1.000e-05 Eh
 DIIS Error             TolErr          ....  5.000e-07


Diagonalization of the overlap matrix:
Smallest eigenvalue                        ... 1.367e-02
Time for diagonalization                   ...    0.002 sec
Threshold for overlap eigenvalues          ... 1.000e-08
Number of eigenvalues below threshold      ... 0
Time for construction of square roots      ...    0.626 sec
Total time needed                          ...    0.628 sec

--------------------------------
INITIAL GUESS: MINIMAL BASIS EHT
--------------------------------
The minimal basis has 34 functions
EHT matrix was diagonalized
Basis set overlap was calculated now projecting the orbitals
Using GuessMode=FMatrix for the initial guess
C*T matrix was formed
Effective Fockian was calculated
Effective Fockian was diagonalized
Initial density was built
                      ------------------
                      INITIAL GUESS DONE
                      ------------------
-------------------
DFT GRID GENERATION
-------------------

General Integration Accuracy     IntAcc      ... 4.959
Radial Grid Type                 RadialGrid  ... OptM3 with GC (2021)
Angular Grid (max. ang.)         AngularGrid ... 6 (Lebedev-590)
Angular grid pruning method      GridPruning ... 4 (adaptive)
Weight generation scheme         WeightScheme... Becke
Basis function cutoff            BFCut       ... 1.0000e-11
Integration weight cutoff        WCut        ... 1.0000e-14
Angular grids for H and He will be reduced by one unit
Partially contracted basis set               ... off
Rotationally invariant grid construction     ... off

Total number of grid points                  ...   110280
Total number of batches                      ...     1728
Average number of points per batch           ...       63
Average number of grid points per atom       ...    12253
Time for grid setup =    2.292 sec

--------------------
COSX GRID GENERATION
--------------------

GRIDX 1
-------
General Integration Accuracy     IntAcc      ... 4.020
Radial Grid Type                 RadialGrid  ... OptM3 with GC (2021)
Angular Grid (max. ang.)         AngularGrid ... 2 (Lebedev-110)
Angular grid pruning method      GridPruning ... 4 (adaptive)
Weight generation scheme         WeightScheme... Becke
Basis function cutoff            BFCut       ... 1.0000e-11
Integration weight cutoff        WCut        ... 1.0000e-14
Angular grids for H and He will be reduced by one unit
Partially contracted basis set               ... on
Rotationally invariant grid construction     ... off

Total number of grid points                  ...    11080
Total number of batches                      ...      179
Average number of points per batch           ...       61
Average number of grid points per atom       ...     1231
UseSFitting                                  ... on

GRIDX 2
-------
General Integration Accuracy     IntAcc      ... 4.338
Radial Grid Type                 RadialGrid  ... OptM3 with GC (2021)
Angular Grid (max. ang.)         AngularGrid ... 3 (Lebedev-194)
Angular grid pruning method      GridPruning ... 4 (adaptive)
Weight generation scheme         WeightScheme... Becke
Basis function cutoff            BFCut       ... 1.0000e-11
Integration weight cutoff        WCut        ... 1.0000e-14
Angular grids for H and He will be reduced by one unit
Partially contracted basis set               ... on
Rotationally invariant grid construction     ... off

Total number of grid points                  ...    24534
Total number of batches                      ...      389
Average number of points per batch           ...       63
Average number of grid points per atom       ...     2726
UseSFitting                                  ... on

GRIDX 3
-------
General Integration Accuracy     IntAcc      ... 4.871
Radial Grid Type                 RadialGrid  ... OptM3 with GC (2021)
Angular Grid (max. ang.)         AngularGrid ... 4 (Lebedev-302)
Angular grid pruning method      GridPruning ... 4 (adaptive)
Weight generation scheme         WeightScheme... Becke
Basis function cutoff            BFCut       ... 1.0000e-11
Integration weight cutoff        WCut        ... 1.0000e-14
Angular grids for H and He will be reduced by one unit
Partially contracted basis set               ... on
Rotationally invariant grid construction     ... off

Total number of grid points                  ...    49716
Total number of batches                      ...      781
Average number of points per batch           ...       63
Average number of grid points per atom       ...     5524
UseSFitting                                  ... on

Time for X-Grid setup             =    3.383 sec

--------------
SCF ITERATIONS
--------------
ITER       Energy         Delta-E        Max-DP      RMS-DP      [F,P]     Damp
               ***  Starting incremental Fock matrix formation  ***
  0  -2312.1219150184   0.000000000000 0.12976900  0.00528973  0.8754016 0.7000
  1  -2312.9565008325  -0.834585814114 0.07347528  0.00268019  0.4323075 0.7000
  2  -2313.4217244867  -0.465223654157 0.05918024  0.00174955  0.2201186 0.7000
                               ***Turning on DIIS***
  3  -2313.7335614403  -0.311836953624 0.05635882  0.00132566  0.1206748 0.7000
  4  -2313.9497310558  -0.216169615438 0.16703957  0.00350706  0.0705308 0.0000
  5  -2314.4537629635  -0.504031907789 0.01550742  0.00037554  0.0064430 0.0000
  6  -2314.4541980932  -0.000435129621 0.00956359  0.00015870  0.0039041 0.0000
  7  -2314.4542874636  -0.000089370415 0.00773567  0.00013232  0.0005434 0.0000
               *** Restarting incremental Fock matrix formation ***
                                   *** Resetting DIIS ***
  8  -2314.4542958519  -0.000008388279 0.00070540  0.00002195  0.0001862 0.0000
  9  -2314.4542966445  -0.000000792614 0.00037764  0.00000666  0.0000770 0.0000
 10  -2314.4542968137  -0.000000169271 0.00015642  0.00000355  0.0000366 0.0000
 11  -2314.4542968519  -0.000000038113 0.00004221  0.00000186  0.0000189 0.0000
 12  -2314.4542968627  -0.000000010877 0.00001367  0.00000067  0.0000053 0.0000
 13  -2314.4542968577   0.000000005037 0.00000784  0.00000024  0.0000051 0.0000
 14  -2314.4542968645  -0.000000006848 0.00000651  0.00000018  0.0000012 0.0000
                            ***DIIS convergence achieved***

               *****************************************************
               *                     SUCCESS                       *
               *           SCF CONVERGED AFTER  15 CYCLES          *
               *****************************************************

Old exchange energy                            =    -39.441562313 Eh
New exchange energy                            =    -39.441554216 Eh
Exchange energy change after final integration =      0.000008097 Eh
Total energy after final integration           =  -2314.454288773 Eh
Final COS-X integration done in                =     2.064 sec

----------------
TOTAL SCF ENERGY
----------------

Total Energy       :        -2314.45428877 Eh          -62979.50301 eV

Components:
Nuclear Repulsion  :          180.51736762 Eh            4912.12730 eV
Electronic Energy  :        -2494.97165640 Eh          -67891.63031 eV
One Electron Energy:        -3580.50149606 Eh          -97430.39897 eV
Two Electron Energy:         1085.52983966 Eh           29538.76866 eV
Max COSX asymmetry :            0.00000108 Eh               0.00003 eV

Virial components:
Potential Energy   :        -4626.43731625 Eh         -125891.75959 eV
Kinetic Energy     :         2311.98302747 Eh           62912.25657 eV
Virial Ratio       :            2.00106889


DFT components:
N(Alpha)           :       26.000001110948 electrons
N(Beta)            :       25.000001216745 electrons
N(Total)           :       51.000002327693 electrons
E(X)               :      -53.001114391278 Eh       
E(C)               :       -2.801949073037 Eh       
E(XC)              :      -55.803063464315 Eh       
DFET-embed. en.    :        0.000000000000 Eh       

---------------
SCF CONVERGENCE
---------------

  Last Energy change         ...   -5.5197e-09  Tolerance :   1.0000e-08
  Last MAX-Density change    ...    0.0000e+00  Tolerance :   1.0000e-07
  Last RMS-Density change    ...    0.0000e+00  Tolerance :   5.0000e-09
  Last DIIS Error            ...    2.2267e-07  Tolerance :   5.0000e-07

             **** THE GBW FILE WAS UPDATED (pbeh-3c.gbw) ****
             **** DENSITY pbeh-3c.scfp WAS UPDATED ****
             **** ENERGY FILE WAS UPDATED (pbeh-3c.en.tmp) ****
----------------------
UHF SPIN CONTAMINATION
----------------------

Warning: in a DFT calculation there is little theoretical justification to 
         calculate <S**2> as in Hartree-Fock theory. We will do it anyways
         but you should keep in mind that the values have only limited relevance

Expectation value of <S**2>     :     0.755035
Ideal value S*(S+1) for S=0.5   :     0.750000
Deviation                       :     0.005035

             **** THE GBW FILE WAS UPDATED (pbeh-3c.gbw) ****
             **** DENSITY pbeh-3c.scfp WAS UPDATED ****
----------------
ORBITAL ENERGIES
----------------
                 SPIN UP ORBITALS
  NO   OCC          E(Eh)            E(eV) 
   0   1.0000    -427.407343    -11630.3451 
   1   1.0000     -54.461324     -1481.9680 
   2   1.0000     -48.642129     -1323.6196 
   3   1.0000     -48.640119     -1323.5649 
   4   1.0000     -48.639798     -1323.5562 
   5   1.0000     -10.436997      -284.0051 
   6   1.0000     -10.436959      -284.0041 
   7   1.0000      -7.269600      -197.8159 
   8   1.0000      -5.276952      -143.5932 
   9   1.0000      -5.273042      -143.4868 
  10   1.0000      -5.269209      -143.3825 
  11   1.0000      -1.766808       -48.0773 
  12   1.0000      -1.766197       -48.0607 
  13   1.0000      -1.762932       -47.9718 
  14   1.0000      -1.762920       -47.9715 
  15   1.0000      -1.760732       -47.9120 
  16   1.0000      -0.818158       -22.2632 
  17   1.0000      -0.766810       -20.8660 
  18   1.0000      -0.606834       -16.5128 
  19   1.0000      -0.481332       -13.0977 
  20   1.0000      -0.478776       -13.0282 
  21   1.0000      -0.457437       -12.4475 
  22   1.0000      -0.455293       -12.3892 
  23   1.0000      -0.366165        -9.9639 
  24   1.0000      -0.307375        -8.3641 
  25   1.0000      -0.242908        -6.6099 
  26   0.0000       0.068278         1.8579 
  27   0.0000       0.108391         2.9495 
  28   0.0000       0.145279         3.9532 
  29   0.0000       0.176944         4.8149 
  30   0.0000       0.197032         5.3615 
  31   0.0000       0.200646         5.4599 
  32   0.0000       0.223237         6.0746 
  33   0.0000       0.236929         6.4472 
  34   0.0000       0.293589         7.9890 
  35   0.0000       0.448727        12.2105 
  36   0.0000       0.448885        12.2148 
  37   0.0000       0.458452        12.4751 
  38   0.0000       0.467547        12.7226 
  39   0.0000       0.477397        12.9906 
  40   0.0000       0.489687        13.3251 
  41   0.0000       0.558140        15.1878 
  42   0.0000       0.587696        15.9920 
  43   0.0000       0.604904        16.4603 
  44   0.0000       0.632134        17.2012 
  45   0.0000       0.650480        17.7005 
  46   0.0000       0.703975        19.1561 
  47   0.0000       0.744443        20.2573 
  48   0.0000       0.925917        25.1955 
  49   0.0000       0.998951        27.1828 
  50   0.0000       1.008087        27.4314 
  51   0.0000       1.045808        28.4579 
  52   0.0000       1.054066        28.6826 
  53   0.0000       1.067099        29.0372 
  54   0.0000       1.117707        30.4144 
  55   0.0000       1.225684        33.3526 
  56   0.0000       1.320943        35.9447 
  57   0.0000       1.738651        47.3111 
  58   0.0000       1.762277        47.9540 
  59   0.0000       1.812762        49.3278 
  60   0.0000       1.849736        50.3339 
  61   0.0000       2.093746        56.9737 
  62   0.0000       2.163980        58.8849 
  63   0.0000       2.292324        62.3773 
  64   0.0000       2.321411        63.1688 
  65   0.0000       2.323525        63.2263 
  66   0.0000       2.327835        63.3436 
  67   0.0000       2.906404        79.0873 
  68   0.0000       2.911985        79.2391 
  69   0.0000       2.965426        80.6933 
  70   0.0000       3.002593        81.7047 
  71   0.0000       3.129815        85.1666 
  72   0.0000      13.675794       372.1373 
  73   0.0000      13.746672       374.0660 

                 SPIN DOWN ORBITALS
  NO   OCC          E(Eh)            E(eV) 
   0   1.0000    -427.405350    -11630.2908 
   1   1.0000     -54.460499     -1481.9455 
   2   1.0000     -48.639496     -1323.5480 
   3   1.0000     -48.639258     -1323.5415 
   4   1.0000     -48.637896     -1323.5044 
   5   1.0000     -10.437558      -284.0204 
   6   1.0000     -10.437520      -284.0194 
   7   1.0000      -7.266423      -197.7294 
   8   1.0000      -5.271850      -143.4543 
   9   1.0000      -5.268242      -143.3562 
  10   1.0000      -5.266949      -143.3210 
  11   1.0000      -1.762495       -47.9599 
  12   1.0000      -1.762361       -47.9563 
  13   1.0000      -1.761517       -47.9333 
  14   1.0000      -1.758453       -47.8499 
  15   1.0000      -1.758374       -47.8478 
  16   1.0000      -0.809725       -22.0337 
  17   1.0000      -0.765798       -20.8384 
  18   1.0000      -0.575176       -15.6513 
  19   1.0000      -0.477834       -13.0025 
  20   1.0000      -0.471598       -12.8328 
  21   1.0000      -0.455641       -12.3986 
  22   1.0000      -0.450512       -12.2590 
  23   1.0000      -0.362513        -9.8645 
  24   1.0000      -0.293776        -7.9940 
  25   0.0000      -0.058648        -1.5959 
  26   0.0000       0.076587         2.0840 
  27   0.0000       0.125415         3.4127 
  28   0.0000       0.152808         4.1581 
  29   0.0000       0.178140         4.8474 
  30   0.0000       0.201240         5.4760 
  31   0.0000       0.209535         5.7017 
  32   0.0000       0.224378         6.1056 
  33   0.0000       0.237103         6.4519 
  34   0.0000       0.317674         8.6444 
  35   0.0000       0.451182        12.2773 
  36   0.0000       0.461147        12.5485 
  37   0.0000       0.480436        13.0733 
  38   0.0000       0.485517        13.2116 
  39   0.0000       0.496327        13.5057 
  40   0.0000       0.527866        14.3640 
  41   0.0000       0.563792        15.3416 
  42   0.0000       0.592277        16.1167 
  43   0.0000       0.609307        16.5801 
  44   0.0000       0.647652        17.6235 
  45   0.0000       0.672238        18.2925 
  46   0.0000       0.704413        19.1681 
  47   0.0000       0.775044        21.0900 
  48   0.0000       0.930954        25.3325 
  49   0.0000       1.002914        27.2907 
  50   0.0000       1.009124        27.4597 
  51   0.0000       1.047100        28.4930 
  52   0.0000       1.057137        28.7662 
  53   0.0000       1.067804        29.0564 
  54   0.0000       1.119450        30.4618 
  55   0.0000       1.231371        33.5073 
  56   0.0000       1.322451        35.9857 
  57   0.0000       1.737484        47.2794 
  58   0.0000       1.763349        47.9832 
  59   0.0000       1.815517        49.4027 
  60   0.0000       1.849616        50.3306 
  61   0.0000       2.093980        56.9801 
  62   0.0000       2.164286        58.8932 
  63   0.0000       2.293274        62.4032 
  64   0.0000       2.321048        63.1589 
  65   0.0000       2.323609        63.2286 
  66   0.0000       2.328895        63.3725 
  67   0.0000       2.924110        79.5691 
  68   0.0000       2.930480        79.7424 
  69   0.0000       2.976171        80.9857 
  70   0.0000       3.017899        82.1212 
  71   0.0000       3.133442        85.2653 
  72   0.0000      13.675202       372.1212 
  73   0.0000      13.746096       374.0503 

                    ********************************
                    * MULLIKEN POPULATION ANALYSIS *
                    ********************************

--------------------------------------------
MULLIKEN ATOMIC CHARGES AND SPIN POPULATIONS
--------------------------------------------
   0 As:    0.296948    1.024929
   1 C :   -0.870756   -0.050324
   2 C :   -0.870756   -0.050325
   3 H :    0.242806    0.000539
   4 H :    0.239738    0.018661
   5 H :    0.239738    0.018661
   6 H :    0.242806    0.000539
   7 H :    0.239738    0.018661
   8 H :    0.239738    0.018661
Sum of atomic charges         :    0.0000000
Sum of atomic spin populations:    1.0000000

-----------------------------------------------------
MULLIKEN REDUCED ORBITAL CHARGES AND SPIN POPULATIONS
-----------------------------------------------------
CHARGE
  0 Ass       :     7.847124  s :     7.847124
      pz      :     5.031907  p :    14.758922
      px      :     5.013543
      py      :     4.713472
      dz2     :     2.013653  d :    10.097006
      dxz     :     2.009032
      dyz     :     2.050271
      dx2y2   :     2.017127
      dxy     :     2.006923
  1 C s       :     3.439689  s :     3.439689
      pz      :     1.129705  p :     3.402318
      px      :     1.143741
      py      :     1.128872
      dz2     :     0.001097  d :     0.028749
      dxz     :     0.011078
      dyz     :     0.006276
      dx2y2   :     0.009524
      dxy     :     0.000774
  2 C s       :     3.439689  s :     3.439689
      pz      :     1.129705  p :     3.402318
      px      :     1.143741
      py      :     1.128872
      dz2     :     0.001097  d :     0.028749
      dxz     :     0.011078
      dyz     :     0.006276
      dx2y2   :     0.009524
      dxy     :     0.000774
  3 H s       :     0.757194  s :     0.757194
  4 H s       :     0.760262  s :     0.760262
  5 H s       :     0.760262  s :     0.760262
  6 H s       :     0.757194  s :     0.757194
  7 H s       :     0.760262  s :     0.760262
  8 H s       :     0.760262  s :     0.760262

SPIN
  0 Ass       :     0.032816  s :     0.032816
      pz      :    -0.001960  p :     0.987302
      px      :     0.954910
      py      :     0.034351
      dz2     :     0.000997  d :     0.004811
      dxz     :    -0.000058
      dyz     :     0.000827
      dx2y2   :     0.002462
      dxy     :     0.000582
  1 C s       :    -0.008986  s :    -0.008986
      pz      :    -0.016051  p :    -0.044153
      px      :    -0.011773
      py      :    -0.016329
      dz2     :    -0.000006  d :     0.002815
      dxz     :     0.002231
      dyz     :    -0.000015
      dx2y2   :     0.000098
      dxy     :     0.000507
  2 C s       :    -0.008986  s :    -0.008986
      pz      :    -0.016051  p :    -0.044153
      px      :    -0.011773
      py      :    -0.016329
      dz2     :    -0.000006  d :     0.002815
      dxz     :     0.002231
      dyz     :    -0.000015
      dx2y2   :     0.000098
      dxy     :     0.000507
  3 H s       :     0.000539  s :     0.000539
  4 H s       :     0.018661  s :     0.018661
  5 H s       :     0.018661  s :     0.018661
  6 H s       :     0.000539  s :     0.000539
  7 H s       :     0.018661  s :     0.018661
  8 H s       :     0.018661  s :     0.018661


                     *******************************
                     * LOEWDIN POPULATION ANALYSIS *
                     *******************************

-------------------------------------------
LOEWDIN ATOMIC CHARGES AND SPIN POPULATIONS
-------------------------------------------
   0 As:    0.197864    0.960589
   1 C :   -0.519021   -0.016529
   2 C :   -0.519021   -0.016529
   3 H :    0.140280    0.000443
   4 H :    0.139904    0.017896
   5 H :    0.139904    0.017896
   6 H :    0.140280    0.000443
   7 H :    0.139904    0.017896
   8 H :    0.139904    0.017896

----------------------------------------------------
LOEWDIN REDUCED ORBITAL CHARGES AND SPIN POPULATIONS
----------------------------------------------------
CHARGE
  0 Ass       :     7.627794  s :     7.627794
      pz      :     5.178339  p :    14.980880
      px      :     4.998992
      py      :     4.803549
      dz2     :     2.022653  d :    10.193461
      dxz     :     2.016275
      dyz     :     2.097682
      dx2y2   :     2.041366
      dxy     :     2.015486
  1 C s       :     3.008798  s :     3.008798
      pz      :     1.157843  p :     3.459473
      px      :     1.146965
      py      :     1.154665
      dz2     :     0.002214  d :     0.050750
      dxz     :     0.018662
      dyz     :     0.012511
      dx2y2   :     0.015922
      dxy     :     0.001441
  2 C s       :     3.008798  s :     3.008798
      pz      :     1.157843  p :     3.459473
      px      :     1.146965
      py      :     1.154665
      dz2     :     0.002214  d :     0.050750
      dxz     :     0.018662
      dyz     :     0.012511
      dx2y2   :     0.015922
      dxy     :     0.001441
  3 H s       :     0.859720  s :     0.859720
  4 H s       :     0.860096  s :     0.860096
  5 H s       :     0.860096  s :     0.860096
  6 H s       :     0.859720  s :     0.859720
  7 H s       :     0.860096  s :     0.860096
  8 H s       :     0.860096  s :     0.860096

SPIN
  0 Ass       :     0.014743  s :     0.014743
      pz      :    -0.003663  p :     0.942593
      px      :     0.922772
      py      :     0.023485
      dz2     :     0.000870  d :     0.003253
      dxz     :     0.000945
      dyz     :    -0.002625
      dx2y2   :     0.003858
      dxy     :     0.000206
  1 C s       :    -0.003776  s :    -0.003776
      pz      :    -0.009021  p :    -0.018496
      px      :     0.000058
      py      :    -0.009532
      dz2     :    -0.000004  d :     0.005743
      dxz     :     0.004182
      dyz     :     0.000174
      dx2y2   :     0.000233
      dxy     :     0.001157
  2 C s       :    -0.003776  s :    -0.003776
      pz      :    -0.009021  p :    -0.018496
      px      :     0.000058
      py      :    -0.009532
      dz2     :    -0.000004  d :     0.005743
      dxz     :     0.004182
      dyz     :     0.000174
      dx2y2   :     0.000233
      dxy     :     0.001157
  3 H s       :     0.000443  s :     0.000443
  4 H s       :     0.017896  s :     0.017896
  5 H s       :     0.017896  s :     0.017896
  6 H s       :     0.000443  s :     0.000443
  7 H s       :     0.017896  s :     0.017896
  8 H s       :     0.017896  s :     0.017896


                      *****************************
                      * MAYER POPULATION ANALYSIS *
                      *****************************

  NA   - Mulliken gross atomic population
  ZA   - Total nuclear charge
  QA   - Mulliken gross atomic charge
  VA   - Mayer's total valence
  BVA  - Mayer's bonded valence
  FA   - Mayer's free valence

  ATOM       NA         ZA         QA         VA         BVA        FA
  0 As    32.7031    33.0000     0.2969     2.8993     1.9764     0.9229
  1 C      6.8708     6.0000    -0.8708     3.7025     3.7011     0.0014
  2 C      6.8708     6.0000    -0.8708     3.7025     3.7011     0.0014
  3 H      0.7572     1.0000     0.2428     0.9031     0.9031     0.0000
  4 H      0.7603     1.0000     0.2397     0.9025     0.9021     0.0004
  5 H      0.7603     1.0000     0.2397     0.9025     0.9021     0.0004
  6 H      0.7572     1.0000     0.2428     0.9031     0.9031     0.0000
  7 H      0.7603     1.0000     0.2397     0.9025     0.9021     0.0004
  8 H      0.7603     1.0000     0.2397     0.9025     0.9021     0.0004

  Mayer bond orders larger than 0.100000
B(  0-As,  1-C ) :   0.9749 B(  0-As,  2-C ) :   0.9749 B(  1-C ,  3-H ) :   0.9149 
B(  1-C ,  4-H ) :   0.9061 B(  1-C ,  5-H ) :   0.9061 B(  2-C ,  6-H ) :   0.9149 
B(  2-C ,  7-H ) :   0.9061 B(  2-C ,  8-H ) :   0.9061 

-------
TIMINGS
-------

Total SCF time: 0 days 0 hours 1 min 48 sec 

Total time                  ....     108.440 sec
Sum of individual times     ....      98.402 sec  ( 90.7%)

Fock matrix formation       ....      85.235 sec  ( 78.6%)
  Split-RI-J                ....       7.934 sec  (  9.3% of F)
  Chain of spheres X        ....      13.572 sec  ( 15.9% of F)
  XC integration            ....      28.893 sec  ( 33.9% of F)
    Basis function eval.    ....       1.425 sec  (  4.9% of XC)
    Density eval.           ....       1.747 sec  (  6.0% of XC)
    XC-Functional eval.     ....       1.377 sec  (  4.8% of XC)
    XC-Potential eval.      ....       0.776 sec  (  2.7% of XC)
Diagonalization             ....       0.861 sec  (  0.8%)
Density matrix formation    ....       0.337 sec  (  0.3%)
Population analysis         ....       1.460 sec  (  1.3%)
Initial guess               ....       0.007 sec  (  0.0%)
Orbital Transformation      ....       0.000 sec  (  0.0%)
Orbital Orthonormalization  ....       0.000 sec  (  0.0%)
DIIS solution               ....       4.828 sec  (  4.5%)
Grid generation             ....       5.674 sec  (  5.2%)

Maximum memory used throughout the entire SCF-calculation: 48.5 MB


-------------------------------------------------------------------------------
                          DFT DISPERSION CORRECTION                            
                                                                               
                              DFTD3 V3.1  Rev 1                                
                          USING Becke-Johnson damping                          
-------------------------------------------------------------------------------
The PBEh-3c composite method is recognized
Using three-body term ABC
Active option DFTDOPT                   ...         4   

molecular C6(AA) [au] = 1183.522195 


            DFT-D V3
 parameters
 s6 scaling factor         :     1.0000 
 a1 scaling factor         :     0.4860 
 s8 scaling factor         :     0.0000 
 a2 scaling factor         :     4.5000 
 Damping factor alpha9(ATM):    16.0000 
 ad hoc parameters k1-k3   :    16.0000     1.3333    -4.0000 

 Edisp/kcal,au: -1.939878061012  -0.003091392137 
 E6   /kcal   :  -1.941308604 
 E8   /kcal   :  -0.000000000 
 E6(ABC)      :   0.001430543 
 % E8         :   0.000000000 
 % E6(ABC)    :  -0.073743949 

-------------------------   ----------------
Dispersion correction           -0.003091392
-------------------------   ----------------

------------------   -----------------
gCP correction             0.013939647
------------------   -----------------

-------------------------   --------------------
FINAL SINGLE POINT ENERGY     -2314.443440518243
-------------------------   --------------------


                            ***************************************
                            *     ORCA property calculations      *
                            ***************************************

                                    ---------------------
                                    Active property flags
                                    ---------------------
   (+) Dipole Moment


------------------------------------------------------------------------------
                       ORCA ELECTRIC PROPERTIES CALCULATION
------------------------------------------------------------------------------

Dipole Moment Calculation                       ... on
Quadrupole Moment Calculation                   ... off
Polarizability Calculation                      ... off
GBWName                                         ... pbeh-3c.gbw
Electron density                                ... pbeh-3c.scfp
The origin for moment calculation is the CENTER OF MASS  = ( 0.000000,  0.000000 -1.788438)

-------------
DIPOLE MOMENT
-------------
                                X             Y             Z
Electronic contribution:      0.00000      -0.00000      -9.40490
Nuclear contribution   :      0.00000       0.00000       9.89753
                        -----------------------------------------
Total Dipole Moment    :      0.00000      -0.00000       0.49262
                        -----------------------------------------
Magnitude (a.u.)       :      0.49262
Magnitude (Debye)      :      1.25215



--------------------
Rotational spectrum 
--------------------
 
Rotational constants in cm-1:     0.371667     0.227899     0.149202 
Rotational constants in MHz : 11142.310450  6832.232614  4472.959391 

 Dipole components along the rotational axes: 
x,y,z [a.u.] :    -0.000000     0.492623     0.000000 
x,y,z [Debye]:    -0.000000     1.252149     0.000000 

 

Timings for individual modules:

Sum of individual times         ...      112.186 sec (=   1.870 min)
GTO integral calculation        ...        3.050 sec (=   0.051 min)   2.7 %
SCF iterations                  ...      109.137 sec (=   1.819 min)  97.3 %
                             ****ORCA TERMINATED NORMALLY****
TOTAL RUN TIME: 0 days 0 hours 2 minutes 1 seconds 380 msec
