
                                 *****************
                                 * O   R   C   A *
                                 *****************

                                            #,                                       
                                            ###                                      
                                            ####                                     
                                            #####                                    
                                            ######                                   
                                           ########,                                 
                                     ,,################,,,,,                         
                               ,,#################################,,                 
                          ,,##########################################,,             
                       ,#########################################, ''#####,          
                    ,#############################################,,   '####,        
                  ,##################################################,,,,####,       
                ,###########''''           ''''###############################       
              ,#####''   ,,,,##########,,,,          '''####'''          '####       
            ,##' ,,,,###########################,,,                        '##       
           ' ,,###''''                  '''############,,,                           
         ,,##''                                '''############,,,,        ,,,,,,###''
      ,#''                                            '''#######################'''  
     '                                                          ''''####''''         
             ,#######,   #######,   ,#######,      ##                                
            ,#'     '#,  ##    ##  ,#'     '#,    #''#        ######   ,####,        
            ##       ##  ##   ,#'  ##            #'  '#       #        #'  '#        
            ##       ##  #######   ##           ,######,      #####,   #    #        
            '#,     ,#'  ##    ##  '#,     ,#' ,#      #,         ##   #,  ,#        
             '#######'   ##     ##  '#######'  #'      '#     #####' # '####'        



                  #######################################################
                  #                        -***-                        #
                  #          Department of theory and spectroscopy      #
                  #    Directorship and core code : Frank Neese         #
                  #        Max Planck Institute fuer Kohlenforschung    #
                  #                Kaiser Wilhelm Platz 1               #
                  #                 D-45470 Muelheim/Ruhr               #
                  #                      Germany                        #
                  #                                                     #
                  #                  All rights reserved                #
                  #                        -***-                        #
                  #######################################################


                         Program Version 5.0.3 -  RELEASE  -


 With contributions from (in alphabetic order):
   Daniel Aravena         : Magnetic Suceptibility
   Michael Atanasov       : Ab Initio Ligand Field Theory (pilot matlab implementation)
   Alexander A. Auer      : GIAO ZORA, VPT2 properties, NMR spectrum
   Ute Becker             : Parallelization
   Giovanni Bistoni       : ED, misc. LED, open-shell LED, HFLD
   Martin Brehm           : Molecular dynamics
   Dmytro Bykov           : SCF Hessian
   Vijay G. Chilkuri      : MRCI spin determinant printing, contributions to CSF-ICE
   Dipayan Datta          : RHF DLPNO-CCSD density
   Achintya Kumar Dutta   : EOM-CC, STEOM-CC
   Dmitry Ganyushin       : Spin-Orbit,Spin-Spin,Magnetic field MRCI
   Miquel Garcia          : C-PCM and meta-GGA Hessian, CC/C-PCM, Gaussian charge scheme
   Yang Guo               : DLPNO-NEVPT2, F12-NEVPT2, CIM, IAO-localization
   Andreas Hansen         : Spin unrestricted coupled pair/coupled cluster methods
   Benjamin Helmich-Paris : MC-RPA, TRAH-SCF, COSX integrals
   Lee Huntington         : MR-EOM, pCC
   Robert Izsak           : Overlap fitted RIJCOSX, COSX-SCS-MP3, EOM
   Marcus Kettner         : VPT2
   Christian Kollmar      : KDIIS, OOCD, Brueckner-CCSD(T), CCSD density, CASPT2, CASPT2-K
   Simone Kossmann        : Meta GGA functionals, TD-DFT gradient, OOMP2, MP2 Hessian
   Martin Krupicka        : Initial AUTO-CI
   Lucas Lang             : DCDCAS
   Marvin Lechner         : AUTO-CI (C++ implementation), FIC-MRCC
   Dagmar Lenk            : GEPOL surface, SMD
   Dimitrios Liakos       : Extrapolation schemes; Compound Job, initial MDCI parallelization
   Dimitrios Manganas     : Further ROCIS development; embedding schemes
   Dimitrios Pantazis     : SARC Basis sets
   Anastasios Papadopoulos: AUTO-CI, single reference methods and gradients
   Taras Petrenko         : DFT Hessian,TD-DFT gradient, ASA, ECA, R-Raman, ABS, FL, XAS/XES, NRVS
   Peter Pinski           : DLPNO-MP2, DLPNO-MP2 Gradient
   Christoph Reimann      : Effective Core Potentials
   Marius Retegan         : Local ZFS, SOC
   Christoph Riplinger    : Optimizer, TS searches, QM/MM, DLPNO-CCSD(T), (RO)-DLPNO pert. Triples
   Tobias Risthaus        : Range-separated hybrids, TD-DFT gradient, RPA, STAB
   Michael Roemelt        : Original ROCIS implementation
   Masaaki Saitow         : Open-shell DLPNO-CCSD energy and density
   Barbara Sandhoefer     : DKH picture change effects
   Avijit Sen             : IP-ROCIS
   Kantharuban Sivalingam : CASSCF convergence, NEVPT2, FIC-MRCI
   Bernardo de Souza      : ESD, SOC TD-DFT
   Georgi Stoychev        : AutoAux, RI-MP2 NMR, DLPNO-MP2 response
   Willem Van den Heuvel  : Paramagnetic NMR
   Boris Wezisla          : Elementary symmetry handling
   Frank Wennmohs         : Technical directorship


 We gratefully acknowledge several colleagues who have allowed us to
 interface, adapt or use parts of their codes:
   Stefan Grimme, W. Hujo, H. Kruse, P. Pracht,  : VdW corrections, initial TS optimization,
                  C. Bannwarth, S. Ehlert          DFT functionals, gCP, sTDA/sTD-DF
   Ed Valeev, F. Pavosevic, A. Kumar             : LibInt (2-el integral package), F12 methods
   Garnet Chan, S. Sharma, J. Yang, R. Olivares  : DMRG
   Ulf Ekstrom                                   : XCFun DFT Library
   Mihaly Kallay                                 : mrcc  (arbitrary order and MRCC methods)
   Jiri Pittner, Ondrej Demel                    : Mk-CCSD
   Frank Weinhold                                : gennbo (NPA and NBO analysis)
   Christopher J. Cramer and Donald G. Truhlar   : smd solvation model
   Lars Goerigk                                  : TD-DFT with DH, B97 family of functionals
   V. Asgeirsson, H. Jonsson                     : NEB implementation
   FAccTs GmbH                                   : IRC, NEB, NEB-TS, DLPNO-Multilevel, CI-OPT
                                                   MM, QMMM, 2- and 3-layer-ONIOM, Crystal-QMMM,
                                                   LR-CPCM, SF, NACMEs, symmetry and pop. for TD-DFT,
                                                   nearIR, NL-DFT gradient (VV10), updates on ESD,
                                                   ML-optimized integration grids
   S Lehtola, MJT Oliveira, MAL Marques          : LibXC Library
   Liviu Ungur et al                             : ANISO software


 Your calculation uses the libint2 library for the computation of 2-el integrals
 For citations please refer to: http://libint.valeyev.net

 Your ORCA version has been built with support for libXC version: 5.1.0
 For citations please refer to: https://tddft.org/programs/libxc/

 This ORCA versions uses:
   CBLAS   interface :  Fast vector & matrix operations
   LAPACKE interface :  Fast linear algebra routines
   SCALAPACK package :  Parallel linear algebra routines
   Shared memory     :  Shared parallel matrices
   BLAS/LAPACK       :  OpenBLAS 0.3.15  USE64BITINT DYNAMIC_ARCH NO_AFFINITY Haswell SINGLE_THREADED
        Core in use  :  Haswell
   Copyright (c) 2011-2014, The OpenBLAS Project




***************************************
The coordinates will be read from file: sugar3.xyz
***************************************


Your calculation utilizes the geometrical counterpoise correction gCP
Please cite in your paper:
H.Kruse, S. Grimme J.Chem.Phys., 136, (2012), 154101 
   

Your calculation utilizes the atom-pairwise dispersion correction
with the Becke-Johnson damping scheme (D3BJ)
Cite in your paper:
S.Grimme, S.Ehrlich, L.Goerigk, J Comput Chem, (2011), 32, 1456–1465 
S.Grimme, J.Antony, S.Ehrlich and H.Krieg, J.Chem.Phys., 132, (2010), 154104 
   

Your calculation employs the composite approach PBEh-3c.
Please cite in your paper:
S. Grimme, J. G. Brandenburg, C. Bannwarth, A. Hansen J.Chem.Phys., 143, (2015), 054107 
   

================================================================================

----- Orbital basis set information -----
Your calculation utilizes the basis: def2-mSVP

----- AuxJ basis set information -----
Your calculation utilizes the auxiliary basis: def2/J
   F. Weigend, Phys. Chem. Chem. Phys. 8, 1057 (2006).

================================================================================
                                        WARNINGS
                       Please study these warnings very carefully!
================================================================================


INFO   : the flag for use of the SHARK integral package has been found!

================================================================================
                                       INPUT FILE
================================================================================
NAME = pbeh-3c.inp
|  1> ! PBEh-3c def2/J TightSCF DefGrid3
|  2> 
|  3> %maxcore 60000
|  4> 
|  5> %pal
|  6> nprocs 4
|  7> end
|  8> 
|  9> *xyzfile 1 1 sugar3.xyz
| 10> 
| 11>                          ****END OF INPUT****
================================================================================

                       ****************************
                       * Single Point Calculation *
                       ****************************

---------------------------------
CARTESIAN COORDINATES (ANGSTROEM)
---------------------------------
  C     -2.772068   -0.855191   -0.070616
  C     -1.416976   -0.890043    0.636312
  C     -0.273444   -0.658614   -0.347996
  C      1.093705   -0.262123    0.222325
  C      1.154263    1.277924    0.062762
  O      0.588842    1.998660    1.102469
  C      0.435999    1.488362   -1.258955
  O     -2.954101    0.422419   -0.694167
  O      2.033936   -0.895241   -0.581833
  O     -1.378943    0.088666    1.648976
  O     -0.614617    0.456557   -1.258701
  C      3.340802   -0.953773   -0.050904
  H     -2.825900   -1.610966   -0.857842
  H     -3.585161   -1.055677    0.631329
  H     -1.261568   -1.898664    1.041785
  H     -0.170838   -1.541095   -0.983592
  H      1.192748   -0.551479    1.280015
  H      2.194283    1.602592   -0.040223
  H     -0.128950    1.512296    1.522167
  H     -0.045663    2.460387   -1.354559
  H      1.060137    1.285198   -2.127493
  H     -1.615694    0.722588   -1.123989
  H     -3.391915    1.045529   -0.104048
  H      3.794029    0.036234    0.066133
  H      3.356723   -1.459491    0.921014
  H      3.945211   -1.525307   -0.751157
  H     -1.754839   -0.239750    2.470789

----------------------------
CARTESIAN COORDINATES (A.U.)
----------------------------
  NO LB      ZA    FRAG     MASS         X           Y           Z
   0 C     6.0000    0    12.011   -5.238449   -1.616077   -0.133445
   1 C     6.0000    0    12.011   -2.677696   -1.681937    1.202455
   2 C     6.0000    0    12.011   -0.516734   -1.244601   -0.657617
   3 C     6.0000    0    12.011    2.066803   -0.495340    0.420133
   4 C     6.0000    0    12.011    2.181241    2.414927    0.118603
   5 O     8.0000    0    15.999    1.112749    3.776919    2.083364
   6 C     6.0000    0    12.011    0.823919    2.812597   -2.379081
   7 O     8.0000    0    15.999   -5.582442    0.798257   -1.311786
   8 O     8.0000    0    15.999    3.843581   -1.691761   -1.099506
   9 O     8.0000    0    15.999   -2.605824    0.167554    3.116113
  10 O     8.0000    0    15.999   -1.161458    0.862768   -2.378601
  11 C     6.0000    0    12.011    6.313200   -1.802369   -0.096195
  12 H     1.0000    0     1.008   -5.340177   -3.044284   -1.621086
  13 H     1.0000    0     1.008   -6.774973   -1.994941    1.193040
  14 H     1.0000    0     1.008   -2.384018   -3.587956    1.968689
  15 H     1.0000    0     1.008   -0.322837   -2.912247   -1.858720
  16 H     1.0000    0     1.008    2.253967   -1.042145    2.418878
  17 H     1.0000    0     1.008    4.146594    3.028460   -0.076011
  18 H     1.0000    0     1.008   -0.243680    2.857826    2.876479
  19 H     1.0000    0     1.008   -0.086291    4.649458   -2.559746
  20 H     1.0000    0     1.008    2.003369    2.428673   -4.020380
  21 H     1.0000    0     1.008   -3.053219    1.365493   -2.124031
  22 H     1.0000    0     1.008   -6.409790    1.975764   -0.196621
  23 H     1.0000    0     1.008    7.169676    0.068473    0.124974
  24 H     1.0000    0     1.008    6.343287   -2.758038    1.740464
  25 H     1.0000    0     1.008    7.455368   -2.882412   -1.419481
  26 H     1.0000    0     1.008   -3.316165   -0.453061    4.669114

--------------------------------
INTERNAL COORDINATES (ANGSTROEM)
--------------------------------
 C      0   0   0     0.000000000000     0.00000000     0.00000000
 C      1   0   0     1.528802153732     0.00000000     0.00000000
 C      2   1   0     1.526462012143   111.24693792     0.00000000
 C      3   2   1     1.533481987404   117.85665662   162.75554990
 C      4   3   2     1.549474977101   104.68637576   261.39868697
 O      5   4   3     1.385695153007   115.07136502    86.22539140
 C      5   4   3     1.518921699979   102.05372071   323.69237626
 O      1   2   3     1.433262421778   109.51597647   300.17796969
 O      4   3   2     1.389799669908   105.67397580   143.53814342
 O      2   1   3     1.408831141176   109.90539920   121.76474593
 O      7   5   4     1.472554180967   103.89567665    35.33184727
 C      9   4   3     1.411811090256   115.31060893   195.45789304
 H      1   2   3     1.092619618928   111.16550527    58.53640673
 H      1   2   3     1.092722949251   110.99744046   178.03083787
 H      2   1   3     1.098124588379   108.48878664   244.08884028
 H      3   2   1     1.092374414417   108.84924180   288.81405951
 H      4   3   2     1.101020108320   111.68625781    21.46293951
 H      5   4   3     1.094374896871   109.98029243   208.04860930
 H      6   5   4     0.963286395274   111.61375983   330.35979662
 H      7   5   4     1.089023226299   114.15453772   152.76997332
 H      7   5   4     1.088660898187   113.40727791   280.52131477
 H     11   7   5     1.044544834355   120.35401557   107.71595388
 H      8   1   2     0.963425265759   111.57754510   269.25139282
 H     12   9   4     1.095092247857   112.69456627   295.46759749
 H     12   9   4     1.095732706869   111.47858419    57.68533185
 H     12   9   4     1.087343044777   107.10633390   176.47057872
 H     10   2   1     0.961525282403   111.50130821    85.52205120

---------------------------
INTERNAL COORDINATES (A.U.)
---------------------------
 C      0   0   0     0.000000000000     0.00000000     0.00000000
 C      1   0   0     2.889017383502     0.00000000     0.00000000
 C      2   1   0     2.884595156785   111.24693792     0.00000000
 C      3   2   1     2.897860987494   117.85665662   162.75554990
 C      4   3   2     2.928083358085   104.68637576   261.39868697
 O      5   4   3     2.618584344286   115.07136502    86.22539140
 C      5   4   3     2.870346031830   102.05372071   323.69237626
 O      1   2   3     2.708473455201   109.51597647   300.17796969
 O      4   3   2     2.626340757140   105.67397580   143.53814342
 O      2   1   3     2.662305025762   109.90539920   121.76474593
 O      7   5   4     2.782724119388   103.89567665    35.33184727
 C      9   4   3     2.667936313416   115.31060893   195.45789304
 H      1   2   3     2.064751848324   111.16550527    58.53640673
 H      1   2   3     2.064947114334   110.99744046   178.03083787
 H      2   1   3     2.075154732961   108.48878664   244.08884028
 H      3   2   1     2.064288478951   108.84924180   288.81405951
 H      4   3   2     2.080626472666   111.68625781    21.46293951
 H      5   4   3     2.068068842925   109.98029243   208.04860930
 H      6   5   4     1.820347475599   111.61375983   330.35979662
 H      7   5   4     2.057955651185   114.15453772   152.76997332
 H      7   5   4     2.057270950282   113.40727791   280.52131477
 H     11   7   5     1.973903671534   120.35401557   107.71595388
 H      8   1   2     1.820609902785   111.57754510   269.25139282
 H     12   9   4     2.069424439831   112.69456627   295.46759749
 H     12   9   4     2.070634731963   111.47858419    57.68533185
 H     12   9   4     2.054780568252   107.10633390   176.47057872
 H     10   2   1     1.817019454584   111.50130821    85.52205120

---------------------
BASIS SET INFORMATION
---------------------
There are 3 groups of distinct atoms

 Group   1 Type C   : 8s4p1d contracted to 4s2p1d pattern {5111/31/1}
 Group   2 Type O   : 8s4p1d contracted to 4s2p1d pattern {5111/31/1}
 Group   3 Type H   : 4s contracted to 2s pattern {31}

Atom   0C    basis set group =>   1
Atom   1C    basis set group =>   1
Atom   2C    basis set group =>   1
Atom   3C    basis set group =>   1
Atom   4C    basis set group =>   1
Atom   5O    basis set group =>   2
Atom   6C    basis set group =>   1
Atom   7O    basis set group =>   2
Atom   8O    basis set group =>   2
Atom   9O    basis set group =>   2
Atom  10O    basis set group =>   2
Atom  11C    basis set group =>   1
Atom  12H    basis set group =>   3
Atom  13H    basis set group =>   3
Atom  14H    basis set group =>   3
Atom  15H    basis set group =>   3
Atom  16H    basis set group =>   3
Atom  17H    basis set group =>   3
Atom  18H    basis set group =>   3
Atom  19H    basis set group =>   3
Atom  20H    basis set group =>   3
Atom  21H    basis set group =>   3
Atom  22H    basis set group =>   3
Atom  23H    basis set group =>   3
Atom  24H    basis set group =>   3
Atom  25H    basis set group =>   3
Atom  26H    basis set group =>   3
---------------------------------
AUXILIARY/J BASIS SET INFORMATION
---------------------------------
There are 3 groups of distinct atoms

 Group   1 Type C   : 12s5p4d2f1g contracted to 6s4p3d1f1g pattern {711111/2111/211/2/1}
 Group   2 Type O   : 12s5p4d2f1g contracted to 6s4p3d1f1g pattern {711111/2111/211/2/1}
 Group   3 Type H   : 5s2p1d contracted to 3s1p1d pattern {311/2/1}

Atom   0C    basis set group =>   1
Atom   1C    basis set group =>   1
Atom   2C    basis set group =>   1
Atom   3C    basis set group =>   1
Atom   4C    basis set group =>   1
Atom   5O    basis set group =>   2
Atom   6C    basis set group =>   1
Atom   7O    basis set group =>   2
Atom   8O    basis set group =>   2
Atom   9O    basis set group =>   2
Atom  10O    basis set group =>   2
Atom  11C    basis set group =>   1
Atom  12H    basis set group =>   3
Atom  13H    basis set group =>   3
Atom  14H    basis set group =>   3
Atom  15H    basis set group =>   3
Atom  16H    basis set group =>   3
Atom  17H    basis set group =>   3
Atom  18H    basis set group =>   3
Atom  19H    basis set group =>   3
Atom  20H    basis set group =>   3
Atom  21H    basis set group =>   3
Atom  22H    basis set group =>   3
Atom  23H    basis set group =>   3
Atom  24H    basis set group =>   3
Atom  25H    basis set group =>   3
Atom  26H    basis set group =>   3


           ************************************************************
           *        Program running with 4 parallel MPI-processes     *
           *              working on a common directory               *
           ************************************************************
------------------------------------------------------------------------------
                           ORCA GTO INTEGRAL CALCULATION
                           -- RI-GTO INTEGRALS CHOSEN --
------------------------------------------------------------------------------
------------------------------------------------------------------------------
                   ___                                                        
                  /   \      - P O W E R E D   B Y -                         
                 /     \                                                     
                 |  |  |   _    _      __       _____    __    __             
                 |  |  |  | |  | |    /  \     |  _  \  |  |  /  |          
                  \  \/   | |  | |   /    \    | | | |  |  | /  /          
                 / \  \   | |__| |  /  /\  \   | |_| |  |  |/  /          
                |  |  |   |  __  | /  /__\  \  |    /   |      \           
                |  |  |   | |  | | |   __   |  |    \   |  |\   \          
                \     /   | |  | | |  |  |  |  | |\  \  |  | \   \       
                 \___/    |_|  |_| |__|  |__|  |_| \__\ |__|  \__/        
                                                                              
                      - O R C A' S   B I G   F R I E N D -                    
                                      &                                       
                       - I N T E G R A L  F E E D E R -                       
                                                                              
 v1 FN, 2020, v2 2021                                                         
------------------------------------------------------------------------------


Reading SHARK input file pbeh-3c.SHARKINP.tmp ... ok
----------------------
SHARK INTEGRAL PACKAGE
----------------------

Number of atoms                             ...     27
Number of basis functions                   ...    210
Number of shells                            ...    114
Maximum angular momentum                    ...      2
Integral batch strategy                     ... SHARK/LIBINT Hybrid
RI-J (if used) integral strategy            ... SPLIT-RIJ (Revised 2003 algorithm where possible)
Printlevel                                  ...      1
Contraction scheme used                     ... SEGMENTED contraction
Coulomb Range Separation                    ... NOT USED
Exchange Range Separation                   ... NOT USED
Finite Nucleus Model                        ... NOT USED
Auxiliary Coulomb fitting basis             ... AVAILABLE
   # of basis functions in Aux-J            ...    753
   # of shells in Aux-J                     ...    255
   Maximum angular momentum in Aux-J        ...      4
Auxiliary J/K fitting basis                 ... NOT available
Auxiliary Correlation fitting basis         ... NOT available
Auxiliary 'external' fitting basis          ... NOT available
Integral threshold                          ...     2.500000e-11
Primitive cut-off                           ...     2.500000e-12
Primitive pair pre-selection threshold      ...     2.500000e-12

Calculating pre-screening integrals         ... done (  0.2 sec) Dimension = 114
Organizing shell pair data                  ... done (  0.2 sec)
Shell pair information
Total number of shell pairs                 ...      6555
Shell pairs after pre-screening             ...      5609
Total number of primitive shell pairs       ...     23637
Primitive shell pairs kept                  ...     13573
          la=0 lb=0:   2447 shell pairs
          la=1 lb=0:   1720 shell pairs
          la=1 lb=1:    294 shell pairs
          la=2 lb=0:    795 shell pairs
          la=2 lb=1:    279 shell pairs
          la=2 lb=2:     74 shell pairs

Calculating one electron integrals          ... done (  0.1 sec)
Calculating RI/J V-Matrix + Cholesky decomp.... done (  0.8 sec)
Calculating Nuclear repulsion               ... done (  0.2 sec) ENN=    859.725195331110 Eh

SHARK setup successfully completed in   2.3 seconds

Maximum memory used throughout the entire GTOINT-calculation: 14.0 MB


           ************************************************************
           *        Program running with 4 parallel MPI-processes     *
           *              working on a common directory               *
           ************************************************************
-------------------------------------------------------------------------------
                                 ORCA SCF
-------------------------------------------------------------------------------

------------
SCF SETTINGS
------------
Hamiltonian:
 Density Functional     Method          .... DFT(GTOs)
 Exchange Functional    Exchange        .... PBE
   PBE kappa parameter   XKappa         ....  1.024500
   PBE mue parameter    XMuePBE         ....  0.123457
 Correlation Functional Correlation     .... PBE
   PBE beta parameter  CBetaPBE         ....  0.030000
 LDA part of GGA corr.  LDAOpt          .... PW91-LDA
 Gradients option       PostSCFGGA      .... off
 Hybrid DFT is turned on
   Fraction HF Exchange ScalHFX         ....  0.420000
   Scaling of DF-GGA-X  ScalDFX         ....  0.580000
   Scaling of DF-GGA-C  ScalDFC         ....  1.000000
   Scaling of DF-LDA-C  ScalLDAC        ....  1.000000
   Perturbative correction              ....  0.000000
   Density functional embedding theory  .... OFF
 RI-approximation to the Coulomb term is turned on
   Number of AuxJ basis functions       .... 753
   RIJ-ON(X) (HFX calculated with O(N)) .... on
   Number of AuxJ basis functions       .... 753
   RIJ-COSX (HFX calculated with COS-X)).... on


General Settings:
 Integral files         IntName         .... pbeh-3c
 Hartree-Fock type      HFTyp           .... RHF
 Total Charge           Charge          ....    1
 Multiplicity           Mult            ....    1
 Number of Electrons    NEL             ....   96
 Basis Dimension        Dim             ....  210
 Nuclear Repulsion      ENuc            ....    859.7251953311 Eh

Convergence Acceleration:
 DIIS                   CNVDIIS         .... on
   Start iteration      DIISMaxIt       ....    12
   Startup error        DIISStart       ....  0.200000
   # of expansion vecs  DIISMaxEq       ....     5
   Bias factor          DIISBfac        ....   1.050
   Max. coefficient     DIISMaxC        ....  10.000
 Trust-Rad. Augm. Hess. CNVTRAH         .... auto
   Auto Start mean grad. ratio tolernc. ....  1.125000
   Auto Start start iteration           ....    20
   Auto Start num. interpolation iter.  ....    10
   Max. Number of Micro iterations      ....    16
   Max. Number of Macro iterations      .... Maxiter - #DIIS iter
   Number of Davidson start vectors     ....     2
   Converg. threshold I  (grad. norm)   ....   1.000e-05
   Converg. threshold II (energy diff.) ....   1.000e-08
   Grad. Scal. Fac. for Micro threshold ....   0.100
   Minimum threshold for Micro iter.    ....   0.010
   NR start threshold (gradient norm)   ....   0.001
   Initial trust radius                 ....   0.400
   Minimum AH scaling param. (alpha)    ....   1.000
   Maximum AH scaling param. (alpha)    .... 1000.000
   Orbital update algorithm             .... Taylor
   White noise on init. David. guess    .... on
   Maximum white noise                  ....   0.010
   Quad. conv. algorithm                .... NR
   COSX micro iterations for RIJONX calc.... off
 SOSCF                  CNVSOSCF        .... on
   Start iteration      SOSCFMaxIt      ....   150
   Startup grad/error   SOSCFStart      ....  0.003300
 Level Shifting         CNVShift        .... on
   Level shift para.    LevelShift      ....    0.2500
   Turn off err/grad.   ShiftErr        ....    0.0010
 Zerner damping         CNVZerner       .... off
 Static damping         CNVDamp         .... on
   Fraction old density DampFac         ....    0.7000
   Max. Damping (<1)    DampMax         ....    0.9800
   Min. Damping (>=0)   DampMin         ....    0.0000
   Turn off err/grad.   DampErr         ....    0.1000
 Fernandez-Rico         CNVRico         .... off

SCF Procedure:
 Maximum # iterations   MaxIter         ....   125
 SCF integral mode      SCFMode         .... Direct
   Integral package                     .... SHARK and LIBINT hybrid scheme
 Reset frequency        DirectResetFreq ....    20
 Integral Threshold     Thresh          ....  2.500e-11 Eh
 Primitive CutOff       TCut            ....  2.500e-12 Eh

Convergence Tolerance:
 Convergence Check Mode ConvCheckMode   .... Total+1el-Energy
 Convergence forced     ConvForced      .... 0
 Energy Change          TolE            ....  1.000e-08 Eh
 1-El. energy change                    ....  1.000e-05 Eh
 Orbital Gradient       TolG            ....  1.000e-05
 Orbital Rotation angle TolX            ....  1.000e-05
 DIIS Error             TolErr          ....  5.000e-07


Diagonalization of the overlap matrix:
Smallest eigenvalue                        ... 3.060e-03
Time for diagonalization                   ...    0.008 sec
Threshold for overlap eigenvalues          ... 1.000e-08
Number of eigenvalues below threshold      ... 0
Time for construction of square roots      ...    0.194 sec
Total time needed                          ...    0.225 sec

--------------------------------
INITIAL GUESS: MINIMAL BASIS EHT
--------------------------------
The minimal basis has 75 functions
EHT matrix was diagonalized
Basis set overlap was calculated now projecting the orbitals
Using GuessMode=FMatrix for the initial guess
C*T matrix was formed
Effective Fockian was calculated
Effective Fockian was diagonalized
Initial density was built
                      ------------------
                      INITIAL GUESS DONE
                      ------------------
-------------------
DFT GRID GENERATION
-------------------

General Integration Accuracy     IntAcc      ... 4.959
Radial Grid Type                 RadialGrid  ... OptM3 with GC (2021)
Angular Grid (max. ang.)         AngularGrid ... 6 (Lebedev-590)
Angular grid pruning method      GridPruning ... 4 (adaptive)
Weight generation scheme         WeightScheme... Becke
Basis function cutoff            BFCut       ... 1.0000e-11
Integration weight cutoff        WCut        ... 1.0000e-14
Angular grids for H and He will be reduced by one unit
Partially contracted basis set               ... off
Rotationally invariant grid construction     ... off

Total number of grid points                  ...   298800
Total number of batches                      ...     4681
Average number of points per batch           ...       63
Average number of grid points per atom       ...    11067
Time for grid setup =    6.105 sec

--------------------
COSX GRID GENERATION
--------------------

GRIDX 1
-------
General Integration Accuracy     IntAcc      ... 4.020
Radial Grid Type                 RadialGrid  ... OptM3 with GC (2021)
Angular Grid (max. ang.)         AngularGrid ... 2 (Lebedev-110)
Angular grid pruning method      GridPruning ... 4 (adaptive)
Weight generation scheme         WeightScheme... Becke
Basis function cutoff            BFCut       ... 1.0000e-11
Integration weight cutoff        WCut        ... 1.0000e-14
Angular grids for H and He will be reduced by one unit
Partially contracted basis set               ... on
Rotationally invariant grid construction     ... off

Total number of grid points                  ...    32305
Total number of batches                      ...      517
Average number of points per batch           ...       62
Average number of grid points per atom       ...     1196
UseSFitting                                  ... on

GRIDX 2
-------
General Integration Accuracy     IntAcc      ... 4.338
Radial Grid Type                 RadialGrid  ... OptM3 with GC (2021)
Angular Grid (max. ang.)         AngularGrid ... 3 (Lebedev-194)
Angular grid pruning method      GridPruning ... 4 (adaptive)
Weight generation scheme         WeightScheme... Becke
Basis function cutoff            BFCut       ... 1.0000e-11
Integration weight cutoff        WCut        ... 1.0000e-14
Angular grids for H and He will be reduced by one unit
Partially contracted basis set               ... on
Rotationally invariant grid construction     ... off

Total number of grid points                  ...    70537
Total number of batches                      ...     1114
Average number of points per batch           ...       63
Average number of grid points per atom       ...     2612
UseSFitting                                  ... on

GRIDX 3
-------
General Integration Accuracy     IntAcc      ... 4.871
Radial Grid Type                 RadialGrid  ... OptM3 with GC (2021)
Angular Grid (max. ang.)         AngularGrid ... 4 (Lebedev-302)
Angular grid pruning method      GridPruning ... 4 (adaptive)
Weight generation scheme         WeightScheme... Becke
Basis function cutoff            BFCut       ... 1.0000e-11
Integration weight cutoff        WCut        ... 1.0000e-14
Angular grids for H and He will be reduced by one unit
Partially contracted basis set               ... on
Rotationally invariant grid construction     ... off

Total number of grid points                  ...   135818
Total number of batches                      ...     2138
Average number of points per batch           ...       63
Average number of grid points per atom       ...     5030
UseSFitting                                  ... on

Time for X-Grid setup             =    5.865 sec

--------------
SCF ITERATIONS
--------------
ITER       Energy         Delta-E        Max-DP      RMS-DP      [F,P]     Damp
               ***  Starting incremental Fock matrix formation  ***
  0   -648.6130582250   0.000000000000 0.16175510  0.00466107  0.4830893 0.7000
  1   -649.2001877989  -0.587129573866 0.09137910  0.00286275  0.2680984 0.7000
                               ***Turning on DIIS***
  2   -649.5225086514  -0.322320852546 0.04524854  0.00168272  0.1928053 0.7000
  3   -649.7426620894  -0.220153437935 0.02438345  0.00111169  0.1375288 0.7000
  4   -649.8991514500  -0.156489360649 0.06298756  0.00277116  0.0959562 0.0000
  5   -650.2755076853  -0.376356235279 0.00940959  0.00023624  0.0098600 0.0000
  6   -650.2759548958  -0.000447210559 0.00272601  0.00007063  0.0051596 0.0000
                      *** Initiating the SOSCF procedure ***
                           *** Shutting down DIIS ***
                      *** Re-Reading the Fockian *** 
                      *** Removing any level shift *** 
ITER      Energy       Delta-E        Grad      Rot      Max-DP    RMS-DP
  7   -650.27609303  -0.0001381298  0.000372  0.000372  0.001499  0.000049
               *** Restarting incremental Fock matrix formation ***
  8   -650.27610159  -0.0000085681  0.000065  0.000112  0.000451  0.000013
  9   -650.27610202  -0.0000004292  0.000055  0.000040  0.000200  0.000006
 10   -650.27610260  -0.0000005774  0.000008  0.000011  0.000049  0.000001
 11   -650.27610259   0.0000000065  0.000010  0.000005  0.000027  0.000001
                  ***Gradient check signals convergence***
              ***Rediagonalizing the Fockian in SOSCF/NRSCF***

               *****************************************************
               *                     SUCCESS                       *
               *           SCF CONVERGED AFTER  12 CYCLES          *
               *****************************************************

Old exchange energy                            =    -34.699747972 Eh
New exchange energy                            =    -34.699762526 Eh
Exchange energy change after final integration =     -0.000014555 Eh
Total energy after final integration           =   -650.276117160 Eh
Final COS-X integration done in                =    14.504 sec

----------------
TOTAL SCF ENERGY
----------------

Total Energy       :         -650.27611716 Eh          -17694.91274 eV

Components:
Nuclear Repulsion  :          859.72519533 Eh           23394.31191 eV
Electronic Energy  :        -1510.00131249 Eh          -41089.22465 eV
One Electron Energy:        -2581.40915504 Eh          -70243.71423 eV
Two Electron Energy:         1071.40784255 Eh           29154.48958 eV
Max COSX asymmetry :            0.00000231 Eh               0.00006 eV

Virial components:
Potential Energy   :        -1296.07751148 Eh          -35268.06208 eV
Kinetic Energy     :          645.80139432 Eh           17573.14934 eV
Virial Ratio       :            2.00692895


DFT components:
N(Alpha)           :       48.000000162078 electrons
N(Beta)            :       48.000000162078 electrons
N(Total)           :       96.000000324156 electrons
E(X)               :      -46.160313845635 Eh       
E(C)               :       -4.278168270381 Eh       
E(XC)              :      -50.438482116016 Eh       
DFET-embed. en.    :        0.000000000000 Eh       

---------------
SCF CONVERGENCE
---------------

  Last Energy change         ...   -1.1659e-08  Tolerance :   1.0000e-08
  Last MAX-Density change    ...    2.2204e-15  Tolerance :   1.0000e-07
  Last RMS-Density change    ...    4.3782e-17  Tolerance :   5.0000e-09
  Last Orbital Gradient      ...    7.6075e-07  Tolerance :   1.0000e-05
  Last Orbital Rotation      ...    7.5467e-07  Tolerance :   1.0000e-05

             **** THE GBW FILE WAS UPDATED (pbeh-3c.gbw) ****
             **** DENSITY pbeh-3c.scfp WAS UPDATED ****
             **** ENERGY FILE WAS UPDATED (pbeh-3c.en.tmp) ****
             **** THE GBW FILE WAS UPDATED (pbeh-3c.gbw) ****
             **** DENSITY pbeh-3c.scfp WAS UPDATED ****
----------------
ORBITAL ENERGIES
----------------

  NO   OCC          E(Eh)            E(eV) 
   0   2.0000     -19.762358      -537.7611 
   1   2.0000     -19.711266      -536.3708 
   2   2.0000     -19.685879      -535.6800 
   3   2.0000     -19.644566      -534.5558 
   4   2.0000     -19.621527      -533.9289 
   5   2.0000     -10.689768      -290.8834 
   6   2.0000     -10.686532      -290.7953 
   7   2.0000     -10.672402      -290.4108 
   8   2.0000     -10.661549      -290.1155 
   9   2.0000     -10.658635      -290.0362 
  10   2.0000     -10.645557      -289.6803 
  11   2.0000     -10.600650      -288.4584 
  12   2.0000      -1.407980       -38.3131 
  13   2.0000      -1.344213       -36.5779 
  14   2.0000      -1.323683       -36.0192 
  15   2.0000      -1.300516       -35.3888 
  16   2.0000      -1.273168       -34.6447 
  17   2.0000      -1.067902       -29.0591 
  18   2.0000      -1.033227       -28.1155 
  19   2.0000      -0.990613       -26.9559 
  20   2.0000      -0.914564       -24.8865 
  21   2.0000      -0.886989       -24.1362 
  22   2.0000      -0.882828       -24.0230 
  23   2.0000      -0.837878       -22.7998 
  24   2.0000      -0.817167       -22.2362 
  25   2.0000      -0.801743       -21.8165 
  26   2.0000      -0.747476       -20.3399 
  27   2.0000      -0.743927       -20.2433 
  28   2.0000      -0.741006       -20.1638 
  29   2.0000      -0.716144       -19.4873 
  30   2.0000      -0.704581       -19.1726 
  31   2.0000      -0.687979       -18.7209 
  32   2.0000      -0.680258       -18.5108 
  33   2.0000      -0.673651       -18.3310 
  34   2.0000      -0.644618       -17.5410 
  35   2.0000      -0.637680       -17.3521 
  36   2.0000      -0.621327       -16.9072 
  37   2.0000      -0.605456       -16.4753 
  38   2.0000      -0.594194       -16.1688 
  39   2.0000      -0.592700       -16.1282 
  40   2.0000      -0.576349       -15.6833 
  41   2.0000      -0.564393       -15.3579 
  42   2.0000      -0.555174       -15.1070 
  43   2.0000      -0.542973       -14.7751 
  44   2.0000      -0.514122       -13.9900 
  45   2.0000      -0.508167       -13.8279 
  46   2.0000      -0.476650       -12.9703 
  47   2.0000      -0.448516       -12.2047 
  48   0.0000      -0.081669        -2.2223 
  49   0.0000      -0.052383        -1.4254 
  50   0.0000      -0.037344        -1.0162 
  51   0.0000      -0.017893        -0.4869 
  52   0.0000      -0.009733        -0.2649 
  53   0.0000       0.004595         0.1250 
  54   0.0000       0.016215         0.4412 
  55   0.0000       0.024245         0.6597 
  56   0.0000       0.036227         0.9858 
  57   0.0000       0.044883         1.2213 
  58   0.0000       0.049862         1.3568 
  59   0.0000       0.054439         1.4813 
  60   0.0000       0.066570         1.8115 
  61   0.0000       0.072662         1.9772 
  62   0.0000       0.078572         2.1380 
  63   0.0000       0.090171         2.4537 
  64   0.0000       0.093903         2.5552 
  65   0.0000       0.102330         2.7845 
  66   0.0000       0.110014         2.9936 
  67   0.0000       0.124713         3.3936 
  68   0.0000       0.131423         3.5762 
  69   0.0000       0.141744         3.8571 
  70   0.0000       0.159617         4.3434 
  71   0.0000       0.175128         4.7655 
  72   0.0000       0.185677         5.0525 
  73   0.0000       0.206984         5.6323 
  74   0.0000       0.221944         6.0394 
  75   0.0000       0.346256         9.4221 
  76   0.0000       0.354550         9.6478 
  77   0.0000       0.379575        10.3288 
  78   0.0000       0.380901        10.3648 
  79   0.0000       0.391343        10.6490 
  80   0.0000       0.400475        10.8975 
  81   0.0000       0.405569        11.0361 
  82   0.0000       0.412642        11.2286 
  83   0.0000       0.422896        11.5076 
  84   0.0000       0.450536        12.2597 
  85   0.0000       0.458470        12.4756 
  86   0.0000       0.469675        12.7805 
  87   0.0000       0.475688        12.9441 
  88   0.0000       0.484309        13.1787 
  89   0.0000       0.514532        14.0011 
  90   0.0000       0.538920        14.6647 
  91   0.0000       0.561887        15.2897 
  92   0.0000       0.590152        16.0589 
  93   0.0000       0.640364        17.4252 
  94   0.0000       0.647376        17.6160 
  95   0.0000       0.670290        18.2395 
  96   0.0000       0.689185        18.7537 
  97   0.0000       0.733601        19.9623 
  98   0.0000       0.761154        20.7121 
  99   0.0000       0.779268        21.2050 
 100   0.0000       0.782547        21.2942 
 101   0.0000       0.813692        22.1417 
 102   0.0000       0.826229        22.4828 
 103   0.0000       0.826923        22.5017 
 104   0.0000       0.837886        22.8000 
 105   0.0000       0.841867        22.9084 
 106   0.0000       0.851768        23.1778 
 107   0.0000       0.861178        23.4339 
 108   0.0000       0.870352        23.6835 
 109   0.0000       0.883655        24.0455 
 110   0.0000       0.898160        24.4402 
 111   0.0000       0.913147        24.8480 
 112   0.0000       0.923570        25.1316 
 113   0.0000       0.959737        26.1158 
 114   0.0000       0.967645        26.3310 
 115   0.0000       0.978639        26.6301 
 116   0.0000       0.995716        27.0948 
 117   0.0000       1.010512        27.4974 
 118   0.0000       1.015055        27.6210 
 119   0.0000       1.038730        28.2653 
 120   0.0000       1.083385        29.4804 
 121   0.0000       1.093254        29.7490 
 122   0.0000       1.117158        30.3994 
 123   0.0000       1.142405        31.0864 
 124   0.0000       1.159404        31.5490 
 125   0.0000       1.178133        32.0586 
 126   0.0000       1.198070        32.6011 
 127   0.0000       1.208410        32.8825 
 128   0.0000       1.240213        33.7479 
 129   0.0000       1.275446        34.7066 
 130   0.0000       1.302310        35.4377 
 131   0.0000       1.330993        36.2182 
 132   0.0000       1.344665        36.5902 
 133   0.0000       1.376519        37.4570 
 134   0.0000       1.391512        37.8650 
 135   0.0000       1.428405        38.8689 
 136   0.0000       1.459128        39.7049 
 137   0.0000       1.504279        40.9335 
 138   0.0000       1.525884        41.5214 
 139   0.0000       1.537338        41.8331 
 140   0.0000       1.557131        42.3717 
 141   0.0000       1.603441        43.6318 
 142   0.0000       1.608028        43.7567 
 143   0.0000       1.615976        43.9729 
 144   0.0000       1.637130        44.5486 
 145   0.0000       1.643376        44.7185 
 146   0.0000       1.679991        45.7149 
 147   0.0000       1.694273        46.1035 
 148   0.0000       1.706683        46.4412 
 149   0.0000       1.719594        46.7925 
 150   0.0000       1.751256        47.6541 
 151   0.0000       1.788839        48.6768 
 152   0.0000       1.798946        48.9518 
 153   0.0000       1.824992        49.6606 
 154   0.0000       1.843968        50.1769 
 155   0.0000       1.868808        50.8529 
 156   0.0000       1.897568        51.6355 
 157   0.0000       1.927633        52.4536 
 158   0.0000       1.937067        52.7103 
 159   0.0000       1.943723        52.8914 
 160   0.0000       1.951248        53.0962 
 161   0.0000       1.954700        53.1901 
 162   0.0000       1.983661        53.9782 
 163   0.0000       2.016932        54.8835 
 164   0.0000       2.019151        54.9439 
 165   0.0000       2.037360        55.4394 
 166   0.0000       2.060379        56.0658 
 167   0.0000       2.066341        56.2280 
 168   0.0000       2.103236        57.2320 
 169   0.0000       2.125485        57.8374 
 170   0.0000       2.129745        57.9533 
 171   0.0000       2.186908        59.5088 
 172   0.0000       2.212635        60.2089 
 173   0.0000       2.220592        60.4254 
 174   0.0000       2.266047        61.6623 
 175   0.0000       2.301738        62.6335 
 176   0.0000       2.306873        62.7732 
 177   0.0000       2.338440        63.6322 
 178   0.0000       2.372214        64.5512 
 179   0.0000       2.405391        65.4540 
 180   0.0000       2.439083        66.3708 
 181   0.0000       2.454935        66.8022 
 182   0.0000       2.479372        67.4671 
 183   0.0000       2.487390        67.6853 
 184   0.0000       2.541788        69.1656 
 185   0.0000       2.562802        69.7374 
 186   0.0000       2.592124        70.5353 
 187   0.0000       2.595853        70.6367 
 188   0.0000       2.635193        71.7073 
 189   0.0000       2.668436        72.6118 
 190   0.0000       2.677166        72.8494 
 191   0.0000       2.685796        73.0842 
 192   0.0000       2.736476        74.4633 
 193   0.0000       2.801514        76.2331 
 194   0.0000       2.817368        76.6645 
 195   0.0000       2.844834        77.4119 
 196   0.0000       2.890572        78.6565 
 197   0.0000       2.964513        80.6685 
 198   0.0000      13.391089       364.3901 
 199   0.0000      13.531902       368.2218 
 200   0.0000      13.646213       371.3323 
 201   0.0000      13.758907       374.3989 
 202   0.0000      13.839067       376.5801 
 203   0.0000      13.951773       379.6471 
 204   0.0000      13.987406       380.6167 
 205   0.0000      25.313091       688.8042 
 206   0.0000      25.419554       691.7012 
 207   0.0000      25.486741       693.5295 
 208   0.0000      25.554576       695.3754 
 209   0.0000      25.606796       696.7963 

                    ********************************
                    * MULLIKEN POPULATION ANALYSIS *
                    ********************************

-----------------------
MULLIKEN ATOMIC CHARGES
-----------------------
   0 C :   -0.213032
   1 C :   -0.046760
   2 C :    0.007958
   3 C :   -0.040435
   4 C :   -0.007382
   5 O :   -0.619503
   6 C :   -0.213133
   7 O :   -0.653725
   8 O :   -0.466681
   9 O :   -0.657306
  10 O :   -0.582392
  11 C :   -0.402936
  12 H :    0.276242
  13 H :    0.275028
  14 H :    0.275303
  15 H :    0.322259
  16 H :    0.267509
  17 H :    0.281053
  18 H :    0.444795
  19 H :    0.297727
  20 H :    0.294069
  21 H :    0.528241
  22 H :    0.479459
  23 H :    0.212172
  24 H :    0.214891
  25 H :    0.262228
  26 H :    0.464350
Sum of atomic charges:    1.0000000

--------------------------------
MULLIKEN REDUCED ORBITAL CHARGES
--------------------------------
  0 C s       :     3.301360  s :     3.301360
      pz      :     1.077445  p :     2.848278
      px      :     0.990908
      py      :     0.779925
      dz2     :     0.005063  d :     0.063394
      dxz     :     0.013235
      dyz     :     0.018905
      dx2y2   :     0.017843
      dxy     :     0.008349
  1 C s       :     3.235523  s :     3.235523
      pz      :     0.846304  p :     2.737562
      px      :     0.925653
      py      :     0.965605
      dz2     :     0.011485  d :     0.073675
      dxz     :     0.018450
      dyz     :     0.018467
      dx2y2   :     0.018010
      dxy     :     0.007262
  2 C s       :     3.263220  s :     3.263220
      pz      :     0.882587  p :     2.666885
      px      :     0.913372
      py      :     0.870926
      dz2     :     0.007296  d :     0.061937
      dxz     :     0.011310
      dyz     :     0.020287
      dx2y2   :     0.015175
      dxy     :     0.007869
  3 C s       :     3.238599  s :     3.238599
      pz      :     1.044400  p :     2.726483
      px      :     0.789820
      py      :     0.892262
      dz2     :     0.018167  d :     0.075352
      dxz     :     0.014659
      dyz     :     0.010519
      dx2y2   :     0.018972
      dxy     :     0.013035
  4 C s       :     3.216656  s :     3.216656
      pz      :     0.778245  p :     2.713233
      px      :     1.082553
      py      :     0.852434
      dz2     :     0.023443  d :     0.077492
      dxz     :     0.015255
      dyz     :     0.013888
      dx2y2   :     0.015613
      dxy     :     0.009293
  5 O s       :     3.802194  s :     3.802194
      pz      :     1.528315  p :     4.788059
      px      :     1.590563
      py      :     1.669182
      dz2     :     0.004378  d :     0.029249
      dxz     :     0.003635
      dyz     :     0.008538
      dx2y2   :     0.003809
      dxy     :     0.008889
  6 C s       :     3.327094  s :     3.327094
      pz      :     1.071623  p :     2.828199
      px      :     0.856425
      py      :     0.900151
      dz2     :     0.012681  d :     0.057840
      dxz     :     0.013352
      dyz     :     0.005584
      dx2y2   :     0.007258
      dxy     :     0.018966
  7 O s       :     3.804887  s :     3.804887
      pz      :     1.677999  p :     4.821983
      px      :     1.784344
      py      :     1.359640
      dz2     :     0.002967  d :     0.026856
      dxz     :     0.004114
      dyz     :     0.012259
      dx2y2   :     0.003557
      dxy     :     0.003959
  8 O s       :     3.797101  s :     3.797101
      pz      :     1.635137  p :     4.637904
      px      :     1.250186
      py      :     1.752580
      dz2     :     0.004584  d :     0.031676
      dxz     :     0.010797
      dyz     :     0.005011
      dx2y2   :     0.005764
      dxy     :     0.005520
  9 O s       :     3.814340  s :     3.814340
      pz      :     1.344321  p :     4.816074
      px      :     1.849300
      py      :     1.622453
      dz2     :     0.003861  d :     0.026892
      dxz     :     0.005177
      dyz     :     0.009829
      dx2y2   :     0.004270
      dxy     :     0.003754
 10 O s       :     3.796864  s :     3.796864
      pz      :     1.779820  p :     4.753161
      px      :     1.508821
      py      :     1.464521
      dz2     :     0.004854  d :     0.032367
      dxz     :     0.005032
      dyz     :     0.006925
      dx2y2   :     0.008263
      dxy     :     0.007294
 11 C s       :     3.336609  s :     3.336609
      pz      :     1.106749  p :     3.004869
      px      :     0.755618
      py      :     1.142502
      dz2     :     0.010826  d :     0.061458
      dxz     :     0.013544
      dyz     :     0.008792
      dx2y2   :     0.013509
      dxy     :     0.014786
 12 H s       :     0.723758  s :     0.723758
 13 H s       :     0.724972  s :     0.724972
 14 H s       :     0.724697  s :     0.724697
 15 H s       :     0.677741  s :     0.677741
 16 H s       :     0.732491  s :     0.732491
 17 H s       :     0.718947  s :     0.718947
 18 H s       :     0.555205  s :     0.555205
 19 H s       :     0.702273  s :     0.702273
 20 H s       :     0.705931  s :     0.705931
 21 H s       :     0.471759  s :     0.471759
 22 H s       :     0.520541  s :     0.520541
 23 H s       :     0.787828  s :     0.787828
 24 H s       :     0.785109  s :     0.785109
 25 H s       :     0.737772  s :     0.737772
 26 H s       :     0.535650  s :     0.535650


                     *******************************
                     * LOEWDIN POPULATION ANALYSIS *
                     *******************************

----------------------
LOEWDIN ATOMIC CHARGES
----------------------
   0 C :   -0.095388
   1 C :   -0.055999
   2 C :    0.009461
   3 C :   -0.030534
   4 C :   -0.044608
   5 O :   -0.371377
   6 C :   -0.064784
   7 O :   -0.365487
   8 O :   -0.232831
   9 O :   -0.383314
  10 O :   -0.169100
  11 C :   -0.185767
  12 H :    0.152579
  13 H :    0.147979
  14 H :    0.150188
  15 H :    0.172796
  16 H :    0.138731
  17 H :    0.150501
  18 H :    0.308787
  19 H :    0.162820
  20 H :    0.160403
  21 H :    0.373955
  22 H :    0.351122
  23 H :    0.113794
  24 H :    0.117957
  25 H :    0.145613
  26 H :    0.342502

-------------------------------
LOEWDIN REDUCED ORBITAL CHARGES
-------------------------------
  0 C s       :     2.924282  s :     2.924282
      pz      :     1.084189  p :     3.035429
      px      :     1.078609
      py      :     0.872631
      dz2     :     0.009827  d :     0.135677
      dxz     :     0.027682
      dyz     :     0.039521
      dx2y2   :     0.039928
      dxy     :     0.018720
  1 C s       :     2.875258  s :     2.875258
      pz      :     0.953462  p :     3.015453
      px      :     1.062906
      py      :     0.999085
      dz2     :     0.024322  d :     0.165288
      dxz     :     0.045255
      dyz     :     0.041077
      dx2y2   :     0.040120
      dxy     :     0.014515
  2 C s       :     2.904076  s :     2.904076
      pz      :     0.975927  p :     2.949526
      px      :     1.057416
      py      :     0.916182
      dz2     :     0.015546  d :     0.136937
      dxz     :     0.026881
      dyz     :     0.043839
      dx2y2   :     0.033344
      dxy     :     0.017327
  3 C s       :     2.876326  s :     2.876326
      pz      :     1.044253  p :     2.985932
      px      :     0.928237
      py      :     1.013442
      dz2     :     0.039463  d :     0.168276
      dxz     :     0.032336
      dyz     :     0.021362
      dx2y2   :     0.046302
      dxy     :     0.028813
  4 C s       :     2.870065  s :     2.870065
      pz      :     0.940667  p :     3.000546
      px      :     1.063491
      py      :     0.996388
      dz2     :     0.054815  d :     0.173997
      dxz     :     0.033674
      dyz     :     0.031468
      dx2y2   :     0.035801
      dxy     :     0.018239
  5 O s       :     3.490162  s :     3.490162
      pz      :     1.552433  p :     4.827648
      px      :     1.593300
      py      :     1.681916
      dz2     :     0.009134  d :     0.053567
      dxz     :     0.008641
      dyz     :     0.015704
      dx2y2   :     0.007174
      dxy     :     0.012913
  6 C s       :     2.948278  s :     2.948278
      pz      :     1.130142  p :     2.993645
      px      :     0.920301
      py      :     0.943202
      dz2     :     0.026744  d :     0.122860
      dxz     :     0.028985
      dyz     :     0.010314
      dx2y2   :     0.015931
      dxy     :     0.040886
  7 O s       :     3.496011  s :     3.496011
      pz      :     1.683304  p :     4.820101
      px      :     1.753260
      py      :     1.383537
      dz2     :     0.005019  d :     0.049375
      dxz     :     0.005895
      dyz     :     0.020449
      dx2y2   :     0.008643
      dxy     :     0.009368
  8 O s       :     3.438637  s :     3.438637
      pz      :     1.665866  p :     4.721498
      px      :     1.305129
      py      :     1.750504
      dz2     :     0.010533  d :     0.072696
      dxz     :     0.024126
      dyz     :     0.008384
      dx2y2   :     0.014768
      dxy     :     0.014886
  9 O s       :     3.497996  s :     3.497996
      pz      :     1.352327  p :     4.835180
      px      :     1.829332
      py      :     1.653522
      dz2     :     0.009795  d :     0.050138
      dxz     :     0.009815
      dyz     :     0.017609
      dx2y2   :     0.007036
      dxy     :     0.005883
 10 O s       :     3.419186  s :     3.419186
      pz      :     1.765902  p :     4.680959
      px      :     1.452952
      py      :     1.462105
      dz2     :     0.009895  d :     0.068955
      dxz     :     0.008647
      dyz     :     0.013921
      dx2y2   :     0.019398
      dxy     :     0.017094
 11 C s       :     2.953915  s :     2.953915
      pz      :     1.111347  p :     3.108970
      px      :     0.854953
      py      :     1.142669
      dz2     :     0.020640  d :     0.122882
      dxz     :     0.029395
      dyz     :     0.015076
      dx2y2   :     0.027905
      dxy     :     0.029864
 12 H s       :     0.847421  s :     0.847421
 13 H s       :     0.852021  s :     0.852021
 14 H s       :     0.849812  s :     0.849812
 15 H s       :     0.827204  s :     0.827204
 16 H s       :     0.861269  s :     0.861269
 17 H s       :     0.849499  s :     0.849499
 18 H s       :     0.691213  s :     0.691213
 19 H s       :     0.837180  s :     0.837180
 20 H s       :     0.839597  s :     0.839597
 21 H s       :     0.626045  s :     0.626045
 22 H s       :     0.648878  s :     0.648878
 23 H s       :     0.886206  s :     0.886206
 24 H s       :     0.882043  s :     0.882043
 25 H s       :     0.854387  s :     0.854387
 26 H s       :     0.657498  s :     0.657498


                      *****************************
                      * MAYER POPULATION ANALYSIS *
                      *****************************

  NA   - Mulliken gross atomic population
  ZA   - Total nuclear charge
  QA   - Mulliken gross atomic charge
  VA   - Mayer's total valence
  BVA  - Mayer's bonded valence
  FA   - Mayer's free valence

  ATOM       NA         ZA         QA         VA         BVA        FA
  0 C      6.2130     6.0000    -0.2130     3.5940     3.5940    -0.0000
  1 C      6.0468     6.0000    -0.0468     3.6949     3.6949    -0.0000
  2 C      5.9920     6.0000     0.0080     3.4242     3.4242     0.0000
  3 C      6.0404     6.0000    -0.0404     3.6736     3.6736    -0.0000
  4 C      6.0074     6.0000    -0.0074     3.7307     3.7307    -0.0000
  5 O      8.6195     8.0000    -0.6195     1.8751     1.8751    -0.0000
  6 C      6.2131     6.0000    -0.2131     3.4160     3.4160    -0.0000
  7 O      8.6537     8.0000    -0.6537     1.9110     1.9110     0.0000
  8 O      8.4667     8.0000    -0.4667     1.9814     1.9814     0.0000
  9 O      8.6573     8.0000    -0.6573     1.8461     1.8461    -0.0000
 10 O      8.5824     8.0000    -0.5824     2.0398     2.0398    -0.0000
 11 C      6.4029     6.0000    -0.4029     3.6683     3.6683    -0.0000
 12 H      0.7238     1.0000     0.2762     0.8841     0.8841    -0.0000
 13 H      0.7250     1.0000     0.2750     0.8914     0.8914    -0.0000
 14 H      0.7247     1.0000     0.2753     0.8720     0.8720    -0.0000
 15 H      0.6777     1.0000     0.3223     0.8674     0.8674    -0.0000
 16 H      0.7325     1.0000     0.2675     0.8934     0.8934     0.0000
 17 H      0.7189     1.0000     0.2811     0.8815     0.8815    -0.0000
 18 H      0.5552     1.0000     0.4448     0.8064     0.8064    -0.0000
 19 H      0.7023     1.0000     0.2977     0.8857     0.8857    -0.0000
 20 H      0.7059     1.0000     0.2941     0.8826     0.8826    -0.0000
 21 H      0.4718     1.0000     0.5282     0.7248     0.7248     0.0000
 22 H      0.5205     1.0000     0.4795     0.7526     0.7526     0.0000
 23 H      0.7878     1.0000     0.2122     0.9071     0.9071     0.0000
 24 H      0.7851     1.0000     0.2149     0.9085     0.9085    -0.0000
 25 H      0.7378     1.0000     0.2622     0.9019     0.9019     0.0000
 26 H      0.5357     1.0000     0.4643     0.7671     0.7671    -0.0000

  Mayer bond orders larger than 0.100000
B(  0-C ,  1-C ) :   0.9281 B(  0-C ,  7-O ) :   0.8960 B(  0-C , 12-H ) :   0.8854 
B(  0-C , 13-H ) :   0.9002 B(  1-C ,  2-C ) :   0.9412 B(  1-C ,  9-O ) :   0.9636 
B(  1-C , 14-H ) :   0.8689 B(  2-C ,  3-C ) :   0.9357 B(  2-C , 10-O ) :   0.7476 
B(  2-C , 15-H ) :   0.8659 B(  3-C ,  4-C ) :   0.9052 B(  3-C ,  8-O ) :   0.9596 
B(  3-C , 16-H ) :   0.8778 B(  4-C ,  5-O ) :   1.0759 B(  4-C ,  6-C ) :   0.9012 
B(  4-C , 17-H ) :   0.8815 B(  5-O , 18-H ) :   0.7135 B(  6-C , 10-O ) :   0.7533 
B(  6-C , 19-H ) :   0.8950 B(  6-C , 20-H ) :   0.8818 B(  7-O , 21-H ) :   0.2375 
B(  7-O , 22-H ) :   0.7407 B(  8-O , 11-C ) :   0.9282 B(  9-O , 26-H ) :   0.7535 
B( 10-O , 21-H ) :   0.4878 B( 11-C , 23-H ) :   0.9050 B( 11-C , 24-H ) :   0.9097 
B( 11-C , 25-H ) :   0.9154 

-------
TIMINGS
-------

Total SCF time: 0 days 0 hours 2 min 32 sec 

Total time                  ....     152.976 sec
Sum of individual times     ....     148.378 sec  ( 97.0%)

Fock matrix formation       ....     129.918 sec  ( 84.9%)
  Split-RI-J                ....      10.601 sec  (  8.2% of F)
  Chain of spheres X        ....      80.201 sec  ( 61.7% of F)
  XC integration            ....      25.842 sec  ( 19.9% of F)
    Basis function eval.    ....       7.536 sec  ( 29.2% of XC)
    Density eval.           ....       4.397 sec  ( 17.0% of XC)
    XC-Functional eval.     ....       2.512 sec  (  9.7% of XC)
    XC-Potential eval.      ....       2.736 sec  ( 10.6% of XC)
Diagonalization             ....       0.811 sec  (  0.5%)
Density matrix formation    ....       0.105 sec  (  0.1%)
Population analysis         ....       0.639 sec  (  0.4%)
Initial guess               ....       0.029 sec  (  0.0%)
Orbital Transformation      ....       0.000 sec  (  0.0%)
Orbital Orthonormalization  ....       0.000 sec  (  0.0%)
DIIS solution               ....       4.409 sec  (  2.9%)
SOSCF solution              ....       0.498 sec  (  0.3%)
Grid generation             ....      11.969 sec  (  7.8%)

Maximum memory used throughout the entire SCF-calculation: 73.3 MB


-------------------------------------------------------------------------------
                          DFT DISPERSION CORRECTION                            
                                                                               
                              DFTD3 V3.1  Rev 1                                
                          USING Becke-Johnson damping                          
-------------------------------------------------------------------------------
The PBEh-3c composite method is recognized
Using three-body term ABC
Active option DFTDOPT                   ...         4   

molecular C6(AA) [au] = 5178.073039 


            DFT-D V3
 parameters
 s6 scaling factor         :     1.0000 
 a1 scaling factor         :     0.4860 
 s8 scaling factor         :     0.0000 
 a2 scaling factor         :     4.5000 
 Damping factor alpha9(ATM):    16.0000 
 ad hoc parameters k1-k3   :    16.0000     1.3333    -4.0000 

 Edisp/kcal,au: -9.868390418820  -0.015726279481 
 E6   /kcal   : -10.001522938 
 E8   /kcal   :  -0.000000000 
 E6(ABC)      :   0.133132519 
 % E8         :   0.000000000 
 % E6(ABC)    :  -1.349080379 

-------------------------   ----------------
Dispersion correction           -0.015726279
-------------------------   ----------------

------------------   -----------------
gCP correction             0.095770293
------------------   -----------------

-------------------------   --------------------
FINAL SINGLE POINT ENERGY      -650.196073146878
-------------------------   --------------------


                            ***************************************
                            *     ORCA property calculations      *
                            ***************************************

                                    ---------------------
                                    Active property flags
                                    ---------------------
   (+) Dipole Moment


------------------------------------------------------------------------------
                       ORCA ELECTRIC PROPERTIES CALCULATION
------------------------------------------------------------------------------

Dipole Moment Calculation                       ... on
Quadrupole Moment Calculation                   ... off
Polarizability Calculation                      ... off
GBWName                                         ... pbeh-3c.gbw
Electron density                                ... pbeh-3c.scfp
The origin for moment calculation is the CENTER OF MASS  = (-0.186266,  0.228387 -0.059384)

-------------
DIPOLE MOMENT
-------------
                                X             Y             Z
Electronic contribution:     -3.72991       2.08795      -0.57022
Nuclear contribution   :      2.07547      -2.82142       1.00159
                        -----------------------------------------
Total Dipole Moment    :     -1.65444      -0.73347       0.43137
                        -----------------------------------------
Magnitude (a.u.)       :      1.86044
Magnitude (Debye)      :      4.72887



--------------------
Rotational spectrum 
--------------------
 
Rotational constants in cm-1:     0.049579     0.021925     0.020799 
Rotational constants in MHz :  1486.342308   657.290689   623.534699 

 Dipole components along the rotational axes: 
x,y,z [a.u.] :    -1.659321    -0.739555    -0.401191 
x,y,z [Debye]:    -4.217660    -1.879799    -1.019747 

 

Timings for individual modules:

Sum of individual times         ...      156.766 sec (=   2.613 min)
GTO integral calculation        ...        2.847 sec (=   0.047 min)   1.8 %
SCF iterations                  ...      153.918 sec (=   2.565 min)  98.2 %
                             ****ORCA TERMINATED NORMALLY****
TOTAL RUN TIME: 0 days 0 hours 2 minutes 37 seconds 628 msec
