
                                 *****************
                                 * O   R   C   A *
                                 *****************

                                            #,                                       
                                            ###                                      
                                            ####                                     
                                            #####                                    
                                            ######                                   
                                           ########,                                 
                                     ,,################,,,,,                         
                               ,,#################################,,                 
                          ,,##########################################,,             
                       ,#########################################, ''#####,          
                    ,#############################################,,   '####,        
                  ,##################################################,,,,####,       
                ,###########''''           ''''###############################       
              ,#####''   ,,,,##########,,,,          '''####'''          '####       
            ,##' ,,,,###########################,,,                        '##       
           ' ,,###''''                  '''############,,,                           
         ,,##''                                '''############,,,,        ,,,,,,###''
      ,#''                                            '''#######################'''  
     '                                                          ''''####''''         
             ,#######,   #######,   ,#######,      ##                                
            ,#'     '#,  ##    ##  ,#'     '#,    #''#        ######   ,####,        
            ##       ##  ##   ,#'  ##            #'  '#       #        #'  '#        
            ##       ##  #######   ##           ,######,      #####,   #    #        
            '#,     ,#'  ##    ##  '#,     ,#' ,#      #,         ##   #,  ,#        
             '#######'   ##     ##  '#######'  #'      '#     #####' # '####'        



                  #######################################################
                  #                        -***-                        #
                  #          Department of theory and spectroscopy      #
                  #    Directorship and core code : Frank Neese         #
                  #        Max Planck Institute fuer Kohlenforschung    #
                  #                Kaiser Wilhelm Platz 1               #
                  #                 D-45470 Muelheim/Ruhr               #
                  #                      Germany                        #
                  #                                                     #
                  #                  All rights reserved                #
                  #                        -***-                        #
                  #######################################################


                         Program Version 5.0.3 -  RELEASE  -


 With contributions from (in alphabetic order):
   Daniel Aravena         : Magnetic Suceptibility
   Michael Atanasov       : Ab Initio Ligand Field Theory (pilot matlab implementation)
   Alexander A. Auer      : GIAO ZORA, VPT2 properties, NMR spectrum
   Ute Becker             : Parallelization
   Giovanni Bistoni       : ED, misc. LED, open-shell LED, HFLD
   Martin Brehm           : Molecular dynamics
   Dmytro Bykov           : SCF Hessian
   Vijay G. Chilkuri      : MRCI spin determinant printing, contributions to CSF-ICE
   Dipayan Datta          : RHF DLPNO-CCSD density
   Achintya Kumar Dutta   : EOM-CC, STEOM-CC
   Dmitry Ganyushin       : Spin-Orbit,Spin-Spin,Magnetic field MRCI
   Miquel Garcia          : C-PCM and meta-GGA Hessian, CC/C-PCM, Gaussian charge scheme
   Yang Guo               : DLPNO-NEVPT2, F12-NEVPT2, CIM, IAO-localization
   Andreas Hansen         : Spin unrestricted coupled pair/coupled cluster methods
   Benjamin Helmich-Paris : MC-RPA, TRAH-SCF, COSX integrals
   Lee Huntington         : MR-EOM, pCC
   Robert Izsak           : Overlap fitted RIJCOSX, COSX-SCS-MP3, EOM
   Marcus Kettner         : VPT2
   Christian Kollmar      : KDIIS, OOCD, Brueckner-CCSD(T), CCSD density, CASPT2, CASPT2-K
   Simone Kossmann        : Meta GGA functionals, TD-DFT gradient, OOMP2, MP2 Hessian
   Martin Krupicka        : Initial AUTO-CI
   Lucas Lang             : DCDCAS
   Marvin Lechner         : AUTO-CI (C++ implementation), FIC-MRCC
   Dagmar Lenk            : GEPOL surface, SMD
   Dimitrios Liakos       : Extrapolation schemes; Compound Job, initial MDCI parallelization
   Dimitrios Manganas     : Further ROCIS development; embedding schemes
   Dimitrios Pantazis     : SARC Basis sets
   Anastasios Papadopoulos: AUTO-CI, single reference methods and gradients
   Taras Petrenko         : DFT Hessian,TD-DFT gradient, ASA, ECA, R-Raman, ABS, FL, XAS/XES, NRVS
   Peter Pinski           : DLPNO-MP2, DLPNO-MP2 Gradient
   Christoph Reimann      : Effective Core Potentials
   Marius Retegan         : Local ZFS, SOC
   Christoph Riplinger    : Optimizer, TS searches, QM/MM, DLPNO-CCSD(T), (RO)-DLPNO pert. Triples
   Tobias Risthaus        : Range-separated hybrids, TD-DFT gradient, RPA, STAB
   Michael Roemelt        : Original ROCIS implementation
   Masaaki Saitow         : Open-shell DLPNO-CCSD energy and density
   Barbara Sandhoefer     : DKH picture change effects
   Avijit Sen             : IP-ROCIS
   Kantharuban Sivalingam : CASSCF convergence, NEVPT2, FIC-MRCI
   Bernardo de Souza      : ESD, SOC TD-DFT
   Georgi Stoychev        : AutoAux, RI-MP2 NMR, DLPNO-MP2 response
   Willem Van den Heuvel  : Paramagnetic NMR
   Boris Wezisla          : Elementary symmetry handling
   Frank Wennmohs         : Technical directorship


 We gratefully acknowledge several colleagues who have allowed us to
 interface, adapt or use parts of their codes:
   Stefan Grimme, W. Hujo, H. Kruse, P. Pracht,  : VdW corrections, initial TS optimization,
                  C. Bannwarth, S. Ehlert          DFT functionals, gCP, sTDA/sTD-DF
   Ed Valeev, F. Pavosevic, A. Kumar             : LibInt (2-el integral package), F12 methods
   Garnet Chan, S. Sharma, J. Yang, R. Olivares  : DMRG
   Ulf Ekstrom                                   : XCFun DFT Library
   Mihaly Kallay                                 : mrcc  (arbitrary order and MRCC methods)
   Jiri Pittner, Ondrej Demel                    : Mk-CCSD
   Frank Weinhold                                : gennbo (NPA and NBO analysis)
   Christopher J. Cramer and Donald G. Truhlar   : smd solvation model
   Lars Goerigk                                  : TD-DFT with DH, B97 family of functionals
   V. Asgeirsson, H. Jonsson                     : NEB implementation
   FAccTs GmbH                                   : IRC, NEB, NEB-TS, DLPNO-Multilevel, CI-OPT
                                                   MM, QMMM, 2- and 3-layer-ONIOM, Crystal-QMMM,
                                                   LR-CPCM, SF, NACMEs, symmetry and pop. for TD-DFT,
                                                   nearIR, NL-DFT gradient (VV10), updates on ESD,
                                                   ML-optimized integration grids
   S Lehtola, MJT Oliveira, MAL Marques          : LibXC Library
   Liviu Ungur et al                             : ANISO software


 Your calculation uses the libint2 library for the computation of 2-el integrals
 For citations please refer to: http://libint.valeyev.net

 Your ORCA version has been built with support for libXC version: 5.1.0
 For citations please refer to: https://tddft.org/programs/libxc/

 This ORCA versions uses:
   CBLAS   interface :  Fast vector & matrix operations
   LAPACKE interface :  Fast linear algebra routines
   SCALAPACK package :  Parallel linear algebra routines
   Shared memory     :  Shared parallel matrices
   BLAS/LAPACK       :  OpenBLAS 0.3.15  USE64BITINT DYNAMIC_ARCH NO_AFFINITY Haswell SINGLE_THREADED
        Core in use  :  Haswell
   Copyright (c) 2011-2014, The OpenBLAS Project




***************************************
The coordinates will be read from file: B_G.xyz
***************************************


Your calculation utilizes the geometrical counterpoise correction gCP
Please cite in your paper:
H.Kruse, S. Grimme J.Chem.Phys., 136, (2012), 154101 
   

Your calculation utilizes the atom-pairwise dispersion correction
with the Becke-Johnson damping scheme (D3BJ)
Cite in your paper:
S.Grimme, S.Ehrlich, L.Goerigk, J Comput Chem, (2011), 32, 1456–1465 
S.Grimme, J.Antony, S.Ehrlich and H.Krieg, J.Chem.Phys., 132, (2010), 154104 
   

Your calculation employs the composite approach PBEh-3c.
Please cite in your paper:
S. Grimme, J. G. Brandenburg, C. Bannwarth, A. Hansen J.Chem.Phys., 143, (2015), 054107 
   

================================================================================

----- Orbital basis set information -----
Your calculation utilizes the basis: def2-mSVP

----- AuxJ basis set information -----
Your calculation utilizes the auxiliary basis: def2/J
   F. Weigend, Phys. Chem. Chem. Phys. 8, 1057 (2006).

================================================================================
                                        WARNINGS
                       Please study these warnings very carefully!
================================================================================


INFO   : the flag for use of the SHARK integral package has been found!

================================================================================
                                       INPUT FILE
================================================================================
NAME = pbeh-3c.inp
|  1> ! PBEh-3c def2/J TightSCF DefGrid3
|  2> 
|  3> %maxcore 60000
|  4> 
|  5> %pal
|  6> nprocs 4
|  7> end
|  8> 
|  9> *xyzfile 0 1 B_G.xyz
| 10> 
| 11>                          ****END OF INPUT****
================================================================================

                       ****************************
                       * Single Point Calculation *
                       ****************************

---------------------------------
CARTESIAN COORDINATES (ANGSTROEM)
---------------------------------
  C      0.590548    1.437715   -0.512024
  H     -0.344397    1.997358   -0.555829
  H      0.703646    0.905509   -1.454723
  H      1.405786    2.155942   -0.440925
  C      0.590548    0.483546    0.676489
  H      1.520768   -0.089762    0.686161
  H      0.575510    1.063339    1.600852
  C     -0.590548   -0.483546    0.676489
  H     -1.520768    0.089762    0.686161
  H     -0.575510   -1.063339    1.600852
  C     -0.590548   -1.437715   -0.512024
  H      0.344397   -1.997358   -0.555829
  H     -1.405786   -2.155942   -0.440925
  H     -0.703646   -0.905509   -1.454723

----------------------------
CARTESIAN COORDINATES (A.U.)
----------------------------
  NO LB      ZA    FRAG     MASS         X           Y           Z
   0 C     6.0000    0    12.011    1.115974    2.716887   -0.967586
   1 H     1.0000    0     1.008   -0.650816    3.774459   -1.050365
   2 H     1.0000    0     1.008    1.329698    1.711164   -2.749029
   3 H     1.0000    0     1.008    2.656550    4.074140   -0.833228
   4 C     6.0000    0    12.011    1.115974    0.913770    1.278378
   5 H     1.0000    0     1.008    2.873835   -0.169626    1.296657
   6 H     1.0000    0     1.008    1.087556    2.009419    3.025173
   7 C     6.0000    0    12.011   -1.115974   -0.913770    1.278378
   8 H     1.0000    0     1.008   -2.873835    0.169626    1.296657
   9 H     1.0000    0     1.008   -1.087556   -2.009419    3.025173
  10 C     6.0000    0    12.011   -1.115974   -2.716887   -0.967586
  11 H     1.0000    0     1.008    0.650816   -3.774459   -1.050365
  12 H     1.0000    0     1.008   -2.656550   -4.074140   -0.833228
  13 H     1.0000    0     1.008   -1.329698   -1.711164   -2.749029

--------------------------------
INTERNAL COORDINATES (ANGSTROEM)
--------------------------------
 C      0   0   0     0.000000000000     0.00000000     0.00000000
 H      1   0   0     1.090523414925     0.00000000     0.00000000
 H      1   2   0     1.088446405425   107.77149388     0.00000000
 H      1   2   3     1.088814851699   107.81979299   115.80846387
 C      1   2   3     1.524139495976   110.64630884   237.64550440
 H      5   1   2     1.092741823190   109.59406921   178.26142120
 H      5   1   2     1.091253752722   109.14236195   294.46227831
 C      5   1   2     1.526517178967   113.36659306    56.18475608
 H      8   5   1     1.092741823190   109.04217089   301.31042487
 H      8   5   1     1.091253752722   109.02235842   185.48350326
 C      8   5   1     1.524139495976   113.36659306    63.69395601
 H     11   8   5     1.090523414925   110.64630884    56.18475608
 H     11   8   5     1.088814851699   111.22554133   175.99772682
 H     11   8   5     1.088446405425   111.67049488   296.13861549

---------------------------
INTERNAL COORDINATES (A.U.)
---------------------------
 C      0   0   0     0.000000000000     0.00000000     0.00000000
 H      1   0   0     2.060790596836     0.00000000     0.00000000
 H      1   2   0     2.056865617703   107.77149388     0.00000000
 H      1   2   3     2.057561880258   107.81979299   115.80846387
 C      1   2   3     2.880206237287   110.64630884   237.64550440
 H      5   1   2     2.064982780911   109.59406921   178.26142120
 H      5   1   2     2.062170735259   109.14236195   294.46227831
 C      5   1   2     2.884699406973   113.36659306    56.18475608
 H      8   5   1     2.064982780911   109.04217089   301.31042487
 H      8   5   1     2.062170735259   109.02235842   185.48350326
 C      8   5   1     2.880206237287   113.36659306    63.69395601
 H     11   8   5     2.060790596836   110.64630884    56.18475608
 H     11   8   5     2.057561880258   111.22554133   175.99772682
 H     11   8   5     2.056865617703   111.67049488   296.13861549

---------------------
BASIS SET INFORMATION
---------------------
There are 2 groups of distinct atoms

 Group   1 Type C   : 8s4p1d contracted to 4s2p1d pattern {5111/31/1}
 Group   2 Type H   : 4s contracted to 2s pattern {31}

Atom   0C    basis set group =>   1
Atom   1H    basis set group =>   2
Atom   2H    basis set group =>   2
Atom   3H    basis set group =>   2
Atom   4C    basis set group =>   1
Atom   5H    basis set group =>   2
Atom   6H    basis set group =>   2
Atom   7C    basis set group =>   1
Atom   8H    basis set group =>   2
Atom   9H    basis set group =>   2
Atom  10C    basis set group =>   1
Atom  11H    basis set group =>   2
Atom  12H    basis set group =>   2
Atom  13H    basis set group =>   2
---------------------------------
AUXILIARY/J BASIS SET INFORMATION
---------------------------------
There are 2 groups of distinct atoms

 Group   1 Type C   : 12s5p4d2f1g contracted to 6s4p3d1f1g pattern {711111/2111/211/2/1}
 Group   2 Type H   : 5s2p1d contracted to 3s1p1d pattern {311/2/1}

Atom   0C    basis set group =>   1
Atom   1H    basis set group =>   2
Atom   2H    basis set group =>   2
Atom   3H    basis set group =>   2
Atom   4C    basis set group =>   1
Atom   5H    basis set group =>   2
Atom   6H    basis set group =>   2
Atom   7C    basis set group =>   1
Atom   8H    basis set group =>   2
Atom   9H    basis set group =>   2
Atom  10C    basis set group =>   1
Atom  11H    basis set group =>   2
Atom  12H    basis set group =>   2
Atom  13H    basis set group =>   2


           ************************************************************
           *        Program running with 4 parallel MPI-processes     *
           *              working on a common directory               *
           ************************************************************
------------------------------------------------------------------------------
                           ORCA GTO INTEGRAL CALCULATION
                           -- RI-GTO INTEGRALS CHOSEN --
------------------------------------------------------------------------------
------------------------------------------------------------------------------
                   ___                                                        
                  /   \      - P O W E R E D   B Y -                         
                 /     \                                                     
                 |  |  |   _    _      __       _____    __    __             
                 |  |  |  | |  | |    /  \     |  _  \  |  |  /  |          
                  \  \/   | |  | |   /    \    | | | |  |  | /  /          
                 / \  \   | |__| |  /  /\  \   | |_| |  |  |/  /          
                |  |  |   |  __  | /  /__\  \  |    /   |      \           
                |  |  |   | |  | | |   __   |  |    \   |  |\   \          
                \     /   | |  | | |  |  |  |  | |\  \  |  | \   \       
                 \___/    |_|  |_| |__|  |__|  |_| \__\ |__|  \__/        
                                                                              
                      - O R C A' S   B I G   F R I E N D -                    
                                      &                                       
                       - I N T E G R A L  F E E D E R -                       
                                                                              
 v1 FN, 2020, v2 2021                                                         
------------------------------------------------------------------------------


Reading SHARK input file pbeh-3c.SHARKINP.tmp ... ok
----------------------
SHARK INTEGRAL PACKAGE
----------------------

Number of atoms                             ...     14
Number of basis functions                   ...     80
Number of shells                            ...     48
Maximum angular momentum                    ...      2
Integral batch strategy                     ... SHARK/LIBINT Hybrid
RI-J (if used) integral strategy            ... SPLIT-RIJ (Revised 2003 algorithm where possible)
Printlevel                                  ...      1
Contraction scheme used                     ... SEGMENTED contraction
Coulomb Range Separation                    ... NOT USED
Exchange Range Separation                   ... NOT USED
Finite Nucleus Model                        ... NOT USED
Auxiliary Coulomb fitting basis             ... AVAILABLE
   # of basis functions in Aux-J            ...    306
   # of shells in Aux-J                     ...    110
   Maximum angular momentum in Aux-J        ...      4
Auxiliary J/K fitting basis                 ... NOT available
Auxiliary Correlation fitting basis         ... NOT available
Auxiliary 'external' fitting basis          ... NOT available
Integral threshold                          ...     2.500000e-11
Primitive cut-off                           ...     2.500000e-12
Primitive pair pre-selection threshold      ...     2.500000e-12

Calculating pre-screening integrals         ... done (  0.0 sec) Dimension = 48
Organizing shell pair data                  ... done (  0.0 sec)
Shell pair information
Total number of shell pairs                 ...      1176
Shell pairs after pre-screening             ...      1150
Total number of primitive shell pairs       ...      4360
Primitive shell pairs kept                  ...      3274
          la=0 lb=0:    640 shell pairs
          la=1 lb=0:    288 shell pairs
          la=1 lb=1:     36 shell pairs
          la=2 lb=0:    144 shell pairs
          la=2 lb=1:     32 shell pairs
          la=2 lb=2:     10 shell pairs

Calculating one electron integrals          ... done (  0.0 sec)
Calculating RI/J V-Matrix + Cholesky decomp.... done (  0.0 sec)
Calculating Nuclear repulsion               ... done (  0.0 sec) ENN=    133.114640622930 Eh

SHARK setup successfully completed in   0.2 seconds

Maximum memory used throughout the entire GTOINT-calculation: 9.9 MB


           ************************************************************
           *        Program running with 4 parallel MPI-processes     *
           *              working on a common directory               *
           ************************************************************
-------------------------------------------------------------------------------
                                 ORCA SCF
-------------------------------------------------------------------------------

------------
SCF SETTINGS
------------
Hamiltonian:
 Density Functional     Method          .... DFT(GTOs)
 Exchange Functional    Exchange        .... PBE
   PBE kappa parameter   XKappa         ....  1.024500
   PBE mue parameter    XMuePBE         ....  0.123457
 Correlation Functional Correlation     .... PBE
   PBE beta parameter  CBetaPBE         ....  0.030000
 LDA part of GGA corr.  LDAOpt          .... PW91-LDA
 Gradients option       PostSCFGGA      .... off
 Hybrid DFT is turned on
   Fraction HF Exchange ScalHFX         ....  0.420000
   Scaling of DF-GGA-X  ScalDFX         ....  0.580000
   Scaling of DF-GGA-C  ScalDFC         ....  1.000000
   Scaling of DF-LDA-C  ScalLDAC        ....  1.000000
   Perturbative correction              ....  0.000000
   Density functional embedding theory  .... OFF
 RI-approximation to the Coulomb term is turned on
   Number of AuxJ basis functions       .... 306
   RIJ-ON(X) (HFX calculated with O(N)) .... on
   Number of AuxJ basis functions       .... 306
   RIJ-COSX (HFX calculated with COS-X)).... on


General Settings:
 Integral files         IntName         .... pbeh-3c
 Hartree-Fock type      HFTyp           .... RHF
 Total Charge           Charge          ....    0
 Multiplicity           Mult            ....    1
 Number of Electrons    NEL             ....   34
 Basis Dimension        Dim             ....   80
 Nuclear Repulsion      ENuc            ....    133.1146406229 Eh

Convergence Acceleration:
 DIIS                   CNVDIIS         .... on
   Start iteration      DIISMaxIt       ....    12
   Startup error        DIISStart       ....  0.200000
   # of expansion vecs  DIISMaxEq       ....     5
   Bias factor          DIISBfac        ....   1.050
   Max. coefficient     DIISMaxC        ....  10.000
 Trust-Rad. Augm. Hess. CNVTRAH         .... auto
   Auto Start mean grad. ratio tolernc. ....  1.125000
   Auto Start start iteration           ....    20
   Auto Start num. interpolation iter.  ....    10
   Max. Number of Micro iterations      ....    16
   Max. Number of Macro iterations      .... Maxiter - #DIIS iter
   Number of Davidson start vectors     ....     2
   Converg. threshold I  (grad. norm)   ....   1.000e-05
   Converg. threshold II (energy diff.) ....   1.000e-08
   Grad. Scal. Fac. for Micro threshold ....   0.100
   Minimum threshold for Micro iter.    ....   0.010
   NR start threshold (gradient norm)   ....   0.001
   Initial trust radius                 ....   0.400
   Minimum AH scaling param. (alpha)    ....   1.000
   Maximum AH scaling param. (alpha)    .... 1000.000
   Orbital update algorithm             .... Taylor
   White noise on init. David. guess    .... on
   Maximum white noise                  ....   0.010
   Quad. conv. algorithm                .... NR
   COSX micro iterations for RIJONX calc.... off
 SOSCF                  CNVSOSCF        .... on
   Start iteration      SOSCFMaxIt      ....   150
   Startup grad/error   SOSCFStart      ....  0.003300
 Level Shifting         CNVShift        .... on
   Level shift para.    LevelShift      ....    0.2500
   Turn off err/grad.   ShiftErr        ....    0.0010
 Zerner damping         CNVZerner       .... off
 Static damping         CNVDamp         .... on
   Fraction old density DampFac         ....    0.7000
   Max. Damping (<1)    DampMax         ....    0.9800
   Min. Damping (>=0)   DampMin         ....    0.0000
   Turn off err/grad.   DampErr         ....    0.1000
 Fernandez-Rico         CNVRico         .... off

SCF Procedure:
 Maximum # iterations   MaxIter         ....   125
 SCF integral mode      SCFMode         .... Direct
   Integral package                     .... SHARK and LIBINT hybrid scheme
 Reset frequency        DirectResetFreq ....    20
 Integral Threshold     Thresh          ....  2.500e-11 Eh
 Primitive CutOff       TCut            ....  2.500e-12 Eh

Convergence Tolerance:
 Convergence Check Mode ConvCheckMode   .... Total+1el-Energy
 Convergence forced     ConvForced      .... 0
 Energy Change          TolE            ....  1.000e-08 Eh
 1-El. energy change                    ....  1.000e-05 Eh
 Orbital Gradient       TolG            ....  1.000e-05
 Orbital Rotation angle TolX            ....  1.000e-05
 DIIS Error             TolErr          ....  5.000e-07


Diagonalization of the overlap matrix:
Smallest eigenvalue                        ... 7.245e-03
Time for diagonalization                   ...    0.003 sec
Threshold for overlap eigenvalues          ... 1.000e-08
Number of eigenvalues below threshold      ... 0
Time for construction of square roots      ...    0.003 sec
Total time needed                          ...    0.006 sec

--------------------------------
INITIAL GUESS: MINIMAL BASIS EHT
--------------------------------
The minimal basis has 30 functions
EHT matrix was diagonalized
Basis set overlap was calculated now projecting the orbitals
Using GuessMode=FMatrix for the initial guess
C*T matrix was formed
Effective Fockian was calculated
Effective Fockian was diagonalized
Initial density was built
                      ------------------
                      INITIAL GUESS DONE
                      ------------------
-------------------
DFT GRID GENERATION
-------------------

General Integration Accuracy     IntAcc      ... 4.959
Radial Grid Type                 RadialGrid  ... OptM3 with GC (2021)
Angular Grid (max. ang.)         AngularGrid ... 6 (Lebedev-590)
Angular grid pruning method      GridPruning ... 4 (adaptive)
Weight generation scheme         WeightScheme... Becke
Basis function cutoff            BFCut       ... 1.0000e-11
Integration weight cutoff        WCut        ... 1.0000e-14
Angular grids for H and He will be reduced by one unit
Partially contracted basis set               ... off
Rotationally invariant grid construction     ... off

Total number of grid points                  ...   144630
Total number of batches                      ...     2268
Average number of points per batch           ...       63
Average number of grid points per atom       ...    10331
Time for grid setup =    1.734 sec

--------------------
COSX GRID GENERATION
--------------------

GRIDX 1
-------
General Integration Accuracy     IntAcc      ... 4.020
Radial Grid Type                 RadialGrid  ... OptM3 with GC (2021)
Angular Grid (max. ang.)         AngularGrid ... 2 (Lebedev-110)
Angular grid pruning method      GridPruning ... 4 (adaptive)
Weight generation scheme         WeightScheme... Becke
Basis function cutoff            BFCut       ... 1.0000e-11
Integration weight cutoff        WCut        ... 1.0000e-14
Angular grids for H and He will be reduced by one unit
Partially contracted basis set               ... on
Rotationally invariant grid construction     ... off

Total number of grid points                  ...    14858
Total number of batches                      ...      242
Average number of points per batch           ...       61
Average number of grid points per atom       ...     1061
UseSFitting                                  ... on

GRIDX 2
-------
General Integration Accuracy     IntAcc      ... 4.338
Radial Grid Type                 RadialGrid  ... OptM3 with GC (2021)
Angular Grid (max. ang.)         AngularGrid ... 3 (Lebedev-194)
Angular grid pruning method      GridPruning ... 4 (adaptive)
Weight generation scheme         WeightScheme... Becke
Basis function cutoff            BFCut       ... 1.0000e-11
Integration weight cutoff        WCut        ... 1.0000e-14
Angular grids for H and He will be reduced by one unit
Partially contracted basis set               ... on
Rotationally invariant grid construction     ... off

Total number of grid points                  ...    32474
Total number of batches                      ...      512
Average number of points per batch           ...       63
Average number of grid points per atom       ...     2320
UseSFitting                                  ... on

GRIDX 3
-------
General Integration Accuracy     IntAcc      ... 4.871
Radial Grid Type                 RadialGrid  ... OptM3 with GC (2021)
Angular Grid (max. ang.)         AngularGrid ... 4 (Lebedev-302)
Angular grid pruning method      GridPruning ... 4 (adaptive)
Weight generation scheme         WeightScheme... Becke
Basis function cutoff            BFCut       ... 1.0000e-11
Integration weight cutoff        WCut        ... 1.0000e-14
Angular grids for H and He will be reduced by one unit
Partially contracted basis set               ... on
Rotationally invariant grid construction     ... off

Total number of grid points                  ...    65894
Total number of batches                      ...     1036
Average number of points per batch           ...       63
Average number of grid points per atom       ...     4707
UseSFitting                                  ... on

Time for X-Grid setup             =    0.928 sec

--------------
SCF ITERATIONS
--------------
ITER       Energy         Delta-E        Max-DP      RMS-DP      [F,P]     Damp
               ***  Starting incremental Fock matrix formation  ***
  0   -157.8187817793   0.000000000000 0.02357984  0.00235112  0.4027180 0.7000
  1   -157.9060060127  -0.087224233385 0.01729058  0.00178577  0.2853154 0.7000
                      *** Initiating the SOSCF procedure ***
                      *** Re-Reading the Fockian *** 
                      *** Removing any level shift *** 
ITER      Energy       Delta-E        Grad      Rot      Max-DP    RMS-DP
  2   -157.96831538  -0.0623093650  0.003204  0.003204  0.040596  0.004395
               *** Restarting incremental Fock matrix formation ***
  3   -158.11701561  -0.1487002349  0.007575  0.005748  0.007161  0.000759
  4   -158.11739125  -0.0003756334  0.001923  0.001841  0.003268  0.000232
  5   -158.11749813  -0.0001068877  0.001311  0.000449  0.000560  0.000059
  6   -158.11750424  -0.0000061050  0.000108  0.000056  0.000165  0.000009
  7   -158.11750430  -0.0000000660  0.000037  0.000023  0.000059  0.000004
  8   -158.11750434  -0.0000000335  0.000010  0.000006  0.000010  0.000001
                  ***Gradient check signals convergence***
              ***Rediagonalizing the Fockian in SOSCF/NRSCF***

               *****************************************************
               *                     SUCCESS                       *
               *           SCF CONVERGED AFTER   9 CYCLES          *
               *****************************************************

Old exchange energy                            =    -10.206456626 Eh
New exchange energy                            =    -10.206451593 Eh
Exchange energy change after final integration =      0.000005034 Eh
Total energy after final integration           =   -158.117499306 Eh
Final COS-X integration done in                =     1.684 sec

----------------
TOTAL SCF ENERGY
----------------

Total Energy       :         -158.11749931 Eh           -4302.59590 eV

Components:
Nuclear Repulsion  :          133.11464062 Eh            3622.23352 eV
Electronic Energy  :         -291.23213993 Eh           -7924.82942 eV
One Electron Energy:         -474.66995700 Eh          -12916.42619 eV
Two Electron Energy:          183.43781707 Eh            4991.59677 eV
Max COSX asymmetry :            0.00000065 Eh               0.00002 eV

Virial components:
Potential Energy   :         -314.90458301 Eh           -8568.98934 eV
Kinetic Energy     :          156.78708370 Eh            4266.39345 eV
Virial Ratio       :            2.00848549


DFT components:
N(Alpha)           :       16.999993788193 electrons
N(Beta)            :       16.999993788193 electrons
N(Total)           :       33.999987576386 electrons
E(X)               :      -13.511553319110 Eh       
E(C)               :       -1.421694119152 Eh       
E(XC)              :      -14.933247438262 Eh       
DFET-embed. en.    :        0.000000000000 Eh       

---------------
SCF CONVERGENCE
---------------

  Last Energy change         ...   -1.6538e-09  Tolerance :   1.0000e-08
  Last MAX-Density change    ...    5.5511e-16  Tolerance :   1.0000e-07
  Last RMS-Density change    ...    3.4781e-17  Tolerance :   5.0000e-09
  Last Orbital Gradient      ...    2.1049e-06  Tolerance :   1.0000e-05
  Last Orbital Rotation      ...    1.9428e-06  Tolerance :   1.0000e-05

             **** THE GBW FILE WAS UPDATED (pbeh-3c.gbw) ****
             **** DENSITY pbeh-3c.scfp WAS UPDATED ****
             **** ENERGY FILE WAS UPDATED (pbeh-3c.en.tmp) ****
             **** THE GBW FILE WAS UPDATED (pbeh-3c.gbw) ****
             **** DENSITY pbeh-3c.scfp WAS UPDATED ****
----------------
ORBITAL ENERGIES
----------------

  NO   OCC          E(Eh)            E(eV) 
   0   2.0000     -10.427026      -283.7338 
   1   2.0000     -10.426801      -283.7277 
   2   2.0000     -10.418369      -283.4982 
   3   2.0000     -10.418355      -283.4979 
   4   2.0000      -0.884912       -24.0797 
   5   2.0000      -0.802369       -21.8336 
   6   2.0000      -0.716485       -19.4965 
   7   2.0000      -0.635157       -17.2835 
   8   2.0000      -0.516320       -14.0498 
   9   2.0000      -0.513853       -13.9827 
  10   2.0000      -0.471117       -12.8198 
  11   2.0000      -0.436092       -11.8667 
  12   2.0000      -0.433233       -11.7889 
  13   2.0000      -0.408871       -11.1259 
  14   2.0000      -0.370907       -10.0929 
  15   2.0000      -0.368801       -10.0356 
  16   2.0000      -0.368719       -10.0334 
  17   0.0000       0.139009         3.7826 
  18   0.0000       0.180304         4.9063 
  19   0.0000       0.188289         5.1236 
  20   0.0000       0.203407         5.5350 
  21   0.0000       0.203748         5.5443 
  22   0.0000       0.204812         5.5732 
  23   0.0000       0.225047         6.1238 
  24   0.0000       0.233399         6.3511 
  25   0.0000       0.244207         6.6452 
  26   0.0000       0.261756         7.1227 
  27   0.0000       0.273114         7.4318 
  28   0.0000       0.276415         7.5216 
  29   0.0000       0.305549         8.3144 
  30   0.0000       0.498547        13.5662 
  31   0.0000       0.511243        13.9116 
  32   0.0000       0.516715        14.0605 
  33   0.0000       0.535562        14.5734 
  34   0.0000       0.545113        14.8333 
  35   0.0000       0.602679        16.3997 
  36   0.0000       0.604961        16.4618 
  37   0.0000       0.667536        18.1646 
  38   0.0000       0.694244        18.8913 
  39   0.0000       0.736934        20.0530 
  40   0.0000       0.812725        22.1154 
  41   0.0000       0.820301        22.3215 
  42   0.0000       0.974731        26.5238 
  43   0.0000       1.003521        27.3072 
  44   0.0000       1.014275        27.5998 
  45   0.0000       1.026067        27.9207 
  46   0.0000       1.041355        28.3367 
  47   0.0000       1.065547        28.9950 
  48   0.0000       1.075968        29.2786 
  49   0.0000       1.076579        29.2952 
  50   0.0000       1.079973        29.3876 
  51   0.0000       1.096591        29.8398 
  52   0.0000       1.132523        30.8175 
  53   0.0000       1.300253        35.3817 
  54   0.0000       1.493096        40.6292 
  55   0.0000       1.493594        40.6428 
  56   0.0000       1.527695        41.5707 
  57   0.0000       1.537359        41.8337 
  58   0.0000       1.741961        47.4012 
  59   0.0000       1.773942        48.2714 
  60   0.0000       1.906978        51.8915 
  61   0.0000       1.988624        54.1132 
  62   0.0000       2.014192        54.8089 
  63   0.0000       2.030871        55.2628 
  64   0.0000       2.067231        56.2522 
  65   0.0000       2.168191        58.9995 
  66   0.0000       2.181789        59.3695 
  67   0.0000       2.365944        64.3806 
  68   0.0000       2.368689        64.4553 
  69   0.0000       2.383968        64.8711 
  70   0.0000       2.409732        65.5721 
  71   0.0000       2.490060        67.7580 
  72   0.0000       2.521818        68.6222 
  73   0.0000       2.649081        72.0852 
  74   0.0000       2.690644        73.2162 
  75   0.0000       2.751709        74.8778 
  76   0.0000      13.570556       369.2736 
  77   0.0000      13.786986       375.1630 
  78   0.0000      13.975696       380.2980 
  79   0.0000      14.037517       381.9803 

                    ********************************
                    * MULLIKEN POPULATION ANALYSIS *
                    ********************************

-----------------------
MULLIKEN ATOMIC CHARGES
-----------------------
   0 C :   -0.645478
   1 H :    0.207846
   2 H :    0.213489
   3 H :    0.220359
   4 C :   -0.413617
   5 H :    0.203864
   6 H :    0.213538
   7 C :   -0.413617
   8 H :    0.203864
   9 H :    0.213538
  10 C :   -0.645478
  11 H :    0.207846
  12 H :    0.220359
  13 H :    0.213489
Sum of atomic charges:   -0.0000000

--------------------------------
MULLIKEN REDUCED ORBITAL CHARGES
--------------------------------
  0 C s       :     3.374560  s :     3.374560
      pz      :     1.035910  p :     3.233761
      px      :     1.130924
      py      :     1.066926
      dz2     :     0.011123  d :     0.037158
      dxz     :     0.001674
      dyz     :     0.009103
      dx2y2   :     0.002707
      dxy     :     0.012552
  1 H s       :     0.792154  s :     0.792154
  2 H s       :     0.786511  s :     0.786511
  3 H s       :     0.779641  s :     0.779641
  4 C s       :     3.319468  s :     3.319468
      pz      :     1.026484  p :     3.050010
      px      :     1.023636
      py      :     0.999890
      dz2     :     0.010605  d :     0.044139
      dxz     :     0.002678
      dyz     :     0.012469
      dx2y2   :     0.006157
      dxy     :     0.012229
  5 H s       :     0.796136  s :     0.796136
  6 H s       :     0.786462  s :     0.786462
  7 C s       :     3.319468  s :     3.319468
      pz      :     1.026484  p :     3.050010
      px      :     1.023636
      py      :     0.999890
      dz2     :     0.010605  d :     0.044139
      dxz     :     0.002678
      dyz     :     0.012469
      dx2y2   :     0.006157
      dxy     :     0.012229
  8 H s       :     0.796136  s :     0.796136
  9 H s       :     0.786462  s :     0.786462
 10 C s       :     3.374560  s :     3.374560
      pz      :     1.035910  p :     3.233761
      px      :     1.130924
      py      :     1.066926
      dz2     :     0.011123  d :     0.037158
      dxz     :     0.001674
      dyz     :     0.009103
      dx2y2   :     0.002707
      dxy     :     0.012552
 11 H s       :     0.792154  s :     0.792154
 12 H s       :     0.779641  s :     0.779641
 13 H s       :     0.786511  s :     0.786511


                     *******************************
                     * LOEWDIN POPULATION ANALYSIS *
                     *******************************

----------------------
LOEWDIN ATOMIC CHARGES
----------------------
   0 C :   -0.365316
   1 H :    0.122917
   2 H :    0.123428
   3 H :    0.126782
   4 C :   -0.248079
   5 H :    0.118627
   6 H :    0.121640
   7 C :   -0.248079
   8 H :    0.118627
   9 H :    0.121640
  10 C :   -0.365316
  11 H :    0.122917
  12 H :    0.126782
  13 H :    0.123428

-------------------------------
LOEWDIN REDUCED ORBITAL CHARGES
-------------------------------
  0 C s       :     2.951013  s :     2.951013
      pz      :     1.105381  p :     3.344963
      px      :     1.131606
      py      :     1.107976
      dz2     :     0.020837  d :     0.069340
      dxz     :     0.003524
      dyz     :     0.018334
      dx2y2   :     0.005002
      dxy     :     0.021642
  1 H s       :     0.877083  s :     0.877083
  2 H s       :     0.876572  s :     0.876572
  3 H s       :     0.873218  s :     0.873218
  4 C s       :     2.910723  s :     2.910723
      pz      :     1.085161  p :     3.247495
      px      :     1.087200
      py      :     1.075134
      dz2     :     0.021068  d :     0.089861
      dxz     :     0.005739
      dyz     :     0.025465
      dx2y2   :     0.012553
      dxy     :     0.025036
  5 H s       :     0.881373  s :     0.881373
  6 H s       :     0.878360  s :     0.878360
  7 C s       :     2.910723  s :     2.910723
      pz      :     1.085161  p :     3.247495
      px      :     1.087200
      py      :     1.075134
      dz2     :     0.021068  d :     0.089861
      dxz     :     0.005739
      dyz     :     0.025465
      dx2y2   :     0.012553
      dxy     :     0.025036
  8 H s       :     0.881373  s :     0.881373
  9 H s       :     0.878360  s :     0.878360
 10 C s       :     2.951013  s :     2.951013
      pz      :     1.105381  p :     3.344963
      px      :     1.131606
      py      :     1.107976
      dz2     :     0.020837  d :     0.069340
      dxz     :     0.003524
      dyz     :     0.018334
      dx2y2   :     0.005002
      dxy     :     0.021642
 11 H s       :     0.877083  s :     0.877083
 12 H s       :     0.873218  s :     0.873218
 13 H s       :     0.876572  s :     0.876572


                      *****************************
                      * MAYER POPULATION ANALYSIS *
                      *****************************

  NA   - Mulliken gross atomic population
  ZA   - Total nuclear charge
  QA   - Mulliken gross atomic charge
  VA   - Mayer's total valence
  BVA  - Mayer's bonded valence
  FA   - Mayer's free valence

  ATOM       NA         ZA         QA         VA         BVA        FA
  0 C      6.6455     6.0000    -0.6455     3.7366     3.7366    -0.0000
  1 H      0.7922     1.0000     0.2078     0.9151     0.9151    -0.0000
  2 H      0.7865     1.0000     0.2135     0.9134     0.9134    -0.0000
  3 H      0.7796     1.0000     0.2204     0.9124     0.9124    -0.0000
  4 C      6.4136     6.0000    -0.4136     3.7501     3.7501    -0.0000
  5 H      0.7961     1.0000     0.2039     0.9091     0.9091    -0.0000
  6 H      0.7865     1.0000     0.2135     0.9068     0.9068    -0.0000
  7 C      6.4136     6.0000    -0.4136     3.7501     3.7501    -0.0000
  8 H      0.7961     1.0000     0.2039     0.9091     0.9091    -0.0000
  9 H      0.7865     1.0000     0.2135     0.9068     0.9068    -0.0000
 10 C      6.6455     6.0000    -0.6455     3.7366     3.7366    -0.0000
 11 H      0.7922     1.0000     0.2078     0.9151     0.9151    -0.0000
 12 H      0.7796     1.0000     0.2204     0.9124     0.9124     0.0000
 13 H      0.7865     1.0000     0.2135     0.9134     0.9134    -0.0000

  Mayer bond orders larger than 0.100000
B(  0-C ,  1-H ) :   0.9295 B(  0-C ,  2-H ) :   0.9272 B(  0-C ,  3-H ) :   0.9314 
B(  0-C ,  4-C ) :   0.9903 B(  4-C ,  5-H ) :   0.9204 B(  4-C ,  6-H ) :   0.9255 
B(  4-C ,  7-C ) :   0.9908 B(  7-C ,  8-H ) :   0.9204 B(  7-C ,  9-H ) :   0.9255 
B(  7-C , 10-C ) :   0.9903 B( 10-C , 11-H ) :   0.9295 B( 10-C , 12-H ) :   0.9314 
B( 10-C , 13-H ) :   0.9272 

-------
TIMINGS
-------

Total SCF time: 0 days 0 hours 0 min 36 sec 

Total time                  ....      36.582 sec
Sum of individual times     ....      33.113 sec  ( 90.5%)

Fock matrix formation       ....      27.982 sec  ( 76.5%)
  Split-RI-J                ....       2.126 sec  (  7.6% of F)
  Chain of spheres X        ....       9.241 sec  ( 33.0% of F)
  XC integration            ....       9.083 sec  ( 32.5% of F)
    Basis function eval.    ....       1.307 sec  ( 14.4% of XC)
    Density eval.           ....       0.771 sec  (  8.5% of XC)
    XC-Functional eval.     ....       0.781 sec  (  8.6% of XC)
    XC-Potential eval.      ....       0.385 sec  (  4.2% of XC)
Diagonalization             ....       0.013 sec  (  0.0%)
Density matrix formation    ....       0.053 sec  (  0.1%)
Population analysis         ....       2.000 sec  (  5.5%)
Initial guess               ....       0.007 sec  (  0.0%)
Orbital Transformation      ....       0.000 sec  (  0.0%)
Orbital Orthonormalization  ....       0.000 sec  (  0.0%)
DIIS solution               ....       0.006 sec  (  0.0%)
SOSCF solution              ....       0.390 sec  (  1.1%)
Grid generation             ....       2.662 sec  (  7.3%)

Maximum memory used throughout the entire SCF-calculation: 50.0 MB


-------------------------------------------------------------------------------
                          DFT DISPERSION CORRECTION                            
                                                                               
                              DFTD3 V3.1  Rev 1                                
                          USING Becke-Johnson damping                          
-------------------------------------------------------------------------------
The PBEh-3c composite method is recognized
Using three-body term ABC
Active option DFTDOPT                   ...         4   

molecular C6(AA) [au] = 1198.956464 


            DFT-D V3
 parameters
 s6 scaling factor         :     1.0000 
 a1 scaling factor         :     0.4860 
 s8 scaling factor         :     0.0000 
 a2 scaling factor         :     4.5000 
 Damping factor alpha9(ATM):    16.0000 
 ad hoc parameters k1-k3   :    16.0000     1.3333    -4.0000 

 Edisp/kcal,au: -3.324360433210  -0.005297705000 
 E6   /kcal   :  -3.337933356 
 E8   /kcal   :  -0.000000000 
 E6(ABC)      :   0.013572923 
 % E8         :   0.000000000 
 % E6(ABC)    :  -0.408286748 

-------------------------   ----------------
Dispersion correction           -0.005297705
-------------------------   ----------------

------------------   -----------------
gCP correction             0.017187803
------------------   -----------------

-------------------------   --------------------
FINAL SINGLE POINT ENERGY      -158.105609208102
-------------------------   --------------------


                            ***************************************
                            *     ORCA property calculations      *
                            ***************************************

                                    ---------------------
                                    Active property flags
                                    ---------------------
   (+) Dipole Moment


------------------------------------------------------------------------------
                       ORCA ELECTRIC PROPERTIES CALCULATION
------------------------------------------------------------------------------

Dipole Moment Calculation                       ... on
Quadrupole Moment Calculation                   ... off
Polarizability Calculation                      ... off
GBWName                                         ... pbeh-3c.gbw
Electron density                                ... pbeh-3c.scfp
The origin for moment calculation is the CENTER OF MASS  = (-0.000000,  0.000000  0.117667)

-------------
DIPOLE MOMENT
-------------
                                X             Y             Z
Electronic contribution:     -0.00000      -0.00000       0.92317
Nuclear contribution   :     -0.00000      -0.00000      -0.89277
                        -----------------------------------------
Total Dipole Moment    :     -0.00000      -0.00000       0.03040
                        -----------------------------------------
Magnitude (a.u.)       :      0.03040
Magnitude (Debye)      :      0.07728



--------------------
Rotational spectrum 
--------------------
 
Rotational constants in cm-1:     0.440728     0.162187     0.137484 
Rotational constants in MHz : 13212.689599  4862.245274  4121.676848 

 Dipole components along the rotational axes: 
x,y,z [a.u.] :    -0.000000     0.030405     0.000000 
x,y,z [Debye]:    -0.000000     0.077282     0.000000 

 

Timings for individual modules:

Sum of individual times         ...       37.240 sec (=   0.621 min)
GTO integral calculation        ...        0.427 sec (=   0.007 min)   1.1 %
SCF iterations                  ...       36.813 sec (=   0.614 min)  98.9 %
                             ****ORCA TERMINATED NORMALLY****
TOTAL RUN TIME: 0 days 0 hours 0 minutes 40 seconds 113 msec
