
                                 *****************
                                 * O   R   C   A *
                                 *****************

                                            #,                                       
                                            ###                                      
                                            ####                                     
                                            #####                                    
                                            ######                                   
                                           ########,                                 
                                     ,,################,,,,,                         
                               ,,#################################,,                 
                          ,,##########################################,,             
                       ,#########################################, ''#####,          
                    ,#############################################,,   '####,        
                  ,##################################################,,,,####,       
                ,###########''''           ''''###############################       
              ,#####''   ,,,,##########,,,,          '''####'''          '####       
            ,##' ,,,,###########################,,,                        '##       
           ' ,,###''''                  '''############,,,                           
         ,,##''                                '''############,,,,        ,,,,,,###''
      ,#''                                            '''#######################'''  
     '                                                          ''''####''''         
             ,#######,   #######,   ,#######,      ##                                
            ,#'     '#,  ##    ##  ,#'     '#,    #''#        ######   ,####,        
            ##       ##  ##   ,#'  ##            #'  '#       #        #'  '#        
            ##       ##  #######   ##           ,######,      #####,   #    #        
            '#,     ,#'  ##    ##  '#,     ,#' ,#      #,         ##   #,  ,#        
             '#######'   ##     ##  '#######'  #'      '#     #####' # '####'        



                  #######################################################
                  #                        -***-                        #
                  #          Department of theory and spectroscopy      #
                  #    Directorship and core code : Frank Neese         #
                  #        Max Planck Institute fuer Kohlenforschung    #
                  #                Kaiser Wilhelm Platz 1               #
                  #                 D-45470 Muelheim/Ruhr               #
                  #                      Germany                        #
                  #                                                     #
                  #                  All rights reserved                #
                  #                        -***-                        #
                  #######################################################


                         Program Version 5.0.3 -  RELEASE  -


 With contributions from (in alphabetic order):
   Daniel Aravena         : Magnetic Suceptibility
   Michael Atanasov       : Ab Initio Ligand Field Theory (pilot matlab implementation)
   Alexander A. Auer      : GIAO ZORA, VPT2 properties, NMR spectrum
   Ute Becker             : Parallelization
   Giovanni Bistoni       : ED, misc. LED, open-shell LED, HFLD
   Martin Brehm           : Molecular dynamics
   Dmytro Bykov           : SCF Hessian
   Vijay G. Chilkuri      : MRCI spin determinant printing, contributions to CSF-ICE
   Dipayan Datta          : RHF DLPNO-CCSD density
   Achintya Kumar Dutta   : EOM-CC, STEOM-CC
   Dmitry Ganyushin       : Spin-Orbit,Spin-Spin,Magnetic field MRCI
   Miquel Garcia          : C-PCM and meta-GGA Hessian, CC/C-PCM, Gaussian charge scheme
   Yang Guo               : DLPNO-NEVPT2, F12-NEVPT2, CIM, IAO-localization
   Andreas Hansen         : Spin unrestricted coupled pair/coupled cluster methods
   Benjamin Helmich-Paris : MC-RPA, TRAH-SCF, COSX integrals
   Lee Huntington         : MR-EOM, pCC
   Robert Izsak           : Overlap fitted RIJCOSX, COSX-SCS-MP3, EOM
   Marcus Kettner         : VPT2
   Christian Kollmar      : KDIIS, OOCD, Brueckner-CCSD(T), CCSD density, CASPT2, CASPT2-K
   Simone Kossmann        : Meta GGA functionals, TD-DFT gradient, OOMP2, MP2 Hessian
   Martin Krupicka        : Initial AUTO-CI
   Lucas Lang             : DCDCAS
   Marvin Lechner         : AUTO-CI (C++ implementation), FIC-MRCC
   Dagmar Lenk            : GEPOL surface, SMD
   Dimitrios Liakos       : Extrapolation schemes; Compound Job, initial MDCI parallelization
   Dimitrios Manganas     : Further ROCIS development; embedding schemes
   Dimitrios Pantazis     : SARC Basis sets
   Anastasios Papadopoulos: AUTO-CI, single reference methods and gradients
   Taras Petrenko         : DFT Hessian,TD-DFT gradient, ASA, ECA, R-Raman, ABS, FL, XAS/XES, NRVS
   Peter Pinski           : DLPNO-MP2, DLPNO-MP2 Gradient
   Christoph Reimann      : Effective Core Potentials
   Marius Retegan         : Local ZFS, SOC
   Christoph Riplinger    : Optimizer, TS searches, QM/MM, DLPNO-CCSD(T), (RO)-DLPNO pert. Triples
   Tobias Risthaus        : Range-separated hybrids, TD-DFT gradient, RPA, STAB
   Michael Roemelt        : Original ROCIS implementation
   Masaaki Saitow         : Open-shell DLPNO-CCSD energy and density
   Barbara Sandhoefer     : DKH picture change effects
   Avijit Sen             : IP-ROCIS
   Kantharuban Sivalingam : CASSCF convergence, NEVPT2, FIC-MRCI
   Bernardo de Souza      : ESD, SOC TD-DFT
   Georgi Stoychev        : AutoAux, RI-MP2 NMR, DLPNO-MP2 response
   Willem Van den Heuvel  : Paramagnetic NMR
   Boris Wezisla          : Elementary symmetry handling
   Frank Wennmohs         : Technical directorship


 We gratefully acknowledge several colleagues who have allowed us to
 interface, adapt or use parts of their codes:
   Stefan Grimme, W. Hujo, H. Kruse, P. Pracht,  : VdW corrections, initial TS optimization,
                  C. Bannwarth, S. Ehlert          DFT functionals, gCP, sTDA/sTD-DF
   Ed Valeev, F. Pavosevic, A. Kumar             : LibInt (2-el integral package), F12 methods
   Garnet Chan, S. Sharma, J. Yang, R. Olivares  : DMRG
   Ulf Ekstrom                                   : XCFun DFT Library
   Mihaly Kallay                                 : mrcc  (arbitrary order and MRCC methods)
   Jiri Pittner, Ondrej Demel                    : Mk-CCSD
   Frank Weinhold                                : gennbo (NPA and NBO analysis)
   Christopher J. Cramer and Donald G. Truhlar   : smd solvation model
   Lars Goerigk                                  : TD-DFT with DH, B97 family of functionals
   V. Asgeirsson, H. Jonsson                     : NEB implementation
   FAccTs GmbH                                   : IRC, NEB, NEB-TS, DLPNO-Multilevel, CI-OPT
                                                   MM, QMMM, 2- and 3-layer-ONIOM, Crystal-QMMM,
                                                   LR-CPCM, SF, NACMEs, symmetry and pop. for TD-DFT,
                                                   nearIR, NL-DFT gradient (VV10), updates on ESD,
                                                   ML-optimized integration grids
   S Lehtola, MJT Oliveira, MAL Marques          : LibXC Library
   Liviu Ungur et al                             : ANISO software


 Your calculation uses the libint2 library for the computation of 2-el integrals
 For citations please refer to: http://libint.valeyev.net

 Your ORCA version has been built with support for libXC version: 5.1.0
 For citations please refer to: https://tddft.org/programs/libxc/

 This ORCA versions uses:
   CBLAS   interface :  Fast vector & matrix operations
   LAPACKE interface :  Fast linear algebra routines
   SCALAPACK package :  Parallel linear algebra routines
   Shared memory     :  Shared parallel matrices
   BLAS/LAPACK       :  OpenBLAS 0.3.15  USE64BITINT DYNAMIC_ARCH NO_AFFINITY Haswell SINGLE_THREADED
        Core in use  :  Haswell
   Copyright (c) 2011-2014, The OpenBLAS Project




***************************************
The coordinates will be read from file: E12.xyz
***************************************


Your calculation utilizes the geometrical counterpoise correction gCP
Please cite in your paper:
H.Kruse, S. Grimme J.Chem.Phys., 136, (2012), 154101 
   

Your calculation utilizes the atom-pairwise dispersion correction
with the Becke-Johnson damping scheme (D3BJ)
Cite in your paper:
S.Grimme, S.Ehrlich, L.Goerigk, J Comput Chem, (2011), 32, 1456–1465 
S.Grimme, J.Antony, S.Ehrlich and H.Krieg, J.Chem.Phys., 132, (2010), 154104 
   

Your calculation employs the composite approach PBEh-3c.
Please cite in your paper:
S. Grimme, J. G. Brandenburg, C. Bannwarth, A. Hansen J.Chem.Phys., 143, (2015), 054107 
   

================================================================================

----- Orbital basis set information -----
Your calculation utilizes the basis: def2-mSVP

----- AuxJ basis set information -----
Your calculation utilizes the auxiliary basis: def2/J
   F. Weigend, Phys. Chem. Chem. Phys. 8, 1057 (2006).

================================================================================
                                        WARNINGS
                       Please study these warnings very carefully!
================================================================================


INFO   : the flag for use of the SHARK integral package has been found!

================================================================================
                                       INPUT FILE
================================================================================
NAME = pbeh-3c.inp
|  1> ! PBEh-3c def2/J TightSCF DefGrid3
|  2> 
|  3> %maxcore 60000
|  4> 
|  5> %pal
|  6> nprocs 4
|  7> end
|  8> 
|  9> *xyzfile 0 1 E12.xyz
| 10> 
| 11>                          ****END OF INPUT****
================================================================================

                       ****************************
                       * Single Point Calculation *
                       ****************************

---------------------------------
CARTESIAN COORDINATES (ANGSTROEM)
---------------------------------
  C     -0.594623    0.261916    0.000000
  C      0.791652   -0.318468    0.000000
  O      1.808778    0.328450    0.000000
  H     -0.560413    1.350447    0.000000
  H     -1.141444   -0.096647    0.878040
  H     -1.141444   -0.096647   -0.878040
  H      0.837494   -1.429051    0.000000

----------------------------
CARTESIAN COORDINATES (A.U.)
----------------------------
  NO LB      ZA    FRAG     MASS         X           Y           Z
   0 C     6.0000    0    12.011   -1.123674    0.494949    0.000000
   1 C     6.0000    0    12.011    1.496005   -0.601817    0.000000
   2 O     8.0000    0    15.999    3.418094    0.620680    0.000000
   3 H     1.0000    0     1.008   -1.059027    2.551974    0.000000
   4 H     1.0000    0     1.008   -2.157017   -0.182636    1.659256
   5 H     1.0000    0     1.008   -2.157017   -0.182636   -1.659256
   6 H     1.0000    0     1.008    1.582634   -2.700515    0.000000

--------------------------------
INTERNAL COORDINATES (ANGSTROEM)
--------------------------------
 C      0   0   0     0.000000000000     0.00000000     0.00000000
 C      1   0   0     1.502864804933     0.00000000     0.00000000
 O      2   1   0     1.205424235829   124.82527028     0.00000000
 H      1   2   3     1.089068328356   110.91725927     0.00000000
 H      1   2   3     1.094776385799   109.52690188   238.31743392
 H      1   2   3     1.094776385799   109.52690188   121.68256608
 H      2   1   3     1.111528513108   115.08099974   180.00000000

---------------------------
INTERNAL COORDINATES (A.U.)
---------------------------
 C      0   0   0     0.000000000000     0.00000000     0.00000000
 C      1   0   0     2.840002897633     0.00000000     0.00000000
 O      2   1   0     2.277921680909   124.82527028     0.00000000
 H      1   2   3     2.058040881721   110.91725927     0.00000000
 H      1   2   3     2.068827547044   109.52690188   238.31743392
 H      1   2   3     2.068827547044   109.52690188   121.68256608
 H      2   1   3     2.100484479818   115.08099974   180.00000000

---------------------
BASIS SET INFORMATION
---------------------
There are 3 groups of distinct atoms

 Group   1 Type C   : 8s4p1d contracted to 4s2p1d pattern {5111/31/1}
 Group   2 Type O   : 8s4p1d contracted to 4s2p1d pattern {5111/31/1}
 Group   3 Type H   : 4s contracted to 2s pattern {31}

Atom   0C    basis set group =>   1
Atom   1C    basis set group =>   1
Atom   2O    basis set group =>   2
Atom   3H    basis set group =>   3
Atom   4H    basis set group =>   3
Atom   5H    basis set group =>   3
Atom   6H    basis set group =>   3
---------------------------------
AUXILIARY/J BASIS SET INFORMATION
---------------------------------
There are 3 groups of distinct atoms

 Group   1 Type C   : 12s5p4d2f1g contracted to 6s4p3d1f1g pattern {711111/2111/211/2/1}
 Group   2 Type O   : 12s5p4d2f1g contracted to 6s4p3d1f1g pattern {711111/2111/211/2/1}
 Group   3 Type H   : 5s2p1d contracted to 3s1p1d pattern {311/2/1}

Atom   0C    basis set group =>   1
Atom   1C    basis set group =>   1
Atom   2O    basis set group =>   2
Atom   3H    basis set group =>   3
Atom   4H    basis set group =>   3
Atom   5H    basis set group =>   3
Atom   6H    basis set group =>   3


           ************************************************************
           *        Program running with 4 parallel MPI-processes     *
           *              working on a common directory               *
           ************************************************************
------------------------------------------------------------------------------
                           ORCA GTO INTEGRAL CALCULATION
                           -- RI-GTO INTEGRALS CHOSEN --
------------------------------------------------------------------------------
------------------------------------------------------------------------------
                   ___                                                        
                  /   \      - P O W E R E D   B Y -                         
                 /     \                                                     
                 |  |  |   _    _      __       _____    __    __             
                 |  |  |  | |  | |    /  \     |  _  \  |  |  /  |          
                  \  \/   | |  | |   /    \    | | | |  |  | /  /          
                 / \  \   | |__| |  /  /\  \   | |_| |  |  |/  /          
                |  |  |   |  __  | /  /__\  \  |    /   |      \           
                |  |  |   | |  | | |   __   |  |    \   |  |\   \          
                \     /   | |  | | |  |  |  |  | |\  \  |  | \   \       
                 \___/    |_|  |_| |__|  |__|  |_| \__\ |__|  \__/        
                                                                              
                      - O R C A' S   B I G   F R I E N D -                    
                                      &                                       
                       - I N T E G R A L  F E E D E R -                       
                                                                              
 v1 FN, 2020, v2 2021                                                         
------------------------------------------------------------------------------


Reading SHARK input file pbeh-3c.SHARKINP.tmp ... ok
----------------------
SHARK INTEGRAL PACKAGE
----------------------

Number of atoms                             ...      7
Number of basis functions                   ...     53
Number of shells                            ...     29
Maximum angular momentum                    ...      2
Integral batch strategy                     ... SHARK/LIBINT Hybrid
RI-J (if used) integral strategy            ... SPLIT-RIJ (Revised 2003 algorithm where possible)
Printlevel                                  ...      1
Contraction scheme used                     ... SEGMENTED contraction
Coulomb Range Separation                    ... NOT USED
Exchange Range Separation                   ... NOT USED
Finite Nucleus Model                        ... NOT USED
Auxiliary Coulomb fitting basis             ... AVAILABLE
   # of basis functions in Aux-J            ...    191
   # of shells in Aux-J                     ...     65
   Maximum angular momentum in Aux-J        ...      4
Auxiliary J/K fitting basis                 ... NOT available
Auxiliary Correlation fitting basis         ... NOT available
Auxiliary 'external' fitting basis          ... NOT available
Integral threshold                          ...     2.500000e-11
Primitive cut-off                           ...     2.500000e-12
Primitive pair pre-selection threshold      ...     2.500000e-12

Calculating pre-screening integrals         ... done (  0.1 sec) Dimension = 29
Organizing shell pair data                  ... done (  0.1 sec)
Shell pair information
Total number of shell pairs                 ...       435
Shell pairs after pre-screening             ...       429
Total number of primitive shell pairs       ...      1591
Primitive shell pairs kept                  ...      1288
          la=0 lb=0:    204 shell pairs
          la=1 lb=0:    120 shell pairs
          la=1 lb=1:     21 shell pairs
          la=2 lb=0:     60 shell pairs
          la=2 lb=1:     18 shell pairs
          la=2 lb=2:      6 shell pairs

Calculating one electron integrals          ... done (  0.0 sec)
Calculating RI/J V-Matrix + Cholesky decomp.... done (  0.3 sec)
Calculating Nuclear repulsion               ... done (  0.1 sec) ENN=     69.723340726412 Eh

SHARK setup successfully completed in   1.0 seconds

Maximum memory used throughout the entire GTOINT-calculation: 9.1 MB


           ************************************************************
           *        Program running with 4 parallel MPI-processes     *
           *              working on a common directory               *
           ************************************************************
-------------------------------------------------------------------------------
                                 ORCA SCF
-------------------------------------------------------------------------------

------------
SCF SETTINGS
------------
Hamiltonian:
 Density Functional     Method          .... DFT(GTOs)
 Exchange Functional    Exchange        .... PBE
   PBE kappa parameter   XKappa         ....  1.024500
   PBE mue parameter    XMuePBE         ....  0.123457
 Correlation Functional Correlation     .... PBE
   PBE beta parameter  CBetaPBE         ....  0.030000
 LDA part of GGA corr.  LDAOpt          .... PW91-LDA
 Gradients option       PostSCFGGA      .... off
 Hybrid DFT is turned on
   Fraction HF Exchange ScalHFX         ....  0.420000
   Scaling of DF-GGA-X  ScalDFX         ....  0.580000
   Scaling of DF-GGA-C  ScalDFC         ....  1.000000
   Scaling of DF-LDA-C  ScalLDAC        ....  1.000000
   Perturbative correction              ....  0.000000
   Density functional embedding theory  .... OFF
 RI-approximation to the Coulomb term is turned on
   Number of AuxJ basis functions       .... 191
   RIJ-ON(X) (HFX calculated with O(N)) .... on
   Number of AuxJ basis functions       .... 191
   RIJ-COSX (HFX calculated with COS-X)).... on


General Settings:
 Integral files         IntName         .... pbeh-3c
 Hartree-Fock type      HFTyp           .... RHF
 Total Charge           Charge          ....    0
 Multiplicity           Mult            ....    1
 Number of Electrons    NEL             ....   24
 Basis Dimension        Dim             ....   53
 Nuclear Repulsion      ENuc            ....     69.7233407264 Eh

Convergence Acceleration:
 DIIS                   CNVDIIS         .... on
   Start iteration      DIISMaxIt       ....    12
   Startup error        DIISStart       ....  0.200000
   # of expansion vecs  DIISMaxEq       ....     5
   Bias factor          DIISBfac        ....   1.050
   Max. coefficient     DIISMaxC        ....  10.000
 Trust-Rad. Augm. Hess. CNVTRAH         .... auto
   Auto Start mean grad. ratio tolernc. ....  1.125000
   Auto Start start iteration           ....    20
   Auto Start num. interpolation iter.  ....    10
   Max. Number of Micro iterations      ....    16
   Max. Number of Macro iterations      .... Maxiter - #DIIS iter
   Number of Davidson start vectors     ....     2
   Converg. threshold I  (grad. norm)   ....   1.000e-05
   Converg. threshold II (energy diff.) ....   1.000e-08
   Grad. Scal. Fac. for Micro threshold ....   0.100
   Minimum threshold for Micro iter.    ....   0.010
   NR start threshold (gradient norm)   ....   0.001
   Initial trust radius                 ....   0.400
   Minimum AH scaling param. (alpha)    ....   1.000
   Maximum AH scaling param. (alpha)    .... 1000.000
   Orbital update algorithm             .... Taylor
   White noise on init. David. guess    .... on
   Maximum white noise                  ....   0.010
   Quad. conv. algorithm                .... NR
   COSX micro iterations for RIJONX calc.... off
 SOSCF                  CNVSOSCF        .... on
   Start iteration      SOSCFMaxIt      ....   150
   Startup grad/error   SOSCFStart      ....  0.003300
 Level Shifting         CNVShift        .... on
   Level shift para.    LevelShift      ....    0.2500
   Turn off err/grad.   ShiftErr        ....    0.0010
 Zerner damping         CNVZerner       .... off
 Static damping         CNVDamp         .... on
   Fraction old density DampFac         ....    0.7000
   Max. Damping (<1)    DampMax         ....    0.9800
   Min. Damping (>=0)   DampMin         ....    0.0000
   Turn off err/grad.   DampErr         ....    0.1000
 Fernandez-Rico         CNVRico         .... off

SCF Procedure:
 Maximum # iterations   MaxIter         ....   125
 SCF integral mode      SCFMode         .... Direct
   Integral package                     .... SHARK and LIBINT hybrid scheme
 Reset frequency        DirectResetFreq ....    20
 Integral Threshold     Thresh          ....  2.500e-11 Eh
 Primitive CutOff       TCut            ....  2.500e-12 Eh

Convergence Tolerance:
 Convergence Check Mode ConvCheckMode   .... Total+1el-Energy
 Convergence forced     ConvForced      .... 0
 Energy Change          TolE            ....  1.000e-08 Eh
 1-El. energy change                    ....  1.000e-05 Eh
 Orbital Gradient       TolG            ....  1.000e-05
 Orbital Rotation angle TolX            ....  1.000e-05
 DIIS Error             TolErr          ....  5.000e-07


Diagonalization of the overlap matrix:
Smallest eigenvalue                        ... 8.872e-03
Time for diagonalization                   ...    0.001 sec
Threshold for overlap eigenvalues          ... 1.000e-08
Number of eigenvalues below threshold      ... 0
Time for construction of square roots      ...    0.045 sec
Total time needed                          ...    0.047 sec

--------------------------------
INITIAL GUESS: MINIMAL BASIS EHT
--------------------------------
The minimal basis has 19 functions
EHT matrix was diagonalized
Basis set overlap was calculated now projecting the orbitals
Using GuessMode=FMatrix for the initial guess
C*T matrix was formed
Effective Fockian was calculated
Effective Fockian was diagonalized
Initial density was built
                      ------------------
                      INITIAL GUESS DONE
                      ------------------
-------------------
DFT GRID GENERATION
-------------------

General Integration Accuracy     IntAcc      ... 4.959
Radial Grid Type                 RadialGrid  ... OptM3 with GC (2021)
Angular Grid (max. ang.)         AngularGrid ... 6 (Lebedev-590)
Angular grid pruning method      GridPruning ... 4 (adaptive)
Weight generation scheme         WeightScheme... Becke
Basis function cutoff            BFCut       ... 1.0000e-11
Integration weight cutoff        WCut        ... 1.0000e-14
Angular grids for H and He will be reduced by one unit
Partially contracted basis set               ... off
Rotationally invariant grid construction     ... off

Total number of grid points                  ...    79117
Total number of batches                      ...     1241
Average number of points per batch           ...       63
Average number of grid points per atom       ...    11302
Time for grid setup =    1.216 sec

--------------------
COSX GRID GENERATION
--------------------

GRIDX 1
-------
General Integration Accuracy     IntAcc      ... 4.020
Radial Grid Type                 RadialGrid  ... OptM3 with GC (2021)
Angular Grid (max. ang.)         AngularGrid ... 2 (Lebedev-110)
Angular grid pruning method      GridPruning ... 4 (adaptive)
Weight generation scheme         WeightScheme... Becke
Basis function cutoff            BFCut       ... 1.0000e-11
Integration weight cutoff        WCut        ... 1.0000e-14
Angular grids for H and He will be reduced by one unit
Partially contracted basis set               ... on
Rotationally invariant grid construction     ... off

Total number of grid points                  ...     8726
Total number of batches                      ...      140
Average number of points per batch           ...       62
Average number of grid points per atom       ...     1247
UseSFitting                                  ... on

GRIDX 2
-------
General Integration Accuracy     IntAcc      ... 4.338
Radial Grid Type                 RadialGrid  ... OptM3 with GC (2021)
Angular Grid (max. ang.)         AngularGrid ... 3 (Lebedev-194)
Angular grid pruning method      GridPruning ... 4 (adaptive)
Weight generation scheme         WeightScheme... Becke
Basis function cutoff            BFCut       ... 1.0000e-11
Integration weight cutoff        WCut        ... 1.0000e-14
Angular grids for H and He will be reduced by one unit
Partially contracted basis set               ... on
Rotationally invariant grid construction     ... off

Total number of grid points                  ...    19238
Total number of batches                      ...      303
Average number of points per batch           ...       63
Average number of grid points per atom       ...     2748
UseSFitting                                  ... on

GRIDX 3
-------
General Integration Accuracy     IntAcc      ... 4.871
Radial Grid Type                 RadialGrid  ... OptM3 with GC (2021)
Angular Grid (max. ang.)         AngularGrid ... 4 (Lebedev-302)
Angular grid pruning method      GridPruning ... 4 (adaptive)
Weight generation scheme         WeightScheme... Becke
Basis function cutoff            BFCut       ... 1.0000e-11
Integration weight cutoff        WCut        ... 1.0000e-14
Angular grids for H and He will be reduced by one unit
Partially contracted basis set               ... on
Rotationally invariant grid construction     ... off

Total number of grid points                  ...    37703
Total number of batches                      ...      594
Average number of points per batch           ...       63
Average number of grid points per atom       ...     5386
UseSFitting                                  ... on

Time for X-Grid setup             =    1.527 sec

--------------
SCF ITERATIONS
--------------
ITER       Energy         Delta-E        Max-DP      RMS-DP      [F,P]     Damp
               ***  Starting incremental Fock matrix formation  ***
  0   -152.9331722786   0.000000000000 0.17922330  0.01247115  0.5134910 0.7000
  1   -153.1610741729  -0.227901894340 0.10356051  0.00648975  0.2892554 0.7000
  2   -153.2608977542  -0.099823581277 0.05240491  0.00299436  0.2045096 0.7000
                               ***Turning on DIIS***
  3   -153.3314094575  -0.070511703278 0.02852624  0.00185487  0.1438989 0.7000
  4   -153.3829330276  -0.051523570161 0.02032372  0.00137270  0.1009993 0.7000
  5   -153.4191891047  -0.036256077088 0.05212902  0.00339571  0.0708840 0.0000
  6   -153.5044036551  -0.085214550344 0.00368924  0.00022449  0.0046311 0.0000
                      *** Initiating the SOSCF procedure ***
                           *** Shutting down DIIS ***
                      *** Re-Reading the Fockian *** 
                      *** Removing any level shift *** 
ITER      Energy       Delta-E        Grad      Rot      Max-DP    RMS-DP
  7   -153.50443426  -0.0000306057  0.000755  0.000755  0.002183  0.000125
               *** Restarting incremental Fock matrix formation ***
  8   -153.50444274  -0.0000084805  0.000514  0.001192  0.001342  0.000080
  9   -153.50444404  -0.0000013001  0.000332  0.000304  0.001351  0.000073
 10   -153.50444481  -0.0000007680  0.000102  0.000130  0.000573  0.000028
 11   -153.50444491  -0.0000001005  0.000006  0.000007  0.000020  0.000001
 12   -153.50444491  -0.0000000007  0.000004  0.000002  0.000009  0.000000
                 **** Energy Check signals convergence ****
              ***Rediagonalizing the Fockian in SOSCF/NRSCF***

               *****************************************************
               *                     SUCCESS                       *
               *           SCF CONVERGED AFTER  13 CYCLES          *
               *****************************************************

Old exchange energy                            =     -8.387425019 Eh
New exchange energy                            =     -8.387426804 Eh
Exchange energy change after final integration =     -0.000001785 Eh
Total energy after final integration           =   -153.504446696 Eh
Final COS-X integration done in                =     0.578 sec

----------------
TOTAL SCF ENERGY
----------------

Total Energy       :         -153.50444670 Eh           -4177.06835 eV

Components:
Nuclear Repulsion  :           69.72334073 Eh            1897.26856 eV
Electronic Energy  :         -223.22778742 Eh           -6074.33691 eV
One Electron Energy:         -346.06870379 Eh           -9417.00818 eV
Two Electron Energy:          122.84091636 Eh            3342.67127 eV
Max COSX asymmetry :            0.00000051 Eh               0.00001 eV

Virial components:
Potential Energy   :         -305.90645287 Eh           -8324.13777 eV
Kinetic Energy     :          152.40200617 Eh            4147.06942 eV
Virial Ratio       :            2.00723377


DFT components:
N(Alpha)           :       11.999999629984 electrons
N(Beta)            :       11.999999629984 electrons
N(Total)           :       23.999999259968 electrons
E(X)               :      -11.154749653623 Eh       
E(C)               :       -1.034258172808 Eh       
E(XC)              :      -12.189007826430 Eh       
DFET-embed. en.    :        0.000000000000 Eh       

---------------
SCF CONVERGENCE
---------------

  Last Energy change         ...   -1.7911e-10  Tolerance :   1.0000e-08
  Last MAX-Density change    ...    1.1102e-15  Tolerance :   1.0000e-07
  Last RMS-Density change    ...    4.7253e-17  Tolerance :   5.0000e-09
  Last Orbital Gradient      ...    2.0894e-07  Tolerance :   1.0000e-05
  Last Orbital Rotation      ...    4.7839e-07  Tolerance :   1.0000e-05

             **** THE GBW FILE WAS UPDATED (pbeh-3c.gbw) ****
             **** DENSITY pbeh-3c.scfp WAS UPDATED ****
             **** ENERGY FILE WAS UPDATED (pbeh-3c.en.tmp) ****
             **** THE GBW FILE WAS UPDATED (pbeh-3c.gbw) ****
             **** DENSITY pbeh-3c.scfp WAS UPDATED ****
----------------
ORBITAL ENERGIES
----------------

  NO   OCC          E(Eh)            E(eV) 
   0   2.0000     -19.497687      -530.5590 
   1   2.0000     -10.539414      -286.7920 
   2   2.0000     -10.449097      -284.3344 
   3   2.0000      -1.160695       -31.5841 
   4   2.0000      -0.844086       -22.9687 
   5   2.0000      -0.655144       -17.8274 
   6   2.0000      -0.546733       -14.8774 
   7   2.0000      -0.505000       -13.7417 
   8   2.0000      -0.502282       -13.6678 
   9   2.0000      -0.457113       -12.4387 
  10   2.0000      -0.418789       -11.3958 
  11   2.0000      -0.314029        -8.5452 
  12   0.0000       0.012655         0.3444 
  13   0.0000       0.159543         4.3414 
  14   0.0000       0.180239         4.9045 
  15   0.0000       0.189150         5.1470 
  16   0.0000       0.199837         5.4378 
  17   0.0000       0.277502         7.5512 
  18   0.0000       0.324202         8.8220 
  19   0.0000       0.510319        13.8865 
  20   0.0000       0.534555        14.5460 
  21   0.0000       0.558831        15.2066 
  22   0.0000       0.559553        15.2262 
  23   0.0000       0.617033        16.7903 
  24   0.0000       0.734444        19.9852 
  25   0.0000       0.796738        21.6804 
  26   0.0000       0.954162        25.9641 
  27   0.0000       0.965035        26.2599 
  28   0.0000       0.972967        26.4758 
  29   0.0000       1.034985        28.1634 
  30   0.0000       1.047817        28.5126 
  31   0.0000       1.101419        29.9711 
  32   0.0000       1.179882        32.1062 
  33   0.0000       1.272321        34.6216 
  34   0.0000       1.449756        39.4499 
  35   0.0000       1.586879        43.1812 
  36   0.0000       1.738535        47.3079 
  37   0.0000       1.819671        49.5158 
  38   0.0000       1.856256        50.5113 
  39   0.0000       1.870345        50.8947 
  40   0.0000       2.019283        54.9475 
  41   0.0000       2.113405        57.5087 
  42   0.0000       2.128071        57.9077 
  43   0.0000       2.220041        60.4104 
  44   0.0000       2.371400        64.5291 
  45   0.0000       2.416638        65.7601 
  46   0.0000       2.624532        71.4171 
  47   0.0000       2.656537        72.2880 
  48   0.0000       2.936526        79.9069 
  49   0.0000       2.982681        81.1629 
  50   0.0000      13.587787       369.7425 
  51   0.0000      13.932623       379.1260 
  52   0.0000      25.593204       696.4265 

                    ********************************
                    * MULLIKEN POPULATION ANALYSIS *
                    ********************************

-----------------------
MULLIKEN ATOMIC CHARGES
-----------------------
   0 C :   -0.742937
   1 C :    0.171517
   2 O :   -0.311635
   3 H :    0.255464
   4 H :    0.240066
   5 H :    0.240066
   6 H :    0.147459
Sum of atomic charges:   -0.0000000

--------------------------------
MULLIKEN REDUCED ORBITAL CHARGES
--------------------------------
  0 C s       :     3.411685  s :     3.411685
      pz      :     1.132696  p :     3.297586
      px      :     1.016150
      py      :     1.148740
      dz2     :     0.006808  d :     0.033666
      dxz     :     0.007828
      dyz     :     0.004008
      dx2y2   :     0.009458
      dxy     :     0.005563
  1 C s       :     3.199140  s :     3.199140
      pz      :     0.712301  p :     2.535332
      px      :     0.856890
      py      :     0.966141
      dz2     :     0.005596  d :     0.094011
      dxz     :     0.014501
      dyz     :     0.004023
      dx2y2   :     0.043927
      dxy     :     0.025964
  2 O s       :     3.767985  s :     3.767985
      pz      :     1.293072  p :     4.512590
      px      :     1.521523
      py      :     1.697994
      dz2     :     0.002519  d :     0.031061
      dxz     :     0.009104
      dyz     :     0.003658
      dx2y2   :     0.007703
      dxy     :     0.008078
  3 H s       :     0.744536  s :     0.744536
  4 H s       :     0.759934  s :     0.759934
  5 H s       :     0.759934  s :     0.759934
  6 H s       :     0.852541  s :     0.852541


                     *******************************
                     * LOEWDIN POPULATION ANALYSIS *
                     *******************************

----------------------
LOEWDIN ATOMIC CHARGES
----------------------
   0 C :   -0.409075
   1 C :    0.058769
   2 O :   -0.180270
   3 H :    0.149856
   4 H :    0.150224
   5 H :    0.150224
   6 H :    0.080270

-------------------------------
LOEWDIN REDUCED ORBITAL CHARGES
-------------------------------
  0 C s       :     2.974346  s :     2.974346
      pz      :     1.129788  p :     3.371238
      px      :     1.096085
      py      :     1.145365
      dz2     :     0.012382  d :     0.063490
      dxz     :     0.014761
      dyz     :     0.005688
      dx2y2   :     0.018392
      dxy     :     0.012267
  1 C s       :     2.930824  s :     2.930824
      pz      :     0.722373  p :     2.805565
      px      :     1.031381
      py      :     1.051812
      dz2     :     0.011609  d :     0.204842
      dxz     :     0.027089
      dyz     :     0.006706
      dx2y2   :     0.100066
      dxy     :     0.059371
  2 O s       :     3.525926  s :     3.525926
      pz      :     1.279230  p :     4.595839
      px      :     1.585067
      py      :     1.731541
      dz2     :     0.006252  d :     0.058505
      dxz     :     0.011270
      dyz     :     0.004541
      dx2y2   :     0.017202
      dxy     :     0.019240
  3 H s       :     0.850144  s :     0.850144
  4 H s       :     0.849776  s :     0.849776
  5 H s       :     0.849776  s :     0.849776
  6 H s       :     0.919730  s :     0.919730


                      *****************************
                      * MAYER POPULATION ANALYSIS *
                      *****************************

  NA   - Mulliken gross atomic population
  ZA   - Total nuclear charge
  QA   - Mulliken gross atomic charge
  VA   - Mayer's total valence
  BVA  - Mayer's bonded valence
  FA   - Mayer's free valence

  ATOM       NA         ZA         QA         VA         BVA        FA
  0 C      6.7429     6.0000    -0.7429     3.6475     3.6475    -0.0000
  1 C      5.8285     6.0000     0.1715     3.9179     3.9179    -0.0000
  2 O      8.3116     8.0000    -0.3116     2.2182     2.2182     0.0000
  3 H      0.7445     1.0000     0.2555     0.9071     0.9071    -0.0000
  4 H      0.7599     1.0000     0.2401     0.9042     0.9042     0.0000
  5 H      0.7599     1.0000     0.2401     0.9042     0.9042    -0.0000
  6 H      0.8525     1.0000     0.1475     0.9074     0.9074    -0.0000

  Mayer bond orders larger than 0.100000
B(  0-C ,  1-C ) :   0.9299 B(  0-C ,  3-H ) :   0.9123 B(  0-C ,  4-H ) :   0.9069 
B(  0-C ,  5-H ) :   0.9069 B(  1-C ,  2-O ) :   2.1416 B(  1-C ,  6-H ) :   0.8692 


-------
TIMINGS
-------

Total SCF time: 0 days 0 hours 0 min 28 sec 

Total time                  ....      28.275 sec
Sum of individual times     ....      24.908 sec  ( 88.1%)

Fock matrix formation       ....      20.241 sec  ( 71.6%)
  Split-RI-J                ....       2.391 sec  ( 11.8% of F)
  Chain of spheres X        ....       4.586 sec  ( 22.7% of F)
  XC integration            ....       6.947 sec  ( 34.3% of F)
    Basis function eval.    ....       0.679 sec  (  9.8% of XC)
    Density eval.           ....       0.479 sec  (  6.9% of XC)
    XC-Functional eval.     ....       0.564 sec  (  8.1% of XC)
    XC-Potential eval.      ....       0.241 sec  (  3.5% of XC)
Diagonalization             ....       0.189 sec  (  0.7%)
Density matrix formation    ....       0.108 sec  (  0.4%)
Population analysis         ....       0.888 sec  (  3.1%)
Initial guess               ....       0.003 sec  (  0.0%)
Orbital Transformation      ....       0.000 sec  (  0.0%)
Orbital Orthonormalization  ....       0.000 sec  (  0.0%)
DIIS solution               ....       0.331 sec  (  1.2%)
SOSCF solution              ....       0.404 sec  (  1.4%)
Grid generation             ....       2.743 sec  (  9.7%)

Maximum memory used throughout the entire SCF-calculation: 45.9 MB


-------------------------------------------------------------------------------
                          DFT DISPERSION CORRECTION                            
                                                                               
                              DFTD3 V3.1  Rev 1                                
                          USING Becke-Johnson damping                          
-------------------------------------------------------------------------------
The PBEh-3c composite method is recognized
Using three-body term ABC
Active option DFTDOPT                   ...         4   

molecular C6(AA) [au] = 395.058518 


            DFT-D V3
 parameters
 s6 scaling factor         :     1.0000 
 a1 scaling factor         :     0.4860 
 s8 scaling factor         :     0.0000 
 a2 scaling factor         :     4.5000 
 Damping factor alpha9(ATM):    16.0000 
 ad hoc parameters k1-k3   :    16.0000     1.3333    -4.0000 

 Edisp/kcal,au: -1.117055100475  -0.001780140424 
 E6   /kcal   :  -1.117773316 
 E8   /kcal   :  -0.000000000 
 E6(ABC)      :   0.000718216 
 % E8         :   0.000000000 
 % E6(ABC)    :  -0.064295446 

-------------------------   ----------------
Dispersion correction           -0.001780140
-------------------------   ----------------

------------------   -----------------
gCP correction             0.010526047
------------------   -----------------

-------------------------   --------------------
FINAL SINGLE POINT ENERGY      -153.495700788556
-------------------------   --------------------


                            ***************************************
                            *     ORCA property calculations      *
                            ***************************************

                                    ---------------------
                                    Active property flags
                                    ---------------------
   (+) Dipole Moment


------------------------------------------------------------------------------
                       ORCA ELECTRIC PROPERTIES CALCULATION
------------------------------------------------------------------------------

Dipole Moment Calculation                       ... on
Quadrupole Moment Calculation                   ... off
Polarizability Calculation                      ... off
GBWName                                         ... pbeh-3c.gbw
Electron density                                ... pbeh-3c.scfp
The origin for moment calculation is the CENTER OF MASS  = ( 1.256156,  0.184522  0.000000)

-------------
DIPOLE MOMENT
-------------
                                X             Y             Z
Electronic contribution:      3.35273       0.19323       0.00000
Nuclear contribution   :     -4.35941      -0.61811       0.00000
                        -----------------------------------------
Total Dipole Moment    :     -1.00668      -0.42488       0.00000
                        -----------------------------------------
Magnitude (a.u.)       :      1.09267
Magnitude (Debye)      :      2.77734



--------------------
Rotational spectrum 
--------------------
 
Rotational constants in cm-1:     1.911739     0.338121     0.303379 
Rotational constants in MHz : 57312.488666 10136.618154  9095.073600 

 Dipole components along the rotational axes: 
x,y,z [a.u.] :     1.006677    -0.424880     0.000000 
x,y,z [Debye]:     2.558770    -1.079959     0.000000 

 

Timings for individual modules:

Sum of individual times         ...       30.234 sec (=   0.504 min)
GTO integral calculation        ...        1.486 sec (=   0.025 min)   4.9 %
SCF iterations                  ...       28.748 sec (=   0.479 min)  95.1 %
                             ****ORCA TERMINATED NORMALLY****
TOTAL RUN TIME: 0 days 0 hours 0 minutes 37 seconds 302 msec
