
                                 *****************
                                 * O   R   C   A *
                                 *****************

                                            #,                                       
                                            ###                                      
                                            ####                                     
                                            #####                                    
                                            ######                                   
                                           ########,                                 
                                     ,,################,,,,,                         
                               ,,#################################,,                 
                          ,,##########################################,,             
                       ,#########################################, ''#####,          
                    ,#############################################,,   '####,        
                  ,##################################################,,,,####,       
                ,###########''''           ''''###############################       
              ,#####''   ,,,,##########,,,,          '''####'''          '####       
            ,##' ,,,,###########################,,,                        '##       
           ' ,,###''''                  '''############,,,                           
         ,,##''                                '''############,,,,        ,,,,,,###''
      ,#''                                            '''#######################'''  
     '                                                          ''''####''''         
             ,#######,   #######,   ,#######,      ##                                
            ,#'     '#,  ##    ##  ,#'     '#,    #''#        ######   ,####,        
            ##       ##  ##   ,#'  ##            #'  '#       #        #'  '#        
            ##       ##  #######   ##           ,######,      #####,   #    #        
            '#,     ,#'  ##    ##  '#,     ,#' ,#      #,         ##   #,  ,#        
             '#######'   ##     ##  '#######'  #'      '#     #####' # '####'        



                  #######################################################
                  #                        -***-                        #
                  #          Department of theory and spectroscopy      #
                  #    Directorship and core code : Frank Neese         #
                  #        Max Planck Institute fuer Kohlenforschung    #
                  #                Kaiser Wilhelm Platz 1               #
                  #                 D-45470 Muelheim/Ruhr               #
                  #                      Germany                        #
                  #                                                     #
                  #                  All rights reserved                #
                  #                        -***-                        #
                  #######################################################


                         Program Version 5.0.3 -  RELEASE  -


 With contributions from (in alphabetic order):
   Daniel Aravena         : Magnetic Suceptibility
   Michael Atanasov       : Ab Initio Ligand Field Theory (pilot matlab implementation)
   Alexander A. Auer      : GIAO ZORA, VPT2 properties, NMR spectrum
   Ute Becker             : Parallelization
   Giovanni Bistoni       : ED, misc. LED, open-shell LED, HFLD
   Martin Brehm           : Molecular dynamics
   Dmytro Bykov           : SCF Hessian
   Vijay G. Chilkuri      : MRCI spin determinant printing, contributions to CSF-ICE
   Dipayan Datta          : RHF DLPNO-CCSD density
   Achintya Kumar Dutta   : EOM-CC, STEOM-CC
   Dmitry Ganyushin       : Spin-Orbit,Spin-Spin,Magnetic field MRCI
   Miquel Garcia          : C-PCM and meta-GGA Hessian, CC/C-PCM, Gaussian charge scheme
   Yang Guo               : DLPNO-NEVPT2, F12-NEVPT2, CIM, IAO-localization
   Andreas Hansen         : Spin unrestricted coupled pair/coupled cluster methods
   Benjamin Helmich-Paris : MC-RPA, TRAH-SCF, COSX integrals
   Lee Huntington         : MR-EOM, pCC
   Robert Izsak           : Overlap fitted RIJCOSX, COSX-SCS-MP3, EOM
   Marcus Kettner         : VPT2
   Christian Kollmar      : KDIIS, OOCD, Brueckner-CCSD(T), CCSD density, CASPT2, CASPT2-K
   Simone Kossmann        : Meta GGA functionals, TD-DFT gradient, OOMP2, MP2 Hessian
   Martin Krupicka        : Initial AUTO-CI
   Lucas Lang             : DCDCAS
   Marvin Lechner         : AUTO-CI (C++ implementation), FIC-MRCC
   Dagmar Lenk            : GEPOL surface, SMD
   Dimitrios Liakos       : Extrapolation schemes; Compound Job, initial MDCI parallelization
   Dimitrios Manganas     : Further ROCIS development; embedding schemes
   Dimitrios Pantazis     : SARC Basis sets
   Anastasios Papadopoulos: AUTO-CI, single reference methods and gradients
   Taras Petrenko         : DFT Hessian,TD-DFT gradient, ASA, ECA, R-Raman, ABS, FL, XAS/XES, NRVS
   Peter Pinski           : DLPNO-MP2, DLPNO-MP2 Gradient
   Christoph Reimann      : Effective Core Potentials
   Marius Retegan         : Local ZFS, SOC
   Christoph Riplinger    : Optimizer, TS searches, QM/MM, DLPNO-CCSD(T), (RO)-DLPNO pert. Triples
   Tobias Risthaus        : Range-separated hybrids, TD-DFT gradient, RPA, STAB
   Michael Roemelt        : Original ROCIS implementation
   Masaaki Saitow         : Open-shell DLPNO-CCSD energy and density
   Barbara Sandhoefer     : DKH picture change effects
   Avijit Sen             : IP-ROCIS
   Kantharuban Sivalingam : CASSCF convergence, NEVPT2, FIC-MRCI
   Bernardo de Souza      : ESD, SOC TD-DFT
   Georgi Stoychev        : AutoAux, RI-MP2 NMR, DLPNO-MP2 response
   Willem Van den Heuvel  : Paramagnetic NMR
   Boris Wezisla          : Elementary symmetry handling
   Frank Wennmohs         : Technical directorship


 We gratefully acknowledge several colleagues who have allowed us to
 interface, adapt or use parts of their codes:
   Stefan Grimme, W. Hujo, H. Kruse, P. Pracht,  : VdW corrections, initial TS optimization,
                  C. Bannwarth, S. Ehlert          DFT functionals, gCP, sTDA/sTD-DF
   Ed Valeev, F. Pavosevic, A. Kumar             : LibInt (2-el integral package), F12 methods
   Garnet Chan, S. Sharma, J. Yang, R. Olivares  : DMRG
   Ulf Ekstrom                                   : XCFun DFT Library
   Mihaly Kallay                                 : mrcc  (arbitrary order and MRCC methods)
   Jiri Pittner, Ondrej Demel                    : Mk-CCSD
   Frank Weinhold                                : gennbo (NPA and NBO analysis)
   Christopher J. Cramer and Donald G. Truhlar   : smd solvation model
   Lars Goerigk                                  : TD-DFT with DH, B97 family of functionals
   V. Asgeirsson, H. Jonsson                     : NEB implementation
   FAccTs GmbH                                   : IRC, NEB, NEB-TS, DLPNO-Multilevel, CI-OPT
                                                   MM, QMMM, 2- and 3-layer-ONIOM, Crystal-QMMM,
                                                   LR-CPCM, SF, NACMEs, symmetry and pop. for TD-DFT,
                                                   nearIR, NL-DFT gradient (VV10), updates on ESD,
                                                   ML-optimized integration grids
   S Lehtola, MJT Oliveira, MAL Marques          : LibXC Library
   Liviu Ungur et al                             : ANISO software


 Your calculation uses the libint2 library for the computation of 2-el integrals
 For citations please refer to: http://libint.valeyev.net

 Your ORCA version has been built with support for libXC version: 5.1.0
 For citations please refer to: https://tddft.org/programs/libxc/

 This ORCA versions uses:
   CBLAS   interface :  Fast vector & matrix operations
   LAPACKE interface :  Fast linear algebra routines
   SCALAPACK package :  Parallel linear algebra routines
   Shared memory     :  Shared parallel matrices
   BLAS/LAPACK       :  OpenBLAS 0.3.15  USE64BITINT DYNAMIC_ARCH NO_AFFINITY Haswell SINGLE_THREADED
        Core in use  :  Haswell
   Copyright (c) 2011-2014, The OpenBLAS Project




***************************************
The coordinates will be read from file: c4.xyz
***************************************


Your calculation utilizes the geometrical counterpoise correction gCP
Please cite in your paper:
H.Kruse, S. Grimme J.Chem.Phys., 136, (2012), 154101 
   

Your calculation utilizes the atom-pairwise dispersion correction
with the Becke-Johnson damping scheme (D3BJ)
Cite in your paper:
S.Grimme, S.Ehrlich, L.Goerigk, J Comput Chem, (2011), 32, 1456–1465 
S.Grimme, J.Antony, S.Ehrlich and H.Krieg, J.Chem.Phys., 132, (2010), 154104 
   

Your calculation employs the composite approach PBEh-3c.
Please cite in your paper:
S. Grimme, J. G. Brandenburg, C. Bannwarth, A. Hansen J.Chem.Phys., 143, (2015), 054107 
   

================================================================================

----- Orbital basis set information -----
Your calculation utilizes the basis: def2-mSVP

----- AuxJ basis set information -----
Your calculation utilizes the auxiliary basis: def2/J
   F. Weigend, Phys. Chem. Chem. Phys. 8, 1057 (2006).

================================================================================
                                        WARNINGS
                       Please study these warnings very carefully!
================================================================================


INFO   : the flag for use of the SHARK integral package has been found!

================================================================================
                                       INPUT FILE
================================================================================
NAME = pbeh-3c.inp
|  1> ! PBEh-3c def2/J TightSCF DefGrid3
|  2> 
|  3> %maxcore 60000
|  4> 
|  5> %pal
|  6> nprocs 4
|  7> end
|  8> 
|  9> *xyzfile 0 1 c4.xyz
| 10> 
| 11>                          ****END OF INPUT****
================================================================================

                       ****************************
                       * Single Point Calculation *
                       ****************************

---------------------------------
CARTESIAN COORDINATES (ANGSTROEM)
---------------------------------
  C     -0.893958   -0.893958   -0.893958
  C      0.893958    0.893958   -0.893958
  C     -0.893958    0.893958    0.893958
  C      0.893958   -0.893958    0.893958
  C     -1.756281    0.000000    0.000000
  C      0.000000    0.000000   -1.756281
  C      0.000000    1.756281    0.000000
  C      0.000000   -1.756281    0.000000
  C      1.756281    0.000000    0.000000
  C      0.000000    0.000000    1.756281
  H     -2.406936   -0.623881    0.623881
  H      0.623881   -0.623881   -2.406936
  H      0.623881    2.406936    0.623881
  H     -0.623881   -2.406936    0.623881
  H      2.406936   -0.623881   -0.623881
  H      0.623881    0.623881    2.406936
  H     -0.623881   -0.623881    2.406936
  H      0.623881   -2.406936   -0.623881
  H      2.406936    0.623881    0.623881
  H     -2.406936    0.623881   -0.623881
  H     -0.623881    0.623881   -2.406936
  H     -0.623881    2.406936   -0.623881
  C     -1.771950   -1.771950   -1.771950
  C      1.771950    1.771950   -1.771950
  C     -1.771950    1.771950    1.771950
  C      1.771950   -1.771950    1.771950
  H      1.162538    2.412367   -2.412367
  H     -2.412367    2.412367    1.162538
  H     -2.412367   -1.162538   -2.412367
  H      2.412367    1.162538   -2.412367
  H     -1.162538    2.412367    2.412367
  H     -2.412367   -2.412367   -1.162538
  H      2.412367    2.412367   -1.162538
  H     -2.412367    1.162538    2.412367
  H     -1.162538   -2.412367   -2.412367
  H      1.162538   -2.412367    2.412367
  H      2.412367   -2.412367    1.162538
  H      2.412367   -1.162538    2.412367

----------------------------
CARTESIAN COORDINATES (A.U.)
----------------------------
  NO LB      ZA    FRAG     MASS         X           Y           Z
   0 C     6.0000    0    12.011   -1.689337   -1.689337   -1.689337
   1 C     6.0000    0    12.011    1.689337    1.689337   -1.689337
   2 C     6.0000    0    12.011   -1.689337    1.689337    1.689337
   3 C     6.0000    0    12.011    1.689337   -1.689337    1.689337
   4 C     6.0000    0    12.011   -3.318890    0.000000    0.000000
   5 C     6.0000    0    12.011    0.000000    0.000000   -3.318890
   6 C     6.0000    0    12.011    0.000000    3.318890    0.000000
   7 C     6.0000    0    12.011    0.000000   -3.318890    0.000000
   8 C     6.0000    0    12.011    3.318890    0.000000    0.000000
   9 C     6.0000    0    12.011    0.000000    0.000000    3.318890
  10 H     1.0000    0     1.008   -4.548450   -1.178964    1.178964
  11 H     1.0000    0     1.008    1.178964   -1.178964   -4.548450
  12 H     1.0000    0     1.008    1.178964    4.548450    1.178964
  13 H     1.0000    0     1.008   -1.178964   -4.548450    1.178964
  14 H     1.0000    0     1.008    4.548450   -1.178964   -1.178964
  15 H     1.0000    0     1.008    1.178964    1.178964    4.548450
  16 H     1.0000    0     1.008   -1.178964   -1.178964    4.548450
  17 H     1.0000    0     1.008    1.178964   -4.548450   -1.178964
  18 H     1.0000    0     1.008    4.548450    1.178964    1.178964
  19 H     1.0000    0     1.008   -4.548450    1.178964   -1.178964
  20 H     1.0000    0     1.008   -1.178964    1.178964   -4.548450
  21 H     1.0000    0     1.008   -1.178964    4.548450   -1.178964
  22 C     6.0000    0    12.011   -3.348500   -3.348500   -3.348500
  23 C     6.0000    0    12.011    3.348500    3.348500   -3.348500
  24 C     6.0000    0    12.011   -3.348500    3.348500    3.348500
  25 C     6.0000    0    12.011    3.348500   -3.348500    3.348500
  26 H     1.0000    0     1.008    2.196877    4.558713   -4.558713
  27 H     1.0000    0     1.008   -4.558713    4.558713    2.196877
  28 H     1.0000    0     1.008   -4.558713   -2.196877   -4.558713
  29 H     1.0000    0     1.008    4.558713    2.196877   -4.558713
  30 H     1.0000    0     1.008   -2.196877    4.558713    4.558713
  31 H     1.0000    0     1.008   -4.558713   -4.558713   -2.196877
  32 H     1.0000    0     1.008    4.558713    4.558713   -2.196877
  33 H     1.0000    0     1.008   -4.558713    2.196877    4.558713
  34 H     1.0000    0     1.008   -2.196877   -4.558713   -4.558713
  35 H     1.0000    0     1.008    2.196877   -4.558713    4.558713
  36 H     1.0000    0     1.008    4.558713   -4.558713    2.196877
  37 H     1.0000    0     1.008    4.558713   -2.196877    4.558713

--------------------------------
INTERNAL COORDINATES (ANGSTROEM)
--------------------------------
 C      0   0   0     0.000000000000     0.00000000     0.00000000
 C      1   0   0     2.528496186955     0.00000000     0.00000000
 C      1   2   0     2.528496186955    60.00000000     0.00000000
 C      1   2   3     2.528496186955    60.00000000   289.47122063
 C      1   2   3     1.530334386945    89.16243801    18.98761381
 C      1   2   3     1.530334386945    34.29724492   144.73561032
 C      2   1   3     1.530334386945    89.16243801   341.01238619
 C      1   2   3     1.530334386945    89.16243801   270.48360683
 C      2   1   3     1.530334386945    89.16243801    89.51639317
 C      3   1   2     1.530334386945    89.16243801   270.48360683
 H      5   1   2     1.096269563003   109.53843432   208.64549077
 H      6   1   2     1.096269563003   109.53843432   121.35097441
 H      7   2   1     1.096269563003   109.53843432   151.35450923
 H      8   1   2     1.096269563003   109.53843432   151.35450923
 H      9   2   1     1.096269563003   109.53843432    91.34743959
 H     10   3   1     1.096269563003   109.53843432   151.35450923
 H     10   3   1     1.096269563003   109.53843432   268.65256041
 H      8   1   2     1.096269563003   109.53843432   268.65256041
 H      9   2   1     1.096269563003   109.53843432   208.64549077
 H      5   1   2     1.096269563003   109.53843432    91.34743959
 H      6   1   2     1.096269563003   109.53843432   238.64902559
 H      7   2   1     1.096269563003   109.53843432   268.65256041
 C      1   2   3     1.520725713409   144.73561032   144.73561032
 C      2   1   3     1.520725713409   144.73561032   215.26438968
 C      3   1   2     1.520725713409   144.73561032   144.73561032
 C      4   1   2     1.520725713409   144.73561032   215.26438968
 H     24   2   1     1.091627784169   110.80004900    60.00000000
 H     25   3   1     1.091627784169   110.80004900   300.00000000
 H     23   1   2     1.091627784169   110.80004900   300.00000000
 H     24   2   1     1.091627784169   110.80004900   300.00000000
 H     25   3   1     1.091627784169   110.80004900   180.00000000
 H     23   1   2     1.091627784169   110.80004900   180.00000000
 H     24   2   1     1.091627784169   110.80004900   180.00000000
 H     25   3   1     1.091627784169   110.80004900    60.00000000
 H     23   1   2     1.091627784169   110.80004900    60.00000000
 H     26   4   1     1.091627784169   110.80004900   300.00000000
 H     26   4   1     1.091627784169   110.80004900    60.00000000
 H     26   4   1     1.091627784169   110.80004900   180.00000000

---------------------------
INTERNAL COORDINATES (A.U.)
---------------------------
 C      0   0   0     0.000000000000     0.00000000     0.00000000
 C      1   0   0     4.778165324009     0.00000000     0.00000000
 C      1   2   0     4.778165324009    60.00000000     0.00000000
 C      1   2   3     4.778165324009    60.00000000   289.47122063
 C      1   2   3     2.891912884649    89.16243801    18.98761381
 C      1   2   3     2.891912884649    34.29724492   144.73561032
 C      2   1   3     2.891912884649    89.16243801   341.01238619
 C      1   2   3     2.891912884649    89.16243801   270.48360683
 C      2   1   3     2.891912884649    89.16243801    89.51639317
 C      3   1   2     2.891912884649    89.16243801   270.48360683
 H      5   1   2     2.071649243029   109.53843432   208.64549077
 H      6   1   2     2.071649243029   109.53843432   121.35097441
 H      7   2   1     2.071649243029   109.53843432   151.35450923
 H      8   1   2     2.071649243029   109.53843432   151.35450923
 H      9   2   1     2.071649243029   109.53843432    91.34743959
 H     10   3   1     2.071649243029   109.53843432   151.35450923
 H     10   3   1     2.071649243029   109.53843432   268.65256041
 H      8   1   2     2.071649243029   109.53843432   268.65256041
 H      9   2   1     2.071649243029   109.53843432   208.64549077
 H      5   1   2     2.071649243029   109.53843432    91.34743959
 H      6   1   2     2.071649243029   109.53843432   238.64902559
 H      7   2   1     2.071649243029   109.53843432   268.65256041
 C      1   2   3     2.873755123154   144.73561032   144.73561032
 C      2   1   3     2.873755123154   144.73561032   215.26438968
 C      3   1   2     2.873755123154   144.73561032   144.73561032
 C      4   1   2     2.873755123154   144.73561032   215.26438968
 H     24   2   1     2.062877552258   110.80004900    60.00000000
 H     25   3   1     2.062877552258   110.80004900   300.00000000
 H     23   1   2     2.062877552258   110.80004900   300.00000000
 H     24   2   1     2.062877552258   110.80004900   300.00000000
 H     25   3   1     2.062877552258   110.80004900   180.00000000
 H     23   1   2     2.062877552258   110.80004900   180.00000000
 H     24   2   1     2.062877552258   110.80004900   180.00000000
 H     25   3   1     2.062877552258   110.80004900    60.00000000
 H     23   1   2     2.062877552258   110.80004900    60.00000000
 H     26   4   1     2.062877552258   110.80004900   300.00000000
 H     26   4   1     2.062877552258   110.80004900    60.00000000
 H     26   4   1     2.062877552258   110.80004900   180.00000000

---------------------
BASIS SET INFORMATION
---------------------
There are 2 groups of distinct atoms

 Group   1 Type C   : 8s4p1d contracted to 4s2p1d pattern {5111/31/1}
 Group   2 Type H   : 4s contracted to 2s pattern {31}

Atom   0C    basis set group =>   1
Atom   1C    basis set group =>   1
Atom   2C    basis set group =>   1
Atom   3C    basis set group =>   1
Atom   4C    basis set group =>   1
Atom   5C    basis set group =>   1
Atom   6C    basis set group =>   1
Atom   7C    basis set group =>   1
Atom   8C    basis set group =>   1
Atom   9C    basis set group =>   1
Atom  10H    basis set group =>   2
Atom  11H    basis set group =>   2
Atom  12H    basis set group =>   2
Atom  13H    basis set group =>   2
Atom  14H    basis set group =>   2
Atom  15H    basis set group =>   2
Atom  16H    basis set group =>   2
Atom  17H    basis set group =>   2
Atom  18H    basis set group =>   2
Atom  19H    basis set group =>   2
Atom  20H    basis set group =>   2
Atom  21H    basis set group =>   2
Atom  22C    basis set group =>   1
Atom  23C    basis set group =>   1
Atom  24C    basis set group =>   1
Atom  25C    basis set group =>   1
Atom  26H    basis set group =>   2
Atom  27H    basis set group =>   2
Atom  28H    basis set group =>   2
Atom  29H    basis set group =>   2
Atom  30H    basis set group =>   2
Atom  31H    basis set group =>   2
Atom  32H    basis set group =>   2
Atom  33H    basis set group =>   2
Atom  34H    basis set group =>   2
Atom  35H    basis set group =>   2
Atom  36H    basis set group =>   2
Atom  37H    basis set group =>   2
---------------------------------
AUXILIARY/J BASIS SET INFORMATION
---------------------------------
There are 2 groups of distinct atoms

 Group   1 Type C   : 12s5p4d2f1g contracted to 6s4p3d1f1g pattern {711111/2111/211/2/1}
 Group   2 Type H   : 5s2p1d contracted to 3s1p1d pattern {311/2/1}

Atom   0C    basis set group =>   1
Atom   1C    basis set group =>   1
Atom   2C    basis set group =>   1
Atom   3C    basis set group =>   1
Atom   4C    basis set group =>   1
Atom   5C    basis set group =>   1
Atom   6C    basis set group =>   1
Atom   7C    basis set group =>   1
Atom   8C    basis set group =>   1
Atom   9C    basis set group =>   1
Atom  10H    basis set group =>   2
Atom  11H    basis set group =>   2
Atom  12H    basis set group =>   2
Atom  13H    basis set group =>   2
Atom  14H    basis set group =>   2
Atom  15H    basis set group =>   2
Atom  16H    basis set group =>   2
Atom  17H    basis set group =>   2
Atom  18H    basis set group =>   2
Atom  19H    basis set group =>   2
Atom  20H    basis set group =>   2
Atom  21H    basis set group =>   2
Atom  22C    basis set group =>   1
Atom  23C    basis set group =>   1
Atom  24C    basis set group =>   1
Atom  25C    basis set group =>   1
Atom  26H    basis set group =>   2
Atom  27H    basis set group =>   2
Atom  28H    basis set group =>   2
Atom  29H    basis set group =>   2
Atom  30H    basis set group =>   2
Atom  31H    basis set group =>   2
Atom  32H    basis set group =>   2
Atom  33H    basis set group =>   2
Atom  34H    basis set group =>   2
Atom  35H    basis set group =>   2
Atom  36H    basis set group =>   2
Atom  37H    basis set group =>   2


           ************************************************************
           *        Program running with 4 parallel MPI-processes     *
           *              working on a common directory               *
           ************************************************************
------------------------------------------------------------------------------
                           ORCA GTO INTEGRAL CALCULATION
                           -- RI-GTO INTEGRALS CHOSEN --
------------------------------------------------------------------------------
------------------------------------------------------------------------------
                   ___                                                        
                  /   \      - P O W E R E D   B Y -                         
                 /     \                                                     
                 |  |  |   _    _      __       _____    __    __             
                 |  |  |  | |  | |    /  \     |  _  \  |  |  /  |          
                  \  \/   | |  | |   /    \    | | | |  |  | /  /          
                 / \  \   | |__| |  /  /\  \   | |_| |  |  |/  /          
                |  |  |   |  __  | /  /__\  \  |    /   |      \           
                |  |  |   | |  | | |   __   |  |    \   |  |\   \          
                \     /   | |  | | |  |  |  |  | |\  \  |  | \   \       
                 \___/    |_|  |_| |__|  |__|  |_| \__\ |__|  \__/        
                                                                              
                      - O R C A' S   B I G   F R I E N D -                    
                                      &                                       
                       - I N T E G R A L  F E E D E R -                       
                                                                              
 v1 FN, 2020, v2 2021                                                         
------------------------------------------------------------------------------


Reading SHARK input file pbeh-3c.SHARKINP.tmp ... ok
----------------------
SHARK INTEGRAL PACKAGE
----------------------

Number of atoms                             ...     38
Number of basis functions                   ...    258
Number of shells                            ...    146
Maximum angular momentum                    ...      2
Integral batch strategy                     ... SHARK/LIBINT Hybrid
RI-J (if used) integral strategy            ... SPLIT-RIJ (Revised 2003 algorithm where possible)
Printlevel                                  ...      1
Contraction scheme used                     ... SEGMENTED contraction
Coulomb Range Separation                    ... NOT USED
Exchange Range Separation                   ... NOT USED
Finite Nucleus Model                        ... NOT USED
Auxiliary Coulomb fitting basis             ... AVAILABLE
   # of basis functions in Aux-J            ...    950
   # of shells in Aux-J                     ...    330
   Maximum angular momentum in Aux-J        ...      4
Auxiliary J/K fitting basis                 ... NOT available
Auxiliary Correlation fitting basis         ... NOT available
Auxiliary 'external' fitting basis          ... NOT available
Integral threshold                          ...     2.500000e-11
Primitive cut-off                           ...     2.500000e-12
Primitive pair pre-selection threshold      ...     2.500000e-12

Calculating pre-screening integrals         ... done (  0.1 sec) Dimension = 146
Organizing shell pair data                  ... done (  0.8 sec)
Shell pair information
Total number of shell pairs                 ...     10731
Shell pairs after pre-screening             ...      9413
Total number of primitive shell pairs       ...     39035
Primitive shell pairs kept                  ...     22787
          la=0 lb=0:   4478 shell pairs
          la=1 lb=0:   2792 shell pairs
          la=1 lb=1:    406 shell pairs
          la=2 lb=0:   1246 shell pairs
          la=2 lb=1:    392 shell pairs
          la=2 lb=2:     99 shell pairs

Calculating one electron integrals          ... done (  0.0 sec)
Calculating RI/J V-Matrix + Cholesky decomp.... done (  0.6 sec)
Calculating Nuclear repulsion               ... done (  0.0 sec) ENN=   1051.752404992837 Eh

SHARK setup successfully completed in   3.0 seconds

Maximum memory used throughout the entire GTOINT-calculation: 17.5 MB


           ************************************************************
           *        Program running with 4 parallel MPI-processes     *
           *              working on a common directory               *
           ************************************************************
-------------------------------------------------------------------------------
                                 ORCA SCF
-------------------------------------------------------------------------------

------------
SCF SETTINGS
------------
Hamiltonian:
 Density Functional     Method          .... DFT(GTOs)
 Exchange Functional    Exchange        .... PBE
   PBE kappa parameter   XKappa         ....  1.024500
   PBE mue parameter    XMuePBE         ....  0.123457
 Correlation Functional Correlation     .... PBE
   PBE beta parameter  CBetaPBE         ....  0.030000
 LDA part of GGA corr.  LDAOpt          .... PW91-LDA
 Gradients option       PostSCFGGA      .... off
 Hybrid DFT is turned on
   Fraction HF Exchange ScalHFX         ....  0.420000
   Scaling of DF-GGA-X  ScalDFX         ....  0.580000
   Scaling of DF-GGA-C  ScalDFC         ....  1.000000
   Scaling of DF-LDA-C  ScalLDAC        ....  1.000000
   Perturbative correction              ....  0.000000
   Density functional embedding theory  .... OFF
 RI-approximation to the Coulomb term is turned on
   Number of AuxJ basis functions       .... 950
   RIJ-ON(X) (HFX calculated with O(N)) .... on
   Number of AuxJ basis functions       .... 950
   RIJ-COSX (HFX calculated with COS-X)).... on


General Settings:
 Integral files         IntName         .... pbeh-3c
 Hartree-Fock type      HFTyp           .... RHF
 Total Charge           Charge          ....    0
 Multiplicity           Mult            ....    1
 Number of Electrons    NEL             ....  108
 Basis Dimension        Dim             ....  258
 Nuclear Repulsion      ENuc            ....   1051.7524049928 Eh

Convergence Acceleration:
 DIIS                   CNVDIIS         .... on
   Start iteration      DIISMaxIt       ....    12
   Startup error        DIISStart       ....  0.200000
   # of expansion vecs  DIISMaxEq       ....     5
   Bias factor          DIISBfac        ....   1.050
   Max. coefficient     DIISMaxC        ....  10.000
 Trust-Rad. Augm. Hess. CNVTRAH         .... auto
   Auto Start mean grad. ratio tolernc. ....  1.125000
   Auto Start start iteration           ....    20
   Auto Start num. interpolation iter.  ....    10
   Max. Number of Micro iterations      ....    16
   Max. Number of Macro iterations      .... Maxiter - #DIIS iter
   Number of Davidson start vectors     ....     2
   Converg. threshold I  (grad. norm)   ....   1.000e-05
   Converg. threshold II (energy diff.) ....   1.000e-08
   Grad. Scal. Fac. for Micro threshold ....   0.100
   Minimum threshold for Micro iter.    ....   0.010
   NR start threshold (gradient norm)   ....   0.001
   Initial trust radius                 ....   0.400
   Minimum AH scaling param. (alpha)    ....   1.000
   Maximum AH scaling param. (alpha)    .... 1000.000
   Orbital update algorithm             .... Taylor
   White noise on init. David. guess    .... on
   Maximum white noise                  ....   0.010
   Quad. conv. algorithm                .... NR
   COSX micro iterations for RIJONX calc.... off
 SOSCF                  CNVSOSCF        .... on
   Start iteration      SOSCFMaxIt      ....   150
   Startup grad/error   SOSCFStart      ....  0.003300
 Level Shifting         CNVShift        .... on
   Level shift para.    LevelShift      ....    0.2500
   Turn off err/grad.   ShiftErr        ....    0.0010
 Zerner damping         CNVZerner       .... off
 Static damping         CNVDamp         .... on
   Fraction old density DampFac         ....    0.7000
   Max. Damping (<1)    DampMax         ....    0.9800
   Min. Damping (>=0)   DampMin         ....    0.0000
   Turn off err/grad.   DampErr         ....    0.1000
 Fernandez-Rico         CNVRico         .... off

SCF Procedure:
 Maximum # iterations   MaxIter         ....   125
 SCF integral mode      SCFMode         .... Direct
   Integral package                     .... SHARK and LIBINT hybrid scheme
 Reset frequency        DirectResetFreq ....    20
 Integral Threshold     Thresh          ....  2.500e-11 Eh
 Primitive CutOff       TCut            ....  2.500e-12 Eh

Convergence Tolerance:
 Convergence Check Mode ConvCheckMode   .... Total+1el-Energy
 Convergence forced     ConvForced      .... 0
 Energy Change          TolE            ....  1.000e-08 Eh
 1-El. energy change                    ....  1.000e-05 Eh
 Orbital Gradient       TolG            ....  1.000e-05
 Orbital Rotation angle TolX            ....  1.000e-05
 DIIS Error             TolErr          ....  5.000e-07


Diagonalization of the overlap matrix:
Smallest eigenvalue                        ... 2.935e-03
Time for diagonalization                   ...    0.016 sec
Threshold for overlap eigenvalues          ... 1.000e-08
Number of eigenvalues below threshold      ... 0
Time for construction of square roots      ...    0.393 sec
Total time needed                          ...    0.432 sec

--------------------------------
INITIAL GUESS: MINIMAL BASIS EHT
--------------------------------
The minimal basis has 94 functions
EHT matrix was diagonalized
Basis set overlap was calculated now projecting the orbitals
Using GuessMode=FMatrix for the initial guess
C*T matrix was formed
Effective Fockian was calculated
Effective Fockian was diagonalized
Initial density was built
                      ------------------
                      INITIAL GUESS DONE
                      ------------------
-------------------
DFT GRID GENERATION
-------------------

General Integration Accuracy     IntAcc      ... 4.959
Radial Grid Type                 RadialGrid  ... OptM3 with GC (2021)
Angular Grid (max. ang.)         AngularGrid ... 6 (Lebedev-590)
Angular grid pruning method      GridPruning ... 4 (adaptive)
Weight generation scheme         WeightScheme... Becke
Basis function cutoff            BFCut       ... 1.0000e-11
Integration weight cutoff        WCut        ... 1.0000e-14
Angular grids for H and He will be reduced by one unit
Partially contracted basis set               ... off
Rotationally invariant grid construction     ... off

Total number of grid points                  ...   397568
Total number of batches                      ...     6233
Average number of points per batch           ...       63
Average number of grid points per atom       ...    10462
Time for grid setup =    9.915 sec

--------------------
COSX GRID GENERATION
--------------------

GRIDX 1
-------
General Integration Accuracy     IntAcc      ... 4.020
Radial Grid Type                 RadialGrid  ... OptM3 with GC (2021)
Angular Grid (max. ang.)         AngularGrid ... 2 (Lebedev-110)
Angular grid pruning method      GridPruning ... 4 (adaptive)
Weight generation scheme         WeightScheme... Becke
Basis function cutoff            BFCut       ... 1.0000e-11
Integration weight cutoff        WCut        ... 1.0000e-14
Angular grids for H and He will be reduced by one unit
Partially contracted basis set               ... on
Rotationally invariant grid construction     ... off

Total number of grid points                  ...    41114
Total number of batches                      ...      664
Average number of points per batch           ...       61
Average number of grid points per atom       ...     1082
UseSFitting                                  ... on

GRIDX 2
-------
General Integration Accuracy     IntAcc      ... 4.338
Radial Grid Type                 RadialGrid  ... OptM3 with GC (2021)
Angular Grid (max. ang.)         AngularGrid ... 3 (Lebedev-194)
Angular grid pruning method      GridPruning ... 4 (adaptive)
Weight generation scheme         WeightScheme... Becke
Basis function cutoff            BFCut       ... 1.0000e-11
Integration weight cutoff        WCut        ... 1.0000e-14
Angular grids for H and He will be reduced by one unit
Partially contracted basis set               ... on
Rotationally invariant grid construction     ... off

Total number of grid points                  ...    89624
Total number of batches                      ...     1420
Average number of points per batch           ...       63
Average number of grid points per atom       ...     2359
UseSFitting                                  ... on

GRIDX 3
-------
General Integration Accuracy     IntAcc      ... 4.871
Radial Grid Type                 RadialGrid  ... OptM3 with GC (2021)
Angular Grid (max. ang.)         AngularGrid ... 4 (Lebedev-302)
Angular grid pruning method      GridPruning ... 4 (adaptive)
Weight generation scheme         WeightScheme... Becke
Basis function cutoff            BFCut       ... 1.0000e-11
Integration weight cutoff        WCut        ... 1.0000e-14
Angular grids for H and He will be reduced by one unit
Partially contracted basis set               ... on
Rotationally invariant grid construction     ... off

Total number of grid points                  ...   175412
Total number of batches                      ...     2757
Average number of points per batch           ...       63
Average number of grid points per atom       ...     4616
UseSFitting                                  ... on

Time for X-Grid setup             =   10.067 sec

--------------
SCF ITERATIONS
--------------
ITER       Energy         Delta-E        Max-DP      RMS-DP      [F,P]     Damp
               ***  Starting incremental Fock matrix formation  ***
  0   -545.8598898680   0.000000000000 0.09038051  0.00210296  0.4035520 0.7000
  1   -546.1511302600  -0.291240392008 0.06589210  0.00160682  0.2860360 0.7000
  2   -546.3592190922  -0.208088832182 0.04946213  0.00122658  0.2018029 0.7000
                               ***Turning on DIIS***
  3   -546.5066851269  -0.147466034727 0.03714747  0.00092920  0.1422727 0.7000
  4   -546.6109496857  -0.104264558782 0.02945730  0.00074000  0.1002140 0.7000
  5   -546.6845194085  -0.073569722824 0.07200836  0.00185517  0.0702291 0.0000
                      *** Initiating the SOSCF procedure ***
                           *** Shutting down DIIS ***
                      *** Re-Reading the Fockian *** 
                      *** Removing any level shift *** 
ITER      Energy       Delta-E        Grad      Rot      Max-DP    RMS-DP
  6   -546.85832741  -0.1738079981  0.000473  0.000473  0.002817  0.000110
               *** Restarting incremental Fock matrix formation ***
  7   -546.85841454  -0.0000871332  0.000126  0.000253  0.000481  0.000024
  8   -546.85841512  -0.0000005758  0.000110  0.000087  0.000154  0.000008
  9   -546.85841611  -0.0000009908  0.000021  0.000023  0.000059  0.000002
 10   -546.85841607   0.0000000355  0.000026  0.000013  0.000033  0.000001
                  ***Gradient check signals convergence***
              ***Rediagonalizing the Fockian in SOSCF/NRSCF***

               *****************************************************
               *                     SUCCESS                       *
               *           SCF CONVERGED AFTER  11 CYCLES          *
               *****************************************************

Old exchange energy                            =    -34.159095730 Eh
New exchange energy                            =    -34.159142631 Eh
Exchange energy change after final integration =     -0.000046900 Eh
Total energy after final integration           =   -546.858463022 Eh
Final COS-X integration done in                =    24.892 sec

----------------
TOTAL SCF ENERGY
----------------

Total Energy       :         -546.85846302 Eh          -14880.77530 eV

Components:
Nuclear Repulsion  :         1051.75240499 Eh           28619.63793 eV
Electronic Energy  :        -1598.61086801 Eh          -43500.41324 eV
One Electron Energy:        -2826.96835936 Eh          -76925.71989 eV
Two Electron Energy:         1228.35749134 Eh           33425.30665 eV
Max COSX asymmetry :            0.00000616 Eh               0.00017 eV

Virial components:
Potential Energy   :        -1089.08826654 Eh          -29635.59838 eV
Kinetic Energy     :          542.22980352 Eh           14754.82307 eV
Virial Ratio       :            2.00853634


DFT components:
N(Alpha)           :       54.000581393584 electrons
N(Beta)            :       54.000581393584 electrons
N(Total)           :      108.001162787168 electrons
E(X)               :      -45.251911171030 Eh       
E(C)               :       -4.664517688239 Eh       
E(XC)              :      -49.916428859269 Eh       
DFET-embed. en.    :        0.000000000000 Eh       

---------------
SCF CONVERGENCE
---------------

  Last Energy change         ...   -5.0939e-08  Tolerance :   1.0000e-08
  Last MAX-Density change    ...    1.2212e-15  Tolerance :   1.0000e-07
  Last RMS-Density change    ...    2.6113e-17  Tolerance :   5.0000e-09
  Last Orbital Gradient      ...    4.3154e-07  Tolerance :   1.0000e-05
  Last Orbital Rotation      ...    3.4769e-07  Tolerance :   1.0000e-05

             **** THE GBW FILE WAS UPDATED (pbeh-3c.gbw) ****
             **** DENSITY pbeh-3c.scfp WAS UPDATED ****
             **** ENERGY FILE WAS UPDATED (pbeh-3c.en.tmp) ****
             **** THE GBW FILE WAS UPDATED (pbeh-3c.gbw) ****
             **** DENSITY pbeh-3c.scfp WAS UPDATED ****
----------------
ORBITAL ENERGIES
----------------

  NO   OCC          E(Eh)            E(eV) 
   0   2.0000     -10.439320      -284.0684 
   1   2.0000     -10.439320      -284.0684 
   2   2.0000     -10.439320      -284.0684 
   3   2.0000     -10.439239      -284.0661 
   4   2.0000     -10.421489      -283.5831 
   5   2.0000     -10.421489      -283.5831 
   6   2.0000     -10.421412      -283.5810 
   7   2.0000     -10.421412      -283.5810 
   8   2.0000     -10.421412      -283.5810 
   9   2.0000     -10.421318      -283.5785 
  10   2.0000     -10.416621      -283.4507 
  11   2.0000     -10.416621      -283.4507 
  12   2.0000     -10.416621      -283.4507 
  13   2.0000     -10.416604      -283.4502 
  14   2.0000      -0.977325       -26.5944 
  15   2.0000      -0.884240       -24.0614 
  16   2.0000      -0.884240       -24.0614 
  17   2.0000      -0.884239       -24.0614 
  18   2.0000      -0.766257       -20.8509 
  19   2.0000      -0.755322       -20.5533 
  20   2.0000      -0.755321       -20.5533 
  21   2.0000      -0.755321       -20.5533 
  22   2.0000      -0.745629       -20.2896 
  23   2.0000      -0.745629       -20.2896 
  24   2.0000      -0.620165       -16.8756 
  25   2.0000      -0.620165       -16.8755 
  26   2.0000      -0.620165       -16.8755 
  27   2.0000      -0.572445       -15.5770 
  28   2.0000      -0.506728       -13.7888 
  29   2.0000      -0.506728       -13.7888 
  30   2.0000      -0.506728       -13.7888 
  31   2.0000      -0.505662       -13.7598 
  32   2.0000      -0.505662       -13.7598 
  33   2.0000      -0.505662       -13.7598 
  34   2.0000      -0.472226       -12.8499 
  35   2.0000      -0.442185       -12.0325 
  36   2.0000      -0.442185       -12.0325 
  37   2.0000      -0.440351       -11.9825 
  38   2.0000      -0.440350       -11.9825 
  39   2.0000      -0.440350       -11.9825 
  40   2.0000      -0.416912       -11.3447 
  41   2.0000      -0.416912       -11.3447 
  42   2.0000      -0.416912       -11.3447 
  43   2.0000      -0.409942       -11.1551 
  44   2.0000      -0.409942       -11.1551 
  45   2.0000      -0.409942       -11.1551 
  46   2.0000      -0.366242        -9.9659 
  47   2.0000      -0.366242        -9.9659 
  48   2.0000      -0.352720        -9.5980 
  49   2.0000      -0.352720        -9.5980 
  50   2.0000      -0.352720        -9.5980 
  51   2.0000      -0.319131        -8.6840 
  52   2.0000      -0.319130        -8.6840 
  53   2.0000      -0.319130        -8.6840 
  54   0.0000       0.106528         2.8988 
  55   0.0000       0.151564         4.1243 
  56   0.0000       0.151564         4.1243 
  57   0.0000       0.151564         4.1243 
  58   0.0000       0.169827         4.6212 
  59   0.0000       0.169827         4.6212 
  60   0.0000       0.169827         4.6212 
  61   0.0000       0.202533         5.5112 
  62   0.0000       0.202533         5.5112 
  63   0.0000       0.203841         5.5468 
  64   0.0000       0.208102         5.6627 
  65   0.0000       0.223106         6.0710 
  66   0.0000       0.223106         6.0710 
  67   0.0000       0.223106         6.0710 
  68   0.0000       0.226640         6.1672 
  69   0.0000       0.226640         6.1672 
  70   0.0000       0.226640         6.1672 
  71   0.0000       0.226765         6.1706 
  72   0.0000       0.226765         6.1706 
  73   0.0000       0.226765         6.1706 
  74   0.0000       0.238206         6.4819 
  75   0.0000       0.238206         6.4819 
  76   0.0000       0.252344         6.8666 
  77   0.0000       0.252344         6.8666 
  78   0.0000       0.252344         6.8666 
  79   0.0000       0.282217         7.6795 
  80   0.0000       0.282217         7.6795 
  81   0.0000       0.282217         7.6795 
  82   0.0000       0.313995         8.5442 
  83   0.0000       0.313995         8.5442 
  84   0.0000       0.313995         8.5442 
  85   0.0000       0.318857         8.6765 
  86   0.0000       0.318857         8.6765 
  87   0.0000       0.333604         9.0778 
  88   0.0000       0.333604         9.0778 
  89   0.0000       0.333604         9.0778 
  90   0.0000       0.336440         9.1550 
  91   0.0000       0.358472         9.7545 
  92   0.0000       0.358472         9.7545 
  93   0.0000       0.358473         9.7545 
  94   0.0000       0.513269        13.9668 
  95   0.0000       0.513269        13.9668 
  96   0.0000       0.514357        13.9964 
  97   0.0000       0.543382        14.7862 
  98   0.0000       0.543382        14.7862 
  99   0.0000       0.543382        14.7862 
 100   0.0000       0.548042        14.9130 
 101   0.0000       0.548042        14.9130 
 102   0.0000       0.548042        14.9130 
 103   0.0000       0.579635        15.7727 
 104   0.0000       0.579635        15.7727 
 105   0.0000       0.579635        15.7727 
 106   0.0000       0.652794        17.7634 
 107   0.0000       0.652794        17.7634 
 108   0.0000       0.652794        17.7634 
 109   0.0000       0.703469        19.1424 
 110   0.0000       0.714083        19.4312 
 111   0.0000       0.714083        19.4312 
 112   0.0000       0.714083        19.4312 
 113   0.0000       0.722152        19.6508 
 114   0.0000       0.722152        19.6508 
 115   0.0000       0.722152        19.6508 
 116   0.0000       0.726362        19.7653 
 117   0.0000       0.726362        19.7653 
 118   0.0000       0.763486        20.7755 
 119   0.0000       0.763486        20.7755 
 120   0.0000       0.765640        20.8341 
 121   0.0000       0.765640        20.8341 
 122   0.0000       0.765640        20.8341 
 123   0.0000       0.821837        22.3633 
 124   0.0000       0.870676        23.6923 
 125   0.0000       0.870676        23.6923 
 126   0.0000       0.870676        23.6923 
 127   0.0000       0.910418        24.7737 
 128   0.0000       0.928709        25.2715 
 129   0.0000       0.928710        25.2715 
 130   0.0000       0.928710        25.2715 
 131   0.0000       0.994607        27.0646 
 132   0.0000       0.994608        27.0646 
 133   0.0000       0.994608        27.0647 
 134   0.0000       1.001207        27.2442 
 135   0.0000       1.023805        27.8592 
 136   0.0000       1.023805        27.8592 
 137   0.0000       1.023805        27.8592 
 138   0.0000       1.044816        28.4309 
 139   0.0000       1.044816        28.4309 
 140   0.0000       1.061756        28.8918 
 141   0.0000       1.061756        28.8919 
 142   0.0000       1.061756        28.8919 
 143   0.0000       1.065877        29.0040 
 144   0.0000       1.065877        29.0040 
 145   0.0000       1.065877        29.0040 
 146   0.0000       1.084196        29.5025 
 147   0.0000       1.084196        29.5025 
 148   0.0000       1.084196        29.5025 
 149   0.0000       1.104998        30.0685 
 150   0.0000       1.104998        30.0685 
 151   0.0000       1.119992        30.4765 
 152   0.0000       1.121402        30.5149 
 153   0.0000       1.121402        30.5149 
 154   0.0000       1.121402        30.5149 
 155   0.0000       1.235392        33.6167 
 156   0.0000       1.235393        33.6167 
 157   0.0000       1.235393        33.6167 
 158   0.0000       1.240101        33.7449 
 159   0.0000       1.240102        33.7449 
 160   0.0000       1.240102        33.7449 
 161   0.0000       1.364397        37.1271 
 162   0.0000       1.364397        37.1271 
 163   0.0000       1.411761        38.4160 
 164   0.0000       1.424358        38.7587 
 165   0.0000       1.424358        38.7587 
 166   0.0000       1.424358        38.7587 
 167   0.0000       1.497341        40.7447 
 168   0.0000       1.497342        40.7447 
 169   0.0000       1.497342        40.7447 
 170   0.0000       1.598472        43.4966 
 171   0.0000       1.631468        44.3945 
 172   0.0000       1.631468        44.3945 
 173   0.0000       1.631469        44.3945 
 174   0.0000       1.670331        45.4520 
 175   0.0000       1.670332        45.4520 
 176   0.0000       1.670332        45.4521 
 177   0.0000       1.685348        45.8606 
 178   0.0000       1.685348        45.8606 
 179   0.0000       1.764693        48.0197 
 180   0.0000       1.888311        51.3835 
 181   0.0000       1.888311        51.3835 
 182   0.0000       1.888311        51.3835 
 183   0.0000       1.892323        51.4927 
 184   0.0000       1.892323        51.4927 
 185   0.0000       1.892323        51.4927 
 186   0.0000       1.923500        52.3411 
 187   0.0000       1.923500        52.3411 
 188   0.0000       1.933310        52.6080 
 189   0.0000       1.933310        52.6080 
 190   0.0000       1.933310        52.6080 
 191   0.0000       1.976430        53.7814 
 192   0.0000       1.976430        53.7814 
 193   0.0000       2.027114        55.1606 
 194   0.0000       2.037952        55.4555 
 195   0.0000       2.037952        55.4555 
 196   0.0000       2.037952        55.4555 
 197   0.0000       2.053416        55.8763 
 198   0.0000       2.053416        55.8763 
 199   0.0000       2.053416        55.8763 
 200   0.0000       2.163005        58.8584 
 201   0.0000       2.163005        58.8584 
 202   0.0000       2.163006        58.8584 
 203   0.0000       2.215513        60.2872 
 204   0.0000       2.232152        60.7400 
 205   0.0000       2.232152        60.7400 
 206   0.0000       2.232152        60.7400 
 207   0.0000       2.285192        62.1832 
 208   0.0000       2.285192        62.1832 
 209   0.0000       2.303826        62.6903 
 210   0.0000       2.303826        62.6903 
 211   0.0000       2.312168        62.9173 
 212   0.0000       2.312168        62.9173 
 213   0.0000       2.312168        62.9173 
 214   0.0000       2.335470        63.5514 
 215   0.0000       2.335470        63.5514 
 216   0.0000       2.335470        63.5514 
 217   0.0000       2.345496        63.8242 
 218   0.0000       2.345496        63.8242 
 219   0.0000       2.345496        63.8242 
 220   0.0000       2.371609        64.5348 
 221   0.0000       2.371609        64.5348 
 222   0.0000       2.371609        64.5348 
 223   0.0000       2.408084        65.5273 
 224   0.0000       2.544480        69.2388 
 225   0.0000       2.544480        69.2388 
 226   0.0000       2.544480        69.2388 
 227   0.0000       2.602889        70.8282 
 228   0.0000       2.602889        70.8282 
 229   0.0000       2.623147        71.3795 
 230   0.0000       2.623147        71.3795 
 231   0.0000       2.623147        71.3795 
 232   0.0000       2.843035        77.3629 
 233   0.0000       2.843035        77.3629 
 234   0.0000       2.878086        78.3167 
 235   0.0000       2.878086        78.3167 
 236   0.0000       2.878086        78.3167 
 237   0.0000       2.921558        79.4996 
 238   0.0000       2.921558        79.4996 
 239   0.0000       2.921558        79.4996 
 240   0.0000       2.923456        79.5513 
 241   0.0000       2.923456        79.5513 
 242   0.0000       2.923456        79.5513 
 243   0.0000       2.957036        80.4650 
 244   0.0000      13.442026       365.7761 
 245   0.0000      13.747217       374.0808 
 246   0.0000      13.747217       374.0808 
 247   0.0000      13.747217       374.0808 
 248   0.0000      13.921186       378.8147 
 249   0.0000      13.947579       379.5329 
 250   0.0000      13.947579       379.5329 
 251   0.0000      13.947579       379.5329 
 252   0.0000      14.142728       384.8432 
 253   0.0000      14.142728       384.8432 
 254   0.0000      14.173225       385.6730 
 255   0.0000      14.343447       390.3050 
 256   0.0000      14.343447       390.3050 
 257   0.0000      14.343447       390.3050 

                    ********************************
                    * MULLIKEN POPULATION ANALYSIS *
                    ********************************

-----------------------
MULLIKEN ATOMIC CHARGES
-----------------------
   0 C :   -0.104907
   1 C :   -0.104907
   2 C :   -0.104908
   3 C :   -0.104908
   4 C :   -0.352927
   5 C :   -0.352927
   6 C :   -0.352927
   7 C :   -0.352926
   8 C :   -0.352927
   9 C :   -0.352926
  10 H :    0.205199
  11 H :    0.205199
  12 H :    0.205199
  13 H :    0.205199
  14 H :    0.205199
  15 H :    0.205199
  16 H :    0.205199
  17 H :    0.205199
  18 H :    0.205199
  19 H :    0.205199
  20 H :    0.205199
  21 H :    0.205199
  22 C :   -0.614021
  23 C :   -0.614020
  24 C :   -0.614020
  25 C :   -0.614021
  26 H :    0.210907
  27 H :    0.210907
  28 H :    0.210907
  29 H :    0.210907
  30 H :    0.210907
  31 H :    0.210907
  32 H :    0.210907
  33 H :    0.210907
  34 H :    0.210907
  35 H :    0.210907
  36 H :    0.210907
  37 H :    0.210907
Sum of atomic charges:    0.0000000

--------------------------------
MULLIKEN REDUCED ORBITAL CHARGES
--------------------------------
  0 C s       :     3.234786  s :     3.234786
      pz      :     0.938534  p :     2.815600
      px      :     0.938533
      py      :     0.938534
      dz2     :     0.006074  d :     0.054521
      dxz     :     0.014124
      dyz     :     0.014124
      dx2y2   :     0.006074
      dxy     :     0.014124
  1 C s       :     3.234786  s :     3.234786
      pz      :     0.938534  p :     2.815600
      px      :     0.938533
      py      :     0.938533
      dz2     :     0.006074  d :     0.054521
      dxz     :     0.014124
      dyz     :     0.014124
      dx2y2   :     0.006074
      dxy     :     0.014124
  2 C s       :     3.234786  s :     3.234786
      pz      :     0.938534  p :     2.815601
      px      :     0.938534
      py      :     0.938534
      dz2     :     0.006074  d :     0.054521
      dxz     :     0.014124
      dyz     :     0.014124
      dx2y2   :     0.006074
      dxy     :     0.014124
  3 C s       :     3.234786  s :     3.234786
      pz      :     0.938534  p :     2.815602
      px      :     0.938535
      py      :     0.938533
      dz2     :     0.006074  d :     0.054520
      dxz     :     0.014124
      dyz     :     0.014124
      dx2y2   :     0.006074
      dxy     :     0.014124
  4 C s       :     3.306772  s :     3.306772
      pz      :     1.008724  p :     3.002907
      px      :     0.985460
      py      :     1.008724
      dz2     :     0.002969  d :     0.043247
      dxz     :     0.012571
      dyz     :     0.012381
      dx2y2   :     0.002754
      dxy     :     0.012571
  5 C s       :     3.306772  s :     3.306772
      pz      :     0.985460  p :     3.002907
      px      :     1.008724
      py      :     1.008724
      dz2     :     0.002647  d :     0.043247
      dxz     :     0.012571
      dyz     :     0.012571
      dx2y2   :     0.003077
      dxy     :     0.012381
  6 C s       :     3.306773  s :     3.306773
      pz      :     1.008724  p :     3.002907
      px      :     1.008724
      py      :     0.985459
      dz2     :     0.002970  d :     0.043247
      dxz     :     0.012381
      dyz     :     0.012571
      dx2y2   :     0.002754
      dxy     :     0.012571
  7 C s       :     3.306772  s :     3.306772
      pz      :     1.008724  p :     3.002907
      px      :     1.008723
      py      :     0.985459
      dz2     :     0.002970  d :     0.043247
      dxz     :     0.012381
      dyz     :     0.012571
      dx2y2   :     0.002754
      dxy     :     0.012571
  8 C s       :     3.306773  s :     3.306773
      pz      :     1.008724  p :     3.002907
      px      :     0.985459
      py      :     1.008724
      dz2     :     0.002970  d :     0.043247
      dxz     :     0.012571
      dyz     :     0.012381
      dx2y2   :     0.002754
      dxy     :     0.012571
  9 C s       :     3.306773  s :     3.306773
      pz      :     0.985459  p :     3.002906
      px      :     1.008724
      py      :     1.008724
      dz2     :     0.002647  d :     0.043247
      dxz     :     0.012571
      dyz     :     0.012571
      dx2y2   :     0.003077
      dxy     :     0.012381
 10 H s       :     0.794801  s :     0.794801
 11 H s       :     0.794801  s :     0.794801
 12 H s       :     0.794801  s :     0.794801
 13 H s       :     0.794801  s :     0.794801
 14 H s       :     0.794801  s :     0.794801
 15 H s       :     0.794801  s :     0.794801
 16 H s       :     0.794801  s :     0.794801
 17 H s       :     0.794801  s :     0.794801
 18 H s       :     0.794801  s :     0.794801
 19 H s       :     0.794801  s :     0.794801
 20 H s       :     0.794801  s :     0.794801
 21 H s       :     0.794801  s :     0.794801
 22 C s       :     3.376227  s :     3.376227
      pz      :     1.066842  p :     3.200525
      px      :     1.066842
      py      :     1.066841
      dz2     :     0.001516  d :     0.037269
      dxz     :     0.011412
      dyz     :     0.011412
      dx2y2   :     0.001516
      dxy     :     0.011412
 23 C s       :     3.376227  s :     3.376227
      pz      :     1.066842  p :     3.200525
      px      :     1.066841
      py      :     1.066842
      dz2     :     0.001516  d :     0.037269
      dxz     :     0.011412
      dyz     :     0.011412
      dx2y2   :     0.001516
      dxy     :     0.011412
 24 C s       :     3.376227  s :     3.376227
      pz      :     1.066841  p :     3.200525
      px      :     1.066841
      py      :     1.066842
      dz2     :     0.001516  d :     0.037269
      dxz     :     0.011412
      dyz     :     0.011412
      dx2y2   :     0.001516
      dxy     :     0.011412
 25 C s       :     3.376228  s :     3.376228
      pz      :     1.066841  p :     3.200524
      px      :     1.066842
      py      :     1.066841
      dz2     :     0.001516  d :     0.037269
      dxz     :     0.011412
      dyz     :     0.011412
      dx2y2   :     0.001516
      dxy     :     0.011412
 26 H s       :     0.789093  s :     0.789093
 27 H s       :     0.789093  s :     0.789093
 28 H s       :     0.789093  s :     0.789093
 29 H s       :     0.789093  s :     0.789093
 30 H s       :     0.789093  s :     0.789093
 31 H s       :     0.789093  s :     0.789093
 32 H s       :     0.789093  s :     0.789093
 33 H s       :     0.789093  s :     0.789093
 34 H s       :     0.789093  s :     0.789093
 35 H s       :     0.789093  s :     0.789093
 36 H s       :     0.789093  s :     0.789093
 37 H s       :     0.789093  s :     0.789093


                     *******************************
                     * LOEWDIN POPULATION ANALYSIS *
                     *******************************

----------------------
LOEWDIN ATOMIC CHARGES
----------------------
   0 C :   -0.096769
   1 C :   -0.096769
   2 C :   -0.096770
   3 C :   -0.096770
   4 C :   -0.201571
   5 C :   -0.201571
   6 C :   -0.201571
   7 C :   -0.201571
   8 C :   -0.201571
   9 C :   -0.201571
  10 H :    0.120721
  11 H :    0.120721
  12 H :    0.120721
  13 H :    0.120721
  14 H :    0.120721
  15 H :    0.120721
  16 H :    0.120721
  17 H :    0.120721
  18 H :    0.120721
  19 H :    0.120721
  20 H :    0.120721
  21 H :    0.120721
  22 C :   -0.336825
  23 C :   -0.336825
  24 C :   -0.336825
  25 C :   -0.336825
  26 H :    0.124596
  27 H :    0.124596
  28 H :    0.124596
  29 H :    0.124596
  30 H :    0.124596
  31 H :    0.124596
  32 H :    0.124596
  33 H :    0.124596
  34 H :    0.124596
  35 H :    0.124596
  36 H :    0.124596
  37 H :    0.124596

-------------------------------
LOEWDIN REDUCED ORBITAL CHARGES
-------------------------------
  0 C s       :     2.830107  s :     2.830107
      pz      :     1.046070  p :     3.138210
      px      :     1.046070
      py      :     1.046070
      dz2     :     0.012879  d :     0.128452
      dxz     :     0.034231
      dyz     :     0.034231
      dx2y2   :     0.012879
      dxy     :     0.034231
  1 C s       :     2.830107  s :     2.830107
      pz      :     1.046070  p :     3.138210
      px      :     1.046070
      py      :     1.046070
      dz2     :     0.012879  d :     0.128452
      dxz     :     0.034231
      dyz     :     0.034231
      dx2y2   :     0.012879
      dxy     :     0.034231
  2 C s       :     2.830107  s :     2.830107
      pz      :     1.046070  p :     3.138210
      px      :     1.046070
      py      :     1.046070
      dz2     :     0.012879  d :     0.128452
      dxz     :     0.034231
      dyz     :     0.034231
      dx2y2   :     0.012879
      dxy     :     0.034231
  3 C s       :     2.830107  s :     2.830107
      pz      :     1.046070  p :     3.138210
      px      :     1.046070
      py      :     1.046070
      dz2     :     0.012879  d :     0.128452
      dxz     :     0.034231
      dyz     :     0.034231
      dx2y2   :     0.012879
      dxy     :     0.034231
  4 C s       :     2.905110  s :     2.905110
      pz      :     1.071110  p :     3.206832
      px      :     1.064612
      py      :     1.071110
      dz2     :     0.006721  d :     0.089629
      dxz     :     0.025493
      dyz     :     0.025404
      dx2y2   :     0.006517
      dxy     :     0.025493
  5 C s       :     2.905110  s :     2.905110
      pz      :     1.064612  p :     3.206832
      px      :     1.071110
      py      :     1.071110
      dz2     :     0.006415  d :     0.089629
      dxz     :     0.025493
      dyz     :     0.025493
      dx2y2   :     0.006823
      dxy     :     0.025404
  6 C s       :     2.905110  s :     2.905110
      pz      :     1.071110  p :     3.206832
      px      :     1.071110
      py      :     1.064612
      dz2     :     0.006721  d :     0.089629
      dxz     :     0.025404
      dyz     :     0.025493
      dx2y2   :     0.006517
      dxy     :     0.025493
  7 C s       :     2.905110  s :     2.905110
      pz      :     1.071110  p :     3.206832
      px      :     1.071110
      py      :     1.064612
      dz2     :     0.006721  d :     0.089629
      dxz     :     0.025404
      dyz     :     0.025493
      dx2y2   :     0.006517
      dxy     :     0.025493
  8 C s       :     2.905110  s :     2.905110
      pz      :     1.071110  p :     3.206832
      px      :     1.064612
      py      :     1.071110
      dz2     :     0.006721  d :     0.089629
      dxz     :     0.025493
      dyz     :     0.025404
      dx2y2   :     0.006517
      dxy     :     0.025493
  9 C s       :     2.905110  s :     2.905110
      pz      :     1.064612  p :     3.206832
      px      :     1.071110
      py      :     1.071110
      dz2     :     0.006415  d :     0.089629
      dxz     :     0.025493
      dyz     :     0.025493
      dx2y2   :     0.006823
      dxy     :     0.025404
 10 H s       :     0.879279  s :     0.879279
 11 H s       :     0.879279  s :     0.879279
 12 H s       :     0.879279  s :     0.879279
 13 H s       :     0.879279  s :     0.879279
 14 H s       :     0.879279  s :     0.879279
 15 H s       :     0.879279  s :     0.879279
 16 H s       :     0.879279  s :     0.879279
 17 H s       :     0.879279  s :     0.879279
 18 H s       :     0.879279  s :     0.879279
 19 H s       :     0.879279  s :     0.879279
 20 H s       :     0.879279  s :     0.879279
 21 H s       :     0.879279  s :     0.879279
 22 C s       :     2.949047  s :     2.949047
      pz      :     1.105778  p :     3.317335
      px      :     1.105778
      py      :     1.105778
      dz2     :     0.003546  d :     0.070444
      dxz     :     0.021117
      dyz     :     0.021117
      dx2y2   :     0.003546
      dxy     :     0.021117
 23 C s       :     2.949047  s :     2.949047
      pz      :     1.105778  p :     3.317335
      px      :     1.105778
      py      :     1.105778
      dz2     :     0.003546  d :     0.070444
      dxz     :     0.021117
      dyz     :     0.021117
      dx2y2   :     0.003546
      dxy     :     0.021117
 24 C s       :     2.949047  s :     2.949047
      pz      :     1.105778  p :     3.317335
      px      :     1.105778
      py      :     1.105778
      dz2     :     0.003546  d :     0.070444
      dxz     :     0.021117
      dyz     :     0.021117
      dx2y2   :     0.003546
      dxy     :     0.021117
 25 C s       :     2.949047  s :     2.949047
      pz      :     1.105778  p :     3.317335
      px      :     1.105778
      py      :     1.105778
      dz2     :     0.003546  d :     0.070444
      dxz     :     0.021117
      dyz     :     0.021117
      dx2y2   :     0.003546
      dxy     :     0.021117
 26 H s       :     0.875404  s :     0.875404
 27 H s       :     0.875404  s :     0.875404
 28 H s       :     0.875404  s :     0.875404
 29 H s       :     0.875404  s :     0.875404
 30 H s       :     0.875404  s :     0.875404
 31 H s       :     0.875404  s :     0.875404
 32 H s       :     0.875404  s :     0.875404
 33 H s       :     0.875404  s :     0.875404
 34 H s       :     0.875404  s :     0.875404
 35 H s       :     0.875404  s :     0.875404
 36 H s       :     0.875404  s :     0.875404
 37 H s       :     0.875404  s :     0.875404


                      *****************************
                      * MAYER POPULATION ANALYSIS *
                      *****************************

  NA   - Mulliken gross atomic population
  ZA   - Total nuclear charge
  QA   - Mulliken gross atomic charge
  VA   - Mayer's total valence
  BVA  - Mayer's bonded valence
  FA   - Mayer's free valence

  ATOM       NA         ZA         QA         VA         BVA        FA
  0 C      6.1049     6.0000    -0.1049     3.8195     3.8195     0.0000
  1 C      6.1049     6.0000    -0.1049     3.8195     3.8195     0.0000
  2 C      6.1049     6.0000    -0.1049     3.8195     3.8195    -0.0000
  3 C      6.1049     6.0000    -0.1049     3.8195     3.8195     0.0000
  4 C      6.3529     6.0000    -0.3529     3.6242     3.6242    -0.0000
  5 C      6.3529     6.0000    -0.3529     3.6242     3.6242    -0.0000
  6 C      6.3529     6.0000    -0.3529     3.6242     3.6242    -0.0000
  7 C      6.3529     6.0000    -0.3529     3.6242     3.6242    -0.0000
  8 C      6.3529     6.0000    -0.3529     3.6242     3.6242     0.0000
  9 C      6.3529     6.0000    -0.3529     3.6242     3.6242     0.0000
 10 H      0.7948     1.0000     0.2052     0.9207     0.9207    -0.0000
 11 H      0.7948     1.0000     0.2052     0.9207     0.9207     0.0000
 12 H      0.7948     1.0000     0.2052     0.9207     0.9207     0.0000
 13 H      0.7948     1.0000     0.2052     0.9207     0.9207    -0.0000
 14 H      0.7948     1.0000     0.2052     0.9207     0.9207     0.0000
 15 H      0.7948     1.0000     0.2052     0.9207     0.9207     0.0000
 16 H      0.7948     1.0000     0.2052     0.9207     0.9207     0.0000
 17 H      0.7948     1.0000     0.2052     0.9207     0.9207    -0.0000
 18 H      0.7948     1.0000     0.2052     0.9207     0.9207    -0.0000
 19 H      0.7948     1.0000     0.2052     0.9207     0.9207     0.0000
 20 H      0.7948     1.0000     0.2052     0.9207     0.9207    -0.0000
 21 H      0.7948     1.0000     0.2052     0.9207     0.9207     0.0000
 22 C      6.6140     6.0000    -0.6140     3.7118     3.7118     0.0000
 23 C      6.6140     6.0000    -0.6140     3.7118     3.7118     0.0000
 24 C      6.6140     6.0000    -0.6140     3.7118     3.7118     0.0000
 25 C      6.6140     6.0000    -0.6140     3.7118     3.7118    -0.0000
 26 H      0.7891     1.0000     0.2109     0.9188     0.9188     0.0000
 27 H      0.7891     1.0000     0.2109     0.9188     0.9188     0.0000
 28 H      0.7891     1.0000     0.2109     0.9188     0.9188    -0.0000
 29 H      0.7891     1.0000     0.2109     0.9188     0.9188    -0.0000
 30 H      0.7891     1.0000     0.2109     0.9188     0.9188     0.0000
 31 H      0.7891     1.0000     0.2109     0.9188     0.9188     0.0000
 32 H      0.7891     1.0000     0.2109     0.9188     0.9188    -0.0000
 33 H      0.7891     1.0000     0.2109     0.9188     0.9188     0.0000
 34 H      0.7891     1.0000     0.2109     0.9188     0.9188     0.0000
 35 H      0.7891     1.0000     0.2109     0.9188     0.9188     0.0000
 36 H      0.7891     1.0000     0.2109     0.9188     0.9188    -0.0000
 37 H      0.7891     1.0000     0.2109     0.9188     0.9188    -0.0000

  Mayer bond orders larger than 0.100000
B(  0-C ,  4-C ) :   0.9676 B(  0-C ,  5-C ) :   0.9676 B(  0-C ,  7-C ) :   0.9676 
B(  0-C , 22-C ) :   1.0030 B(  1-C ,  5-C ) :   0.9676 B(  1-C ,  6-C ) :   0.9676 
B(  1-C ,  8-C ) :   0.9676 B(  1-C , 23-C ) :   1.0030 B(  2-C ,  4-C ) :   0.9676 
B(  2-C ,  6-C ) :   0.9676 B(  2-C ,  9-C ) :   0.9676 B(  2-C , 24-C ) :   1.0030 
B(  3-C ,  7-C ) :   0.9676 B(  3-C ,  8-C ) :   0.9676 B(  3-C ,  9-C ) :   0.9676 
B(  3-C , 25-C ) :   1.0030 B(  4-C , 10-H ) :   0.9214 B(  4-C , 19-H ) :   0.9214 
B(  5-C , 11-H ) :   0.9214 B(  5-C , 20-H ) :   0.9214 B(  6-C , 12-H ) :   0.9214 
B(  6-C , 21-H ) :   0.9214 B(  7-C , 13-H ) :   0.9214 B(  7-C , 17-H ) :   0.9214 
B(  8-C , 14-H ) :   0.9214 B(  8-C , 18-H ) :   0.9214 B(  9-C , 15-H ) :   0.9214 
B(  9-C , 16-H ) :   0.9214 B( 22-C , 28-H ) :   0.9288 B( 22-C , 31-H ) :   0.9288 
B( 22-C , 34-H ) :   0.9288 B( 23-C , 26-H ) :   0.9288 B( 23-C , 29-H ) :   0.9288 
B( 23-C , 32-H ) :   0.9288 B( 24-C , 27-H ) :   0.9288 B( 24-C , 30-H ) :   0.9288 
B( 24-C , 33-H ) :   0.9288 B( 25-C , 35-H ) :   0.9288 B( 25-C , 36-H ) :   0.9288 
B( 25-C , 37-H ) :   0.9288 

-------
TIMINGS
-------

Total SCF time: 0 days 0 hours 3 min 57 sec 

Total time                  ....     237.754 sec
Sum of individual times     ....     230.346 sec  ( 96.9%)

Fock matrix formation       ....     206.425 sec  ( 86.8%)
  Split-RI-J                ....      14.867 sec  (  7.2% of F)
  Chain of spheres X        ....     142.061 sec  ( 68.8% of F)
  XC integration            ....      36.288 sec  ( 17.6% of F)
    Basis function eval.    ....      10.805 sec  ( 29.8% of XC)
    Density eval.           ....       7.485 sec  ( 20.6% of XC)
    XC-Functional eval.     ....       2.388 sec  (  6.6% of XC)
    XC-Potential eval.      ....       4.432 sec  ( 12.2% of XC)
Diagonalization             ....       1.122 sec  (  0.5%)
Density matrix formation    ....       0.022 sec  (  0.0%)
Population analysis         ....       0.276 sec  (  0.1%)
Initial guess               ....       0.072 sec  (  0.0%)
Orbital Transformation      ....       0.000 sec  (  0.0%)
Orbital Orthonormalization  ....       0.000 sec  (  0.0%)
DIIS solution               ....       1.666 sec  (  0.7%)
SOSCF solution              ....       0.781 sec  (  0.3%)
Grid generation             ....      19.982 sec  (  8.4%)

Maximum memory used throughout the entire SCF-calculation: 101.6 MB


-------------------------------------------------------------------------------
                          DFT DISPERSION CORRECTION                            
                                                                               
                              DFTD3 V3.1  Rev 1                                
                          USING Becke-Johnson damping                          
-------------------------------------------------------------------------------
The PBEh-3c composite method is recognized
Using three-body term ABC
Active option DFTDOPT                   ...         4   

molecular C6(AA) [au] = 10360.274163 


            DFT-D V3
 parameters
 s6 scaling factor         :     1.0000 
 a1 scaling factor         :     0.4860 
 s8 scaling factor         :     0.0000 
 a2 scaling factor         :     4.5000 
 Damping factor alpha9(ATM):    16.0000 
 ad hoc parameters k1-k3   :    16.0000     1.3333    -4.0000 

 Edisp/kcal,au: -17.813263913162  -0.028387239953 
 E6   /kcal   : -18.149484660 
 E8   /kcal   :  -0.000000000 
 E6(ABC)      :   0.336220747 
 % E8         :   0.000000000 
 % E6(ABC)    :  -1.887474125 

-------------------------   ----------------
Dispersion correction           -0.028387240
-------------------------   ----------------

------------------   -----------------
gCP correction             0.062483766
------------------   -----------------

-------------------------   --------------------
FINAL SINGLE POINT ENERGY      -546.824366495754
-------------------------   --------------------


                            ***************************************
                            *     ORCA property calculations      *
                            ***************************************

                                    ---------------------
                                    Active property flags
                                    ---------------------
   (+) Dipole Moment


------------------------------------------------------------------------------
                       ORCA ELECTRIC PROPERTIES CALCULATION
------------------------------------------------------------------------------

Dipole Moment Calculation                       ... on
Quadrupole Moment Calculation                   ... off
Polarizability Calculation                      ... off
GBWName                                         ... pbeh-3c.gbw
Electron density                                ... pbeh-3c.scfp
The origin for moment calculation is the CENTER OF MASS  = ( 0.000000, -0.000000  0.000000)

-------------
DIPOLE MOMENT
-------------
                                X             Y             Z
Electronic contribution:      0.00000       0.00000       0.00000
Nuclear contribution   :      0.00000       0.00000      -0.00000
                        -----------------------------------------
Total Dipole Moment    :      0.00000       0.00000       0.00000
                        -----------------------------------------
Magnitude (a.u.)       :      0.00000
Magnitude (Debye)      :      0.00000



--------------------
Rotational spectrum 
--------------------
 
Rotational constants in cm-1:     0.024630     0.024630     0.024630 
Rotational constants in MHz :   738.393764   738.393764   738.393764 

 Dipole components along the rotational axes: 
x,y,z [a.u.] :     0.000000     0.000001     0.000000 
x,y,z [Debye]:     0.000000     0.000002     0.000000 

 

Timings for individual modules:

Sum of individual times         ...      242.564 sec (=   4.043 min)
GTO integral calculation        ...        4.027 sec (=   0.067 min)   1.7 %
SCF iterations                  ...      238.537 sec (=   3.976 min)  98.3 %
                             ****ORCA TERMINATED NORMALLY****
TOTAL RUN TIME: 0 days 0 hours 4 minutes 5 seconds 951 msec
