
                                 *****************
                                 * O   R   C   A *
                                 *****************

                                            #,                                       
                                            ###                                      
                                            ####                                     
                                            #####                                    
                                            ######                                   
                                           ########,                                 
                                     ,,################,,,,,                         
                               ,,#################################,,                 
                          ,,##########################################,,             
                       ,#########################################, ''#####,          
                    ,#############################################,,   '####,        
                  ,##################################################,,,,####,       
                ,###########''''           ''''###############################       
              ,#####''   ,,,,##########,,,,          '''####'''          '####       
            ,##' ,,,,###########################,,,                        '##       
           ' ,,###''''                  '''############,,,                           
         ,,##''                                '''############,,,,        ,,,,,,###''
      ,#''                                            '''#######################'''  
     '                                                          ''''####''''         
             ,#######,   #######,   ,#######,      ##                                
            ,#'     '#,  ##    ##  ,#'     '#,    #''#        ######   ,####,        
            ##       ##  ##   ,#'  ##            #'  '#       #        #'  '#        
            ##       ##  #######   ##           ,######,      #####,   #    #        
            '#,     ,#'  ##    ##  '#,     ,#' ,#      #,         ##   #,  ,#        
             '#######'   ##     ##  '#######'  #'      '#     #####' # '####'        



                  #######################################################
                  #                        -***-                        #
                  #          Department of theory and spectroscopy      #
                  #    Directorship and core code : Frank Neese         #
                  #        Max Planck Institute fuer Kohlenforschung    #
                  #                Kaiser Wilhelm Platz 1               #
                  #                 D-45470 Muelheim/Ruhr               #
                  #                      Germany                        #
                  #                                                     #
                  #                  All rights reserved                #
                  #                        -***-                        #
                  #######################################################


                         Program Version 5.0.3 -  RELEASE  -


 With contributions from (in alphabetic order):
   Daniel Aravena         : Magnetic Suceptibility
   Michael Atanasov       : Ab Initio Ligand Field Theory (pilot matlab implementation)
   Alexander A. Auer      : GIAO ZORA, VPT2 properties, NMR spectrum
   Ute Becker             : Parallelization
   Giovanni Bistoni       : ED, misc. LED, open-shell LED, HFLD
   Martin Brehm           : Molecular dynamics
   Dmytro Bykov           : SCF Hessian
   Vijay G. Chilkuri      : MRCI spin determinant printing, contributions to CSF-ICE
   Dipayan Datta          : RHF DLPNO-CCSD density
   Achintya Kumar Dutta   : EOM-CC, STEOM-CC
   Dmitry Ganyushin       : Spin-Orbit,Spin-Spin,Magnetic field MRCI
   Miquel Garcia          : C-PCM and meta-GGA Hessian, CC/C-PCM, Gaussian charge scheme
   Yang Guo               : DLPNO-NEVPT2, F12-NEVPT2, CIM, IAO-localization
   Andreas Hansen         : Spin unrestricted coupled pair/coupled cluster methods
   Benjamin Helmich-Paris : MC-RPA, TRAH-SCF, COSX integrals
   Lee Huntington         : MR-EOM, pCC
   Robert Izsak           : Overlap fitted RIJCOSX, COSX-SCS-MP3, EOM
   Marcus Kettner         : VPT2
   Christian Kollmar      : KDIIS, OOCD, Brueckner-CCSD(T), CCSD density, CASPT2, CASPT2-K
   Simone Kossmann        : Meta GGA functionals, TD-DFT gradient, OOMP2, MP2 Hessian
   Martin Krupicka        : Initial AUTO-CI
   Lucas Lang             : DCDCAS
   Marvin Lechner         : AUTO-CI (C++ implementation), FIC-MRCC
   Dagmar Lenk            : GEPOL surface, SMD
   Dimitrios Liakos       : Extrapolation schemes; Compound Job, initial MDCI parallelization
   Dimitrios Manganas     : Further ROCIS development; embedding schemes
   Dimitrios Pantazis     : SARC Basis sets
   Anastasios Papadopoulos: AUTO-CI, single reference methods and gradients
   Taras Petrenko         : DFT Hessian,TD-DFT gradient, ASA, ECA, R-Raman, ABS, FL, XAS/XES, NRVS
   Peter Pinski           : DLPNO-MP2, DLPNO-MP2 Gradient
   Christoph Reimann      : Effective Core Potentials
   Marius Retegan         : Local ZFS, SOC
   Christoph Riplinger    : Optimizer, TS searches, QM/MM, DLPNO-CCSD(T), (RO)-DLPNO pert. Triples
   Tobias Risthaus        : Range-separated hybrids, TD-DFT gradient, RPA, STAB
   Michael Roemelt        : Original ROCIS implementation
   Masaaki Saitow         : Open-shell DLPNO-CCSD energy and density
   Barbara Sandhoefer     : DKH picture change effects
   Avijit Sen             : IP-ROCIS
   Kantharuban Sivalingam : CASSCF convergence, NEVPT2, FIC-MRCI
   Bernardo de Souza      : ESD, SOC TD-DFT
   Georgi Stoychev        : AutoAux, RI-MP2 NMR, DLPNO-MP2 response
   Willem Van den Heuvel  : Paramagnetic NMR
   Boris Wezisla          : Elementary symmetry handling
   Frank Wennmohs         : Technical directorship


 We gratefully acknowledge several colleagues who have allowed us to
 interface, adapt or use parts of their codes:
   Stefan Grimme, W. Hujo, H. Kruse, P. Pracht,  : VdW corrections, initial TS optimization,
                  C. Bannwarth, S. Ehlert          DFT functionals, gCP, sTDA/sTD-DF
   Ed Valeev, F. Pavosevic, A. Kumar             : LibInt (2-el integral package), F12 methods
   Garnet Chan, S. Sharma, J. Yang, R. Olivares  : DMRG
   Ulf Ekstrom                                   : XCFun DFT Library
   Mihaly Kallay                                 : mrcc  (arbitrary order and MRCC methods)
   Jiri Pittner, Ondrej Demel                    : Mk-CCSD
   Frank Weinhold                                : gennbo (NPA and NBO analysis)
   Christopher J. Cramer and Donald G. Truhlar   : smd solvation model
   Lars Goerigk                                  : TD-DFT with DH, B97 family of functionals
   V. Asgeirsson, H. Jonsson                     : NEB implementation
   FAccTs GmbH                                   : IRC, NEB, NEB-TS, DLPNO-Multilevel, CI-OPT
                                                   MM, QMMM, 2- and 3-layer-ONIOM, Crystal-QMMM,
                                                   LR-CPCM, SF, NACMEs, symmetry and pop. for TD-DFT,
                                                   nearIR, NL-DFT gradient (VV10), updates on ESD,
                                                   ML-optimized integration grids
   S Lehtola, MJT Oliveira, MAL Marques          : LibXC Library
   Liviu Ungur et al                             : ANISO software


 Your calculation uses the libint2 library for the computation of 2-el integrals
 For citations please refer to: http://libint.valeyev.net

 Your ORCA version has been built with support for libXC version: 5.1.0
 For citations please refer to: https://tddft.org/programs/libxc/

 This ORCA versions uses:
   CBLAS   interface :  Fast vector & matrix operations
   LAPACKE interface :  Fast linear algebra routines
   SCALAPACK package :  Parallel linear algebra routines
   Shared memory     :  Shared parallel matrices
   BLAS/LAPACK       :  OpenBLAS 0.3.15  USE64BITINT DYNAMIC_ARCH NO_AFFINITY Haswell SINGLE_THREADED
        Core in use  :  Haswell
   Copyright (c) 2011-2014, The OpenBLAS Project




***************************************
The coordinates will be read from file: B58.xyz
***************************************


Your calculation utilizes the geometrical counterpoise correction gCP
Please cite in your paper:
H.Kruse, S. Grimme J.Chem.Phys., 136, (2012), 154101 
   

Your calculation utilizes the atom-pairwise dispersion correction
with the Becke-Johnson damping scheme (D3BJ)
Cite in your paper:
S.Grimme, S.Ehrlich, L.Goerigk, J Comput Chem, (2011), 32, 1456–1465 
S.Grimme, J.Antony, S.Ehrlich and H.Krieg, J.Chem.Phys., 132, (2010), 154104 
   

Your calculation employs the composite approach PBEh-3c.
Please cite in your paper:
S. Grimme, J. G. Brandenburg, C. Bannwarth, A. Hansen J.Chem.Phys., 143, (2015), 054107 
   

================================================================================

----- Orbital basis set information -----
Your calculation utilizes the basis: def2-mSVP

----- AuxJ basis set information -----
Your calculation utilizes the auxiliary basis: def2/J
   F. Weigend, Phys. Chem. Chem. Phys. 8, 1057 (2006).

================================================================================
                                        WARNINGS
                       Please study these warnings very carefully!
================================================================================


INFO   : the flag for use of the SHARK integral package has been found!

================================================================================
                                       INPUT FILE
================================================================================
NAME = pbeh-3c.inp
|  1> ! PBEh-3c def2/J TightSCF DefGrid3
|  2> 
|  3> %maxcore 60000
|  4> 
|  5> %pal
|  6> nprocs 4
|  7> end
|  8> 
|  9> *xyzfile 0 1 B58.xyz
| 10> 
| 11>                          ****END OF INPUT****
================================================================================

                       ****************************
                       * Single Point Calculation *
                       ****************************

---------------------------------
CARTESIAN COORDINATES (ANGSTROEM)
---------------------------------
  C      1.551158   -0.405860   -0.309878
  H      1.510926   -0.413951   -1.399052
  O      2.932465   -0.287909    0.019515
  C      0.724857    0.757426    0.227262
  H      0.752642    0.744417    1.321953
  H      1.208286    1.682648   -0.089499
  C     -0.729842    0.745051   -0.250571
  H     -0.768201    0.720206   -1.341864
  H     -1.212539    1.676131    0.060250
  H      3.004004   -0.328147    0.976968
  H      1.154591   -1.362741    0.041370
  C     -1.543407   -0.421918    0.297669
  H     -1.156740   -1.371391   -0.067611
  H     -1.476089   -0.437118    1.391718
  O     -2.901791   -0.386888   -0.127735
  H     -3.278866    0.440139    0.184631

----------------------------
CARTESIAN COORDINATES (A.U.)
----------------------------
  NO LB      ZA    FRAG     MASS         X           Y           Z
   0 C     6.0000    0    12.011    2.931264   -0.766964   -0.585585
   1 H     1.0000    0     1.008    2.855236   -0.782254   -2.643825
   2 O     8.0000    0    15.999    5.541556   -0.544069    0.036878
   3 C     6.0000    0    12.011    1.369781    1.431328    0.429463
   4 H     1.0000    0     1.008    1.422287    1.406744    2.498129
   5 H     1.0000    0     1.008    2.283330    3.179744   -0.169129
   6 C     6.0000    0    12.011   -1.379202    1.407942   -0.473511
   7 H     1.0000    0     1.008   -1.451690    1.360992   -2.535755
   8 H     1.0000    0     1.008   -2.291367    3.167429    0.113856
   9 H     1.0000    0     1.008    5.676745   -0.620108    1.846202
  10 H     1.0000    0     1.008    2.181861   -2.575207    0.078178
  11 C     6.0000    0    12.011   -2.916617   -0.797309    0.562513
  12 H     1.0000    0     1.008   -2.185922   -2.591553   -0.127766
  13 H     1.0000    0     1.008   -2.789404   -0.826033    2.629966
  14 O     8.0000    0    15.999   -5.483590   -0.731112   -0.241384
  15 H     1.0000    0     1.008   -6.196159    0.831742    0.348902

--------------------------------
INTERNAL COORDINATES (ANGSTROEM)
--------------------------------
 C      0   0   0     0.000000000000     0.00000000     0.00000000
 H      1   0   0     1.089946824566     0.00000000     0.00000000
 O      1   2   0     1.424928494732   105.50943509     0.00000000
 C      1   2   3     1.524639970615   109.73773806   121.29175911
 H      4   1   2     1.095120827026   109.22955322   178.74380560
 H      4   1   2     1.090906448072   107.73671023   294.40262681
 C      4   1   2     1.531217390547   113.50156905    56.08323198
 H      7   4   1     1.092249558826   110.20228733   304.54553282
 H      7   4   1     1.093853762735   108.88546087   187.80447514
 H      3   1   2     0.960964709224   107.39873605   183.13961574
 H      1   2   3     1.093737533028   107.52002097   242.08701822
 C      7   4   1     1.524556248154   113.63698483    67.01847118
 H     12   7   4     1.088319725549   110.94674363   295.55574606
 H     12   7   4     1.096223502542   109.67814750    54.19221222
 O     12   7   4     1.423868939043   112.50897684   178.15946865
 H     15  12   7     0.961109635947   107.35902838   300.43400956

---------------------------
INTERNAL COORDINATES (A.U.)
---------------------------
 C      0   0   0     0.000000000000     0.00000000     0.00000000
 H      1   0   0     2.059700998966     0.00000000     0.00000000
 O      1   2   0     2.692724615464   105.50943509     0.00000000
 C      1   2   3     2.881151997292   109.73773806   121.29175911
 H      4   1   2     2.069478446633   109.22955322   178.74380560
 H      4   1   2     2.061514424586   107.73671023   294.40262681
 C      4   1   2     2.893581519632   113.50156905    56.08323198
 H      7   4   1     2.064052536077   110.20228733   304.54553282
 H      7   4   1     2.067084042129   108.88546087   187.80447514
 H      3   1   2     1.815960124797   107.39873605   183.13961574
 H      1   2   3     2.066864399813   107.52002097   242.08701822
 C      7   4   1     2.880993784770   113.63698483    67.01847118
 H     12   7   4     2.056626227431   110.94674363   295.55574606
 H     12   7   4     2.071562201372   109.67814750    54.19221222
 O     12   7   4     2.690722345389   112.50897684   178.15946865
 H     15  12   7     1.816233996612   107.35902838   300.43400956

---------------------
BASIS SET INFORMATION
---------------------
There are 3 groups of distinct atoms

 Group   1 Type C   : 8s4p1d contracted to 4s2p1d pattern {5111/31/1}
 Group   2 Type H   : 4s contracted to 2s pattern {31}
 Group   3 Type O   : 8s4p1d contracted to 4s2p1d pattern {5111/31/1}

Atom   0C    basis set group =>   1
Atom   1H    basis set group =>   2
Atom   2O    basis set group =>   3
Atom   3C    basis set group =>   1
Atom   4H    basis set group =>   2
Atom   5H    basis set group =>   2
Atom   6C    basis set group =>   1
Atom   7H    basis set group =>   2
Atom   8H    basis set group =>   2
Atom   9H    basis set group =>   2
Atom  10H    basis set group =>   2
Atom  11C    basis set group =>   1
Atom  12H    basis set group =>   2
Atom  13H    basis set group =>   2
Atom  14O    basis set group =>   3
Atom  15H    basis set group =>   2
---------------------------------
AUXILIARY/J BASIS SET INFORMATION
---------------------------------
There are 3 groups of distinct atoms

 Group   1 Type C   : 12s5p4d2f1g contracted to 6s4p3d1f1g pattern {711111/2111/211/2/1}
 Group   2 Type H   : 5s2p1d contracted to 3s1p1d pattern {311/2/1}
 Group   3 Type O   : 12s5p4d2f1g contracted to 6s4p3d1f1g pattern {711111/2111/211/2/1}

Atom   0C    basis set group =>   1
Atom   1H    basis set group =>   2
Atom   2O    basis set group =>   3
Atom   3C    basis set group =>   1
Atom   4H    basis set group =>   2
Atom   5H    basis set group =>   2
Atom   6C    basis set group =>   1
Atom   7H    basis set group =>   2
Atom   8H    basis set group =>   2
Atom   9H    basis set group =>   2
Atom  10H    basis set group =>   2
Atom  11C    basis set group =>   1
Atom  12H    basis set group =>   2
Atom  13H    basis set group =>   2
Atom  14O    basis set group =>   3
Atom  15H    basis set group =>   2


           ************************************************************
           *        Program running with 4 parallel MPI-processes     *
           *              working on a common directory               *
           ************************************************************
------------------------------------------------------------------------------
                           ORCA GTO INTEGRAL CALCULATION
                           -- RI-GTO INTEGRALS CHOSEN --
------------------------------------------------------------------------------
------------------------------------------------------------------------------
                   ___                                                        
                  /   \      - P O W E R E D   B Y -                         
                 /     \                                                     
                 |  |  |   _    _      __       _____    __    __             
                 |  |  |  | |  | |    /  \     |  _  \  |  |  /  |          
                  \  \/   | |  | |   /    \    | | | |  |  | /  /          
                 / \  \   | |__| |  /  /\  \   | |_| |  |  |/  /          
                |  |  |   |  __  | /  /__\  \  |    /   |      \           
                |  |  |   | |  | | |   __   |  |    \   |  |\   \          
                \     /   | |  | | |  |  |  |  | |\  \  |  | \   \       
                 \___/    |_|  |_| |__|  |__|  |_| \__\ |__|  \__/        
                                                                              
                      - O R C A' S   B I G   F R I E N D -                    
                                      &                                       
                       - I N T E G R A L  F E E D E R -                       
                                                                              
 v1 FN, 2020, v2 2021                                                         
------------------------------------------------------------------------------


Reading SHARK input file pbeh-3c.SHARKINP.tmp ... ok
----------------------
SHARK INTEGRAL PACKAGE
----------------------

Number of atoms                             ...     16
Number of basis functions                   ...    110
Number of shells                            ...     62
Maximum angular momentum                    ...      2
Integral batch strategy                     ... SHARK/LIBINT Hybrid
RI-J (if used) integral strategy            ... SPLIT-RIJ (Revised 2003 algorithm where possible)
Printlevel                                  ...      1
Contraction scheme used                     ... SEGMENTED contraction
Coulomb Range Separation                    ... NOT USED
Exchange Range Separation                   ... NOT USED
Finite Nucleus Model                        ... NOT USED
Auxiliary Coulomb fitting basis             ... AVAILABLE
   # of basis functions in Aux-J            ...    404
   # of shells in Aux-J                     ...    140
   Maximum angular momentum in Aux-J        ...      4
Auxiliary J/K fitting basis                 ... NOT available
Auxiliary Correlation fitting basis         ... NOT available
Auxiliary 'external' fitting basis          ... NOT available
Integral threshold                          ...     2.500000e-11
Primitive cut-off                           ...     2.500000e-12
Primitive pair pre-selection threshold      ...     2.500000e-12

Calculating pre-screening integrals         ... done (  0.1 sec) Dimension = 62
Organizing shell pair data                  ... done (  0.6 sec)
Shell pair information
Total number of shell pairs                 ...      1953
Shell pairs after pre-screening             ...      1770
Total number of primitive shell pairs       ...      7129
Primitive shell pairs kept                  ...      4729
          la=0 lb=0:    872 shell pairs
          la=1 lb=0:    496 shell pairs
          la=1 lb=1:     77 shell pairs
          la=2 lb=0:    237 shell pairs
          la=2 lb=1:     68 shell pairs
          la=2 lb=2:     20 shell pairs

Calculating one electron integrals          ... done (  0.0 sec)
Calculating RI/J V-Matrix + Cholesky decomp.... done (  0.4 sec)
Calculating Nuclear repulsion               ... done (  0.0 sec) ENN=    248.190851438218 Eh

SHARK setup successfully completed in   2.8 seconds

Maximum memory used throughout the entire GTOINT-calculation: 10.5 MB


           ************************************************************
           *        Program running with 4 parallel MPI-processes     *
           *              working on a common directory               *
           ************************************************************
-------------------------------------------------------------------------------
                                 ORCA SCF
-------------------------------------------------------------------------------

------------
SCF SETTINGS
------------
Hamiltonian:
 Density Functional     Method          .... DFT(GTOs)
 Exchange Functional    Exchange        .... PBE
   PBE kappa parameter   XKappa         ....  1.024500
   PBE mue parameter    XMuePBE         ....  0.123457
 Correlation Functional Correlation     .... PBE
   PBE beta parameter  CBetaPBE         ....  0.030000
 LDA part of GGA corr.  LDAOpt          .... PW91-LDA
 Gradients option       PostSCFGGA      .... off
 Hybrid DFT is turned on
   Fraction HF Exchange ScalHFX         ....  0.420000
   Scaling of DF-GGA-X  ScalDFX         ....  0.580000
   Scaling of DF-GGA-C  ScalDFC         ....  1.000000
   Scaling of DF-LDA-C  ScalLDAC        ....  1.000000
   Perturbative correction              ....  0.000000
   Density functional embedding theory  .... OFF
 RI-approximation to the Coulomb term is turned on
   Number of AuxJ basis functions       .... 404
   RIJ-ON(X) (HFX calculated with O(N)) .... on
   Number of AuxJ basis functions       .... 404
   RIJ-COSX (HFX calculated with COS-X)).... on


General Settings:
 Integral files         IntName         .... pbeh-3c
 Hartree-Fock type      HFTyp           .... RHF
 Total Charge           Charge          ....    0
 Multiplicity           Mult            ....    1
 Number of Electrons    NEL             ....   50
 Basis Dimension        Dim             ....  110
 Nuclear Repulsion      ENuc            ....    248.1908514382 Eh

Convergence Acceleration:
 DIIS                   CNVDIIS         .... on
   Start iteration      DIISMaxIt       ....    12
   Startup error        DIISStart       ....  0.200000
   # of expansion vecs  DIISMaxEq       ....     5
   Bias factor          DIISBfac        ....   1.050
   Max. coefficient     DIISMaxC        ....  10.000
 Trust-Rad. Augm. Hess. CNVTRAH         .... auto
   Auto Start mean grad. ratio tolernc. ....  1.125000
   Auto Start start iteration           ....    20
   Auto Start num. interpolation iter.  ....    10
   Max. Number of Micro iterations      ....    16
   Max. Number of Macro iterations      .... Maxiter - #DIIS iter
   Number of Davidson start vectors     ....     2
   Converg. threshold I  (grad. norm)   ....   1.000e-05
   Converg. threshold II (energy diff.) ....   1.000e-08
   Grad. Scal. Fac. for Micro threshold ....   0.100
   Minimum threshold for Micro iter.    ....   0.010
   NR start threshold (gradient norm)   ....   0.001
   Initial trust radius                 ....   0.400
   Minimum AH scaling param. (alpha)    ....   1.000
   Maximum AH scaling param. (alpha)    .... 1000.000
   Orbital update algorithm             .... Taylor
   White noise on init. David. guess    .... on
   Maximum white noise                  ....   0.010
   Quad. conv. algorithm                .... NR
   COSX micro iterations for RIJONX calc.... off
 SOSCF                  CNVSOSCF        .... on
   Start iteration      SOSCFMaxIt      ....   150
   Startup grad/error   SOSCFStart      ....  0.003300
 Level Shifting         CNVShift        .... on
   Level shift para.    LevelShift      ....    0.2500
   Turn off err/grad.   ShiftErr        ....    0.0010
 Zerner damping         CNVZerner       .... off
 Static damping         CNVDamp         .... on
   Fraction old density DampFac         ....    0.7000
   Max. Damping (<1)    DampMax         ....    0.9800
   Min. Damping (>=0)   DampMin         ....    0.0000
   Turn off err/grad.   DampErr         ....    0.1000
 Fernandez-Rico         CNVRico         .... off

SCF Procedure:
 Maximum # iterations   MaxIter         ....   125
 SCF integral mode      SCFMode         .... Direct
   Integral package                     .... SHARK and LIBINT hybrid scheme
 Reset frequency        DirectResetFreq ....    20
 Integral Threshold     Thresh          ....  2.500e-11 Eh
 Primitive CutOff       TCut            ....  2.500e-12 Eh

Convergence Tolerance:
 Convergence Check Mode ConvCheckMode   .... Total+1el-Energy
 Convergence forced     ConvForced      .... 0
 Energy Change          TolE            ....  1.000e-08 Eh
 1-El. energy change                    ....  1.000e-05 Eh
 Orbital Gradient       TolG            ....  1.000e-05
 Orbital Rotation angle TolX            ....  1.000e-05
 DIIS Error             TolErr          ....  5.000e-07


Diagonalization of the overlap matrix:
Smallest eigenvalue                        ... 5.862e-03
Time for diagonalization                   ...    0.002 sec
Threshold for overlap eigenvalues          ... 1.000e-08
Number of eigenvalues below threshold      ... 0
Time for construction of square roots      ...    0.346 sec
Total time needed                          ...    0.349 sec

--------------------------------
INITIAL GUESS: MINIMAL BASIS EHT
--------------------------------
The minimal basis has 40 functions
EHT matrix was diagonalized
Basis set overlap was calculated now projecting the orbitals
Using GuessMode=FMatrix for the initial guess
C*T matrix was formed
Effective Fockian was calculated
Effective Fockian was diagonalized
Initial density was built
                      ------------------
                      INITIAL GUESS DONE
                      ------------------
-------------------
DFT GRID GENERATION
-------------------

General Integration Accuracy     IntAcc      ... 4.959
Radial Grid Type                 RadialGrid  ... OptM3 with GC (2021)
Angular Grid (max. ang.)         AngularGrid ... 6 (Lebedev-590)
Angular grid pruning method      GridPruning ... 4 (adaptive)
Weight generation scheme         WeightScheme... Becke
Basis function cutoff            BFCut       ... 1.0000e-11
Integration weight cutoff        WCut        ... 1.0000e-14
Angular grids for H and He will be reduced by one unit
Partially contracted basis set               ... off
Rotationally invariant grid construction     ... off

Total number of grid points                  ...   172893
Total number of batches                      ...     2709
Average number of points per batch           ...       63
Average number of grid points per atom       ...    10806
Time for grid setup =    3.780 sec

--------------------
COSX GRID GENERATION
--------------------

GRIDX 1
-------
General Integration Accuracy     IntAcc      ... 4.020
Radial Grid Type                 RadialGrid  ... OptM3 with GC (2021)
Angular Grid (max. ang.)         AngularGrid ... 2 (Lebedev-110)
Angular grid pruning method      GridPruning ... 4 (adaptive)
Weight generation scheme         WeightScheme... Becke
Basis function cutoff            BFCut       ... 1.0000e-11
Integration weight cutoff        WCut        ... 1.0000e-14
Angular grids for H and He will be reduced by one unit
Partially contracted basis set               ... on
Rotationally invariant grid construction     ... off

Total number of grid points                  ...    18410
Total number of batches                      ...      297
Average number of points per batch           ...       61
Average number of grid points per atom       ...     1151
UseSFitting                                  ... on

GRIDX 2
-------
General Integration Accuracy     IntAcc      ... 4.338
Radial Grid Type                 RadialGrid  ... OptM3 with GC (2021)
Angular Grid (max. ang.)         AngularGrid ... 3 (Lebedev-194)
Angular grid pruning method      GridPruning ... 4 (adaptive)
Weight generation scheme         WeightScheme... Becke
Basis function cutoff            BFCut       ... 1.0000e-11
Integration weight cutoff        WCut        ... 1.0000e-14
Angular grids for H and He will be reduced by one unit
Partially contracted basis set               ... on
Rotationally invariant grid construction     ... off

Total number of grid points                  ...    40367
Total number of batches                      ...      641
Average number of points per batch           ...       62
Average number of grid points per atom       ...     2523
UseSFitting                                  ... on

GRIDX 3
-------
General Integration Accuracy     IntAcc      ... 4.871
Radial Grid Type                 RadialGrid  ... OptM3 with GC (2021)
Angular Grid (max. ang.)         AngularGrid ... 4 (Lebedev-302)
Angular grid pruning method      GridPruning ... 4 (adaptive)
Weight generation scheme         WeightScheme... Becke
Basis function cutoff            BFCut       ... 1.0000e-11
Integration weight cutoff        WCut        ... 1.0000e-14
Angular grids for H and He will be reduced by one unit
Partially contracted basis set               ... on
Rotationally invariant grid construction     ... off

Total number of grid points                  ...    79584
Total number of batches                      ...     1253
Average number of points per batch           ...       63
Average number of grid points per atom       ...     4974
UseSFitting                                  ... on

Time for X-Grid setup             =    5.443 sec

--------------
SCF ITERATIONS
--------------
ITER       Energy         Delta-E        Max-DP      RMS-DP      [F,P]     Damp
               ***  Starting incremental Fock matrix formation  ***
  0   -307.3869362284   0.000000000000 0.17690873  0.00644264  0.4981240 0.7000
  1   -307.6901357577  -0.303199529306 0.09390455  0.00372503  0.2798935 0.7000
                               ***Turning on DIIS***
  2   -307.8542852667  -0.164149509032 0.04506227  0.00201795  0.1972825 0.7000
  3   -307.9662138088  -0.111928542077 0.02391096  0.00121910  0.1386867 0.7000
  4   -308.0456507555  -0.079436946749 0.05501229  0.00300398  0.0970883 0.0000
  5   -308.2361247236  -0.190473968064 0.00849853  0.00031445  0.0093161 0.0000
  6   -308.2363196495  -0.000194925907 0.00241238  0.00008793  0.0048925 0.0000
                      *** Initiating the SOSCF procedure ***
                           *** Shutting down DIIS ***
                      *** Re-Reading the Fockian *** 
                      *** Removing any level shift *** 
ITER      Energy       Delta-E        Grad      Rot      Max-DP    RMS-DP
  7   -308.23639006  -0.0000704134  0.000442  0.000442  0.001538  0.000061
               *** Restarting incremental Fock matrix formation ***
  8   -308.23640571  -0.0000156514  0.000066  0.000132  0.000253  0.000010
  9   -308.23640586  -0.0000001415  0.000032  0.000040  0.000085  0.000004
 10   -308.23640592  -0.0000000665  0.000004  0.000005  0.000013  0.000001
 11   -308.23640592   0.0000000003  0.000003  0.000002  0.000005  0.000000
                  ***Gradient check signals convergence***
              ***Rediagonalizing the Fockian in SOSCF/NRSCF***

               *****************************************************
               *                     SUCCESS                       *
               *           SCF CONVERGED AFTER  12 CYCLES          *
               *****************************************************

Old exchange energy                            =    -17.133023476 Eh
New exchange energy                            =    -17.133028095 Eh
Exchange energy change after final integration =     -0.000004619 Eh
Total energy after final integration           =   -308.236410542 Eh
Final COS-X integration done in                =     2.689 sec

----------------
TOTAL SCF ENERGY
----------------

Total Energy       :         -308.23641054 Eh           -8387.53915 eV

Components:
Nuclear Repulsion  :          248.19085144 Eh            6753.61641 eV
Electronic Energy  :         -556.42726198 Eh          -15141.15556 eV
One Electron Energy:         -911.32666875 Eh          -24798.45939 eV
Two Electron Energy:          354.89940677 Eh            9657.30383 eV
Max COSX asymmetry :            0.00000128 Eh               0.00003 eV

Virial components:
Potential Energy   :         -614.27131515 Eh          -16715.17227 eV
Kinetic Energy     :          306.03490461 Eh            8327.63312 eV
Virial Ratio       :            2.00719364


DFT components:
N(Alpha)           :       25.000001487598 electrons
N(Beta)            :       25.000001487598 electrons
N(Total)           :       50.000002975196 electrons
E(X)               :      -22.763468422671 Eh       
E(C)               :       -2.176987443001 Eh       
E(XC)              :      -24.940455865672 Eh       
DFET-embed. en.    :        0.000000000000 Eh       

---------------
SCF CONVERGENCE
---------------

  Last Energy change         ...   -7.6619e-10  Tolerance :   1.0000e-08
  Last MAX-Density change    ...    1.3323e-15  Tolerance :   1.0000e-07
  Last RMS-Density change    ...    5.4159e-17  Tolerance :   5.0000e-09
  Last Orbital Gradient      ...    5.5110e-07  Tolerance :   1.0000e-05
  Last Orbital Rotation      ...    4.9657e-07  Tolerance :   1.0000e-05

             **** THE GBW FILE WAS UPDATED (pbeh-3c.gbw) ****
             **** DENSITY pbeh-3c.scfp WAS UPDATED ****
             **** ENERGY FILE WAS UPDATED (pbeh-3c.en.tmp) ****
             **** THE GBW FILE WAS UPDATED (pbeh-3c.gbw) ****
             **** DENSITY pbeh-3c.scfp WAS UPDATED ****
----------------
ORBITAL ENERGIES
----------------

  NO   OCC          E(Eh)            E(eV) 
   0   2.0000     -19.487031      -530.2691 
   1   2.0000     -19.486222      -530.2471 
   2   2.0000     -10.483917      -285.2819 
   3   2.0000     -10.482877      -285.2536 
   4   2.0000     -10.441317      -284.1227 
   5   2.0000     -10.440673      -284.1051 
   6   2.0000      -1.124080       -30.5878 
   7   2.0000      -1.122828       -30.5537 
   8   2.0000      -0.890364       -24.2280 
   9   2.0000      -0.792642       -21.5689 
  10   2.0000      -0.722014       -19.6470 
  11   2.0000      -0.665293       -18.1035 
  12   2.0000      -0.578732       -15.7481 
  13   2.0000      -0.570293       -15.5185 
  14   2.0000      -0.524692       -14.2776 
  15   2.0000      -0.502739       -13.6802 
  16   2.0000      -0.498694       -13.5702 
  17   2.0000      -0.466460       -12.6930 
  18   2.0000      -0.441840       -12.0231 
  19   2.0000      -0.427859       -11.6426 
  20   2.0000      -0.404817       -11.0156 
  21   2.0000      -0.381384       -10.3780 
  22   2.0000      -0.371983       -10.1222 
  23   2.0000      -0.327288        -8.9060 
  24   2.0000      -0.323757        -8.8099 
  25   0.0000       0.117732         3.2036 
  26   0.0000       0.129020         3.5108 
  27   0.0000       0.140505         3.8233 
  28   0.0000       0.167677         4.5627 
  29   0.0000       0.179569         4.8863 
  30   0.0000       0.202215         5.5025 
  31   0.0000       0.210195         5.7197 
  32   0.0000       0.219780         5.9805 
  33   0.0000       0.226375         6.1600 
  34   0.0000       0.238238         6.4828 
  35   0.0000       0.264487         7.1971 
  36   0.0000       0.281649         7.6641 
  37   0.0000       0.285038         7.7563 
  38   0.0000       0.289418         7.8755 
  39   0.0000       0.332453         9.0465 
  40   0.0000       0.504174        13.7193 
  41   0.0000       0.521719        14.1967 
  42   0.0000       0.527213        14.3462 
  43   0.0000       0.555694        15.1212 
  44   0.0000       0.580252        15.7895 
  45   0.0000       0.607136        16.5210 
  46   0.0000       0.634742        17.2722 
  47   0.0000       0.649362        17.6700 
  48   0.0000       0.670270        18.2390 
  49   0.0000       0.697031        18.9672 
  50   0.0000       0.755578        20.5603 
  51   0.0000       0.795732        21.6530 
  52   0.0000       0.902106        24.5476 
  53   0.0000       0.914400        24.8821 
  54   0.0000       0.949370        25.8337 
  55   0.0000       0.983128        26.7523 
  56   0.0000       0.989348        26.9215 
  57   0.0000       1.006367        27.3847 
  58   0.0000       1.030351        28.0373 
  59   0.0000       1.040435        28.3117 
  60   0.0000       1.053313        28.6621 
  61   0.0000       1.062201        28.9039 
  62   0.0000       1.077230        29.3129 
  63   0.0000       1.130314        30.7574 
  64   0.0000       1.140540        31.0357 
  65   0.0000       1.203929        32.7606 
  66   0.0000       1.206864        32.8404 
  67   0.0000       1.238288        33.6955 
  68   0.0000       1.268980        34.5307 
  69   0.0000       1.300011        35.3751 
  70   0.0000       1.453363        39.5480 
  71   0.0000       1.470382        40.0111 
  72   0.0000       1.532363        41.6977 
  73   0.0000       1.546619        42.0856 
  74   0.0000       1.594014        43.3753 
  75   0.0000       1.613589        43.9080 
  76   0.0000       1.774898        48.2974 
  77   0.0000       1.811772        49.3008 
  78   0.0000       1.837021        49.9879 
  79   0.0000       1.866499        50.7900 
  80   0.0000       1.917106        52.1671 
  81   0.0000       1.953135        53.1475 
  82   0.0000       1.964541        53.4579 
  83   0.0000       1.987545        54.0838 
  84   0.0000       2.000735        54.4428 
  85   0.0000       2.027790        55.1790 
  86   0.0000       2.050021        55.7839 
  87   0.0000       2.179278        59.3012 
  88   0.0000       2.184628        59.4468 
  89   0.0000       2.219466        60.3947 
  90   0.0000       2.271568        61.8125 
  91   0.0000       2.339295        63.6554 
  92   0.0000       2.402241        65.3683 
  93   0.0000       2.431166        66.1554 
  94   0.0000       2.434650        66.2502 
  95   0.0000       2.493495        67.8514 
  96   0.0000       2.559309        69.6423 
  97   0.0000       2.595222        70.6196 
  98   0.0000       2.626352        71.4667 
  99   0.0000       2.673314        72.7446 
 100   0.0000       2.700573        73.4863 
 101   0.0000       2.840055        77.2818 
 102   0.0000       2.917799        79.3974 
 103   0.0000       2.958310        80.4997 
 104   0.0000      13.563082       369.0702 
 105   0.0000      13.814783       375.9194 
 106   0.0000      13.998729       380.9248 
 107   0.0000      14.029362       381.7583 
 108   0.0000      25.510242       694.1690 
 109   0.0000      25.587603       696.2741 

                    ********************************
                    * MULLIKEN POPULATION ANALYSIS *
                    ********************************

-----------------------
MULLIKEN ATOMIC CHARGES
-----------------------
   0 C :   -0.136748
   1 H :    0.211216
   2 O :   -0.621517
   3 C :   -0.473953
   4 H :    0.194749
   5 H :    0.239558
   6 C :   -0.473845
   7 H :    0.227942
   8 H :    0.206692
   9 H :    0.408431
  10 H :    0.179339
  11 C :   -0.132193
  12 H :    0.209725
  13 H :    0.173869
  14 O :   -0.621099
  15 H :    0.407832
Sum of atomic charges:   -0.0000000

--------------------------------
MULLIKEN REDUCED ORBITAL CHARGES
--------------------------------
  0 C s       :     3.247724  s :     3.247724
      pz      :     1.104291  p :     2.820508
      px      :     0.713790
      py      :     1.002427
      dz2     :     0.017844  d :     0.068515
      dxz     :     0.009318
      dyz     :     0.004647
      dx2y2   :     0.017591
      dxy     :     0.019115
  1 H s       :     0.788784  s :     0.788784
  2 O s       :     3.815162  s :     3.815162
      pz      :     1.405303  p :     4.776846
      px      :     1.452018
      py      :     1.919526
      dz2     :     0.015188  d :     0.029508
      dxz     :     0.002898
      dyz     :     0.001120
      dx2y2   :     0.006790
      dxy     :     0.003513
  3 C s       :     3.333608  s :     3.333608
      pz      :     1.082365  p :     3.097824
      px      :     0.957042
      py      :     1.058417
      dz2     :     0.014375  d :     0.042520
      dxz     :     0.005117
      dyz     :     0.003900
      dx2y2   :     0.008416
      dxy     :     0.010712
  4 H s       :     0.805251  s :     0.805251
  5 H s       :     0.760442  s :     0.760442
  6 C s       :     3.335273  s :     3.335273
      pz      :     1.109746  p :     3.096038
      px      :     0.955289
      py      :     1.031002
      dz2     :     0.014099  d :     0.042534
      dxz     :     0.005418
      dyz     :     0.004062
      dx2y2   :     0.008250
      dxy     :     0.010703
  7 H s       :     0.772058  s :     0.772058
  8 H s       :     0.793308  s :     0.793308
  9 H s       :     0.591569  s :     0.591569
 10 H s       :     0.820661  s :     0.820661
 11 C s       :     3.246097  s :     3.246097
      pz      :     1.038339  p :     2.817386
      px      :     0.731038
      py      :     1.048009
      dz2     :     0.018558  d :     0.068710
      dxz     :     0.013003
      dyz     :     0.004780
      dx2y2   :     0.017234
      dxy     :     0.015134
 12 H s       :     0.790275  s :     0.790275
 13 H s       :     0.826131  s :     0.826131
 14 O s       :     3.814800  s :     3.814800
      pz      :     1.827983  p :     4.776752
      px      :     1.383128
      py      :     1.565640
      dz2     :     0.003666  d :     0.029547
      dxz     :     0.005469
      dyz     :     0.005165
      dx2y2   :     0.009368
      dxy     :     0.005879
 15 H s       :     0.592168  s :     0.592168


                     *******************************
                     * LOEWDIN POPULATION ANALYSIS *
                     *******************************

----------------------
LOEWDIN ATOMIC CHARGES
----------------------
   0 C :   -0.096229
   1 H :    0.120568
   2 O :   -0.409370
   3 C :   -0.267729
   4 H :    0.115625
   5 H :    0.135247
   6 C :   -0.266259
   7 H :    0.130855
   8 H :    0.121021
   9 H :    0.305890
  10 H :    0.097187
  11 C :   -0.097151
  12 H :    0.118457
  13 H :    0.095313
  14 O :   -0.408794
  15 H :    0.305371

-------------------------------
LOEWDIN REDUCED ORBITAL CHARGES
-------------------------------
  0 C s       :     2.908452  s :     2.908452
      pz      :     1.103641  p :     3.043716
      px      :     0.855495
      py      :     1.084581
      dz2     :     0.034255  d :     0.144061
      dxz     :     0.020076
      dyz     :     0.008910
      dx2y2   :     0.037684
      dxy     :     0.043136
  1 H s       :     0.879432  s :     0.879432
  2 O s       :     3.528904  s :     3.528904
      pz      :     1.420317  p :     4.829357
      px      :     1.492542
      py      :     1.916499
      dz2     :     0.023468  d :     0.051110
      dxz     :     0.007344
      dyz     :     0.001501
      dx2y2   :     0.011566
      dxy     :     0.007231
  3 C s       :     2.920449  s :     2.920449
      pz      :     1.100345  p :     3.260025
      px      :     1.057715
      py      :     1.101964
      dz2     :     0.026826  d :     0.087255
      dxz     :     0.011492
      dyz     :     0.007738
      dx2y2   :     0.018540
      dxy     :     0.022660
  4 H s       :     0.884375  s :     0.884375
  5 H s       :     0.864753  s :     0.864753
  6 C s       :     2.920546  s :     2.920546
      pz      :     1.113876  p :     3.258367
      px      :     1.055949
      py      :     1.088542
      dz2     :     0.025996  d :     0.087345
      dxz     :     0.011869
      dyz     :     0.008039
      dx2y2   :     0.018602
      dxy     :     0.022840
  7 H s       :     0.869145  s :     0.869145
  8 H s       :     0.878979  s :     0.878979
  9 H s       :     0.694110  s :     0.694110
 10 H s       :     0.902813  s :     0.902813
 11 C s       :     2.908602  s :     2.908602
      pz      :     1.081608  p :     3.043969
      px      :     0.860200
      py      :     1.102160
      dz2     :     0.036544  d :     0.144580
      dxz     :     0.029103
      dyz     :     0.008899
      dx2y2   :     0.036512
      dxy     :     0.033521
 12 H s       :     0.881543  s :     0.881543
 13 H s       :     0.904687  s :     0.904687
 14 O s       :     3.528744  s :     3.528744
      pz      :     1.839442  p :     4.828789
      px      :     1.418211
      py      :     1.571137
      dz2     :     0.005835  d :     0.051261
      dxz     :     0.010625
      dyz     :     0.006091
      dx2y2   :     0.016415
      dxy     :     0.012296
 15 H s       :     0.694629  s :     0.694629


                      *****************************
                      * MAYER POPULATION ANALYSIS *
                      *****************************

  NA   - Mulliken gross atomic population
  ZA   - Total nuclear charge
  QA   - Mulliken gross atomic charge
  VA   - Mayer's total valence
  BVA  - Mayer's bonded valence
  FA   - Mayer's free valence

  ATOM       NA         ZA         QA         VA         BVA        FA
  0 C      6.1367     6.0000    -0.1367     3.7809     3.7809    -0.0000
  1 H      0.7888     1.0000     0.2112     0.9081     0.9081    -0.0000
  2 O      8.6215     8.0000    -0.6215     1.8635     1.8635     0.0000
  3 C      6.4740     6.0000    -0.4740     3.7331     3.7331    -0.0000
  4 H      0.8053     1.0000     0.1947     0.9153     0.9153     0.0000
  5 H      0.7604     1.0000     0.2396     0.9008     0.9008    -0.0000
  6 C      6.4738     6.0000    -0.4738     3.7359     3.7359    -0.0000
  7 H      0.7721     1.0000     0.2279     0.9046     0.9046    -0.0000
  8 H      0.7933     1.0000     0.2067     0.9126     0.9126    -0.0000
  9 H      0.5916     1.0000     0.4084     0.8070     0.8070     0.0000
 10 H      0.8207     1.0000     0.1793     0.9080     0.9080    -0.0000
 11 C      6.1322     6.0000    -0.1322     3.7789     3.7789    -0.0000
 12 H      0.7903     1.0000     0.2097     0.9096     0.9096     0.0000
 13 H      0.8261     1.0000     0.1739     0.9089     0.9089    -0.0000
 14 O      8.6211     8.0000    -0.6211     1.8649     1.8649    -0.0000
 15 H      0.5922     1.0000     0.4078     0.8081     0.8081    -0.0000

  Mayer bond orders larger than 0.100000
B(  0-C ,  1-H ) :   0.9116 B(  0-C ,  2-O ) :   1.0194 B(  0-C ,  3-C ) :   0.9764 
B(  0-C , 10-H ) :   0.9098 B(  2-O ,  9-H ) :   0.7955 B(  3-C ,  4-H ) :   0.9185 
B(  3-C ,  5-H ) :   0.9105 B(  3-C ,  6-C ) :   0.9579 B(  6-C ,  7-H ) :   0.9094 
B(  6-C ,  8-H ) :   0.9225 B(  6-C , 11-C ) :   0.9748 B( 11-C , 12-H ) :   0.9116 
B( 11-C , 13-H ) :   0.9090 B( 11-C , 14-O ) :   1.0201 B( 14-O , 15-H ) :   0.7948 


-------
TIMINGS
-------

Total SCF time: 0 days 0 hours 1 min 22 sec 

Total time                  ....      82.024 sec
Sum of individual times     ....      74.607 sec  ( 91.0%)

Fock matrix formation       ....      59.924 sec  ( 73.1%)
  Split-RI-J                ....       7.274 sec  ( 12.1% of F)
  Chain of spheres X        ....      19.733 sec  ( 32.9% of F)
  XC integration            ....      18.373 sec  ( 30.7% of F)
    Basis function eval.    ....       2.556 sec  ( 13.9% of XC)
    Density eval.           ....       1.523 sec  (  8.3% of XC)
    XC-Functional eval.     ....       1.352 sec  (  7.4% of XC)
    XC-Potential eval.      ....       0.912 sec  (  5.0% of XC)
Diagonalization             ....       1.812 sec  (  2.2%)
Density matrix formation    ....       0.071 sec  (  0.1%)
Population analysis         ....       0.878 sec  (  1.1%)
Initial guess               ....       0.008 sec  (  0.0%)
Orbital Transformation      ....       0.000 sec  (  0.0%)
Orbital Orthonormalization  ....       0.000 sec  (  0.0%)
DIIS solution               ....       1.978 sec  (  2.4%)
SOSCF solution              ....       0.714 sec  (  0.9%)
Grid generation             ....       9.222 sec  ( 11.2%)

Maximum memory used throughout the entire SCF-calculation: 52.8 MB


-------------------------------------------------------------------------------
                          DFT DISPERSION CORRECTION                            
                                                                               
                              DFTD3 V3.1  Rev 1                                
                          USING Becke-Johnson damping                          
-------------------------------------------------------------------------------
The PBEh-3c composite method is recognized
Using three-body term ABC
Active option DFTDOPT                   ...         4   

molecular C6(AA) [au] = 1675.075026 


            DFT-D V3
 parameters
 s6 scaling factor         :     1.0000 
 a1 scaling factor         :     0.4860 
 s8 scaling factor         :     0.0000 
 a2 scaling factor         :     4.5000 
 Damping factor alpha9(ATM):    16.0000 
 ad hoc parameters k1-k3   :    16.0000     1.3333    -4.0000 

 Edisp/kcal,au: -4.123985544968  -0.006571988592 
 E6   /kcal   :  -4.140879318 
 E8   /kcal   :  -0.000000000 
 E6(ABC)      :   0.016893773 
 % E8         :   0.000000000 
 % E6(ABC)    :  -0.409646768 

-------------------------   ----------------
Dispersion correction           -0.006571989
-------------------------   ----------------

------------------   -----------------
gCP correction             0.037353251
------------------   -----------------

-------------------------   --------------------
FINAL SINGLE POINT ENERGY      -308.205629279184
-------------------------   --------------------


                            ***************************************
                            *     ORCA property calculations      *
                            ***************************************

                                    ---------------------
                                    Active property flags
                                    ---------------------
   (+) Dipole Moment


------------------------------------------------------------------------------
                       ORCA ELECTRIC PROPERTIES CALCULATION
------------------------------------------------------------------------------

Dipole Moment Calculation                       ... on
Quadrupole Moment Calculation                   ... off
Polarizability Calculation                      ... off
GBWName                                         ... pbeh-3c.gbw
Electron density                                ... pbeh-3c.scfp
The origin for moment calculation is the CENTER OF MASS  = ( 0.005450, -0.027915 -0.022447)

-------------
DIPOLE MOMENT
-------------
                                X             Y             Z
Electronic contribution:      0.09126      -0.88960      -0.35346
Nuclear contribution   :     -0.27248       1.39576       1.12236
                        -----------------------------------------
Total Dipole Moment    :     -0.18122       0.50617       0.76890
                        -----------------------------------------
Magnitude (a.u.)       :      0.93822
Magnitude (Debye)      :      2.38476



--------------------
Rotational spectrum 
--------------------
 
Rotational constants in cm-1:     0.375228     0.043657     0.041486 
Rotational constants in MHz : 11249.066718  1308.809159  1243.724869 

 Dipole components along the rotational axes: 
x,y,z [a.u.] :    -0.177973     0.516773     0.762575 
x,y,z [Debye]:    -0.452372     1.313534     1.938311 

 

Timings for individual modules:

Sum of individual times         ...       87.292 sec (=   1.455 min)
GTO integral calculation        ...        3.697 sec (=   0.062 min)   4.2 %
SCF iterations                  ...       83.595 sec (=   1.393 min)  95.8 %
                             ****ORCA TERMINATED NORMALLY****
TOTAL RUN TIME: 0 days 0 hours 1 minutes 37 seconds 382 msec
