
                                 *****************
                                 * O   R   C   A *
                                 *****************

                                            #,                                       
                                            ###                                      
                                            ####                                     
                                            #####                                    
                                            ######                                   
                                           ########,                                 
                                     ,,################,,,,,                         
                               ,,#################################,,                 
                          ,,##########################################,,             
                       ,#########################################, ''#####,          
                    ,#############################################,,   '####,        
                  ,##################################################,,,,####,       
                ,###########''''           ''''###############################       
              ,#####''   ,,,,##########,,,,          '''####'''          '####       
            ,##' ,,,,###########################,,,                        '##       
           ' ,,###''''                  '''############,,,                           
         ,,##''                                '''############,,,,        ,,,,,,###''
      ,#''                                            '''#######################'''  
     '                                                          ''''####''''         
             ,#######,   #######,   ,#######,      ##                                
            ,#'     '#,  ##    ##  ,#'     '#,    #''#        ######   ,####,        
            ##       ##  ##   ,#'  ##            #'  '#       #        #'  '#        
            ##       ##  #######   ##           ,######,      #####,   #    #        
            '#,     ,#'  ##    ##  '#,     ,#' ,#      #,         ##   #,  ,#        
             '#######'   ##     ##  '#######'  #'      '#     #####' # '####'        



                  #######################################################
                  #                        -***-                        #
                  #          Department of theory and spectroscopy      #
                  #    Directorship and core code : Frank Neese         #
                  #        Max Planck Institute fuer Kohlenforschung    #
                  #                Kaiser Wilhelm Platz 1               #
                  #                 D-45470 Muelheim/Ruhr               #
                  #                      Germany                        #
                  #                                                     #
                  #                  All rights reserved                #
                  #                        -***-                        #
                  #######################################################


                         Program Version 5.0.3 -  RELEASE  -


 With contributions from (in alphabetic order):
   Daniel Aravena         : Magnetic Suceptibility
   Michael Atanasov       : Ab Initio Ligand Field Theory (pilot matlab implementation)
   Alexander A. Auer      : GIAO ZORA, VPT2 properties, NMR spectrum
   Ute Becker             : Parallelization
   Giovanni Bistoni       : ED, misc. LED, open-shell LED, HFLD
   Martin Brehm           : Molecular dynamics
   Dmytro Bykov           : SCF Hessian
   Vijay G. Chilkuri      : MRCI spin determinant printing, contributions to CSF-ICE
   Dipayan Datta          : RHF DLPNO-CCSD density
   Achintya Kumar Dutta   : EOM-CC, STEOM-CC
   Dmitry Ganyushin       : Spin-Orbit,Spin-Spin,Magnetic field MRCI
   Miquel Garcia          : C-PCM and meta-GGA Hessian, CC/C-PCM, Gaussian charge scheme
   Yang Guo               : DLPNO-NEVPT2, F12-NEVPT2, CIM, IAO-localization
   Andreas Hansen         : Spin unrestricted coupled pair/coupled cluster methods
   Benjamin Helmich-Paris : MC-RPA, TRAH-SCF, COSX integrals
   Lee Huntington         : MR-EOM, pCC
   Robert Izsak           : Overlap fitted RIJCOSX, COSX-SCS-MP3, EOM
   Marcus Kettner         : VPT2
   Christian Kollmar      : KDIIS, OOCD, Brueckner-CCSD(T), CCSD density, CASPT2, CASPT2-K
   Simone Kossmann        : Meta GGA functionals, TD-DFT gradient, OOMP2, MP2 Hessian
   Martin Krupicka        : Initial AUTO-CI
   Lucas Lang             : DCDCAS
   Marvin Lechner         : AUTO-CI (C++ implementation), FIC-MRCC
   Dagmar Lenk            : GEPOL surface, SMD
   Dimitrios Liakos       : Extrapolation schemes; Compound Job, initial MDCI parallelization
   Dimitrios Manganas     : Further ROCIS development; embedding schemes
   Dimitrios Pantazis     : SARC Basis sets
   Anastasios Papadopoulos: AUTO-CI, single reference methods and gradients
   Taras Petrenko         : DFT Hessian,TD-DFT gradient, ASA, ECA, R-Raman, ABS, FL, XAS/XES, NRVS
   Peter Pinski           : DLPNO-MP2, DLPNO-MP2 Gradient
   Christoph Reimann      : Effective Core Potentials
   Marius Retegan         : Local ZFS, SOC
   Christoph Riplinger    : Optimizer, TS searches, QM/MM, DLPNO-CCSD(T), (RO)-DLPNO pert. Triples
   Tobias Risthaus        : Range-separated hybrids, TD-DFT gradient, RPA, STAB
   Michael Roemelt        : Original ROCIS implementation
   Masaaki Saitow         : Open-shell DLPNO-CCSD energy and density
   Barbara Sandhoefer     : DKH picture change effects
   Avijit Sen             : IP-ROCIS
   Kantharuban Sivalingam : CASSCF convergence, NEVPT2, FIC-MRCI
   Bernardo de Souza      : ESD, SOC TD-DFT
   Georgi Stoychev        : AutoAux, RI-MP2 NMR, DLPNO-MP2 response
   Willem Van den Heuvel  : Paramagnetic NMR
   Boris Wezisla          : Elementary symmetry handling
   Frank Wennmohs         : Technical directorship


 We gratefully acknowledge several colleagues who have allowed us to
 interface, adapt or use parts of their codes:
   Stefan Grimme, W. Hujo, H. Kruse, P. Pracht,  : VdW corrections, initial TS optimization,
                  C. Bannwarth, S. Ehlert          DFT functionals, gCP, sTDA/sTD-DF
   Ed Valeev, F. Pavosevic, A. Kumar             : LibInt (2-el integral package), F12 methods
   Garnet Chan, S. Sharma, J. Yang, R. Olivares  : DMRG
   Ulf Ekstrom                                   : XCFun DFT Library
   Mihaly Kallay                                 : mrcc  (arbitrary order and MRCC methods)
   Jiri Pittner, Ondrej Demel                    : Mk-CCSD
   Frank Weinhold                                : gennbo (NPA and NBO analysis)
   Christopher J. Cramer and Donald G. Truhlar   : smd solvation model
   Lars Goerigk                                  : TD-DFT with DH, B97 family of functionals
   V. Asgeirsson, H. Jonsson                     : NEB implementation
   FAccTs GmbH                                   : IRC, NEB, NEB-TS, DLPNO-Multilevel, CI-OPT
                                                   MM, QMMM, 2- and 3-layer-ONIOM, Crystal-QMMM,
                                                   LR-CPCM, SF, NACMEs, symmetry and pop. for TD-DFT,
                                                   nearIR, NL-DFT gradient (VV10), updates on ESD,
                                                   ML-optimized integration grids
   S Lehtola, MJT Oliveira, MAL Marques          : LibXC Library
   Liviu Ungur et al                             : ANISO software


 Your calculation uses the libint2 library for the computation of 2-el integrals
 For citations please refer to: http://libint.valeyev.net

 Your ORCA version has been built with support for libXC version: 5.1.0
 For citations please refer to: https://tddft.org/programs/libxc/

 This ORCA versions uses:
   CBLAS   interface :  Fast vector & matrix operations
   LAPACKE interface :  Fast linear algebra routines
   SCALAPACK package :  Parallel linear algebra routines
   Shared memory     :  Shared parallel matrices
   BLAS/LAPACK       :  OpenBLAS 0.3.15  USE64BITINT DYNAMIC_ARCH NO_AFFINITY Haswell SINGLE_THREADED
        Core in use  :  Haswell
   Copyright (c) 2011-2014, The OpenBLAS Project




***************************************
The coordinates will be read from file: pme2.xyz
***************************************


Your calculation utilizes the geometrical counterpoise correction gCP
Please cite in your paper:
H.Kruse, S. Grimme J.Chem.Phys., 136, (2012), 154101 
   

Your calculation utilizes the atom-pairwise dispersion correction
with the Becke-Johnson damping scheme (D3BJ)
Cite in your paper:
S.Grimme, S.Ehrlich, L.Goerigk, J Comput Chem, (2011), 32, 1456–1465 
S.Grimme, J.Antony, S.Ehrlich and H.Krieg, J.Chem.Phys., 132, (2010), 154104 
   

Your calculation employs the composite approach PBEh-3c.
Please cite in your paper:
S. Grimme, J. G. Brandenburg, C. Bannwarth, A. Hansen J.Chem.Phys., 143, (2015), 054107 
   

================================================================================

----- Orbital basis set information -----
Your calculation utilizes the basis: def2-mSVP

----- AuxJ basis set information -----
Your calculation utilizes the auxiliary basis: def2/J
   F. Weigend, Phys. Chem. Chem. Phys. 8, 1057 (2006).

================================================================================
                                        WARNINGS
                       Please study these warnings very carefully!
================================================================================


WARNING: your system is open-shell and RHF/RKS was chosen
  ===> : WILL SWITCH to UHF/UKS


INFO   : the flag for use of the SHARK integral package has been found!

================================================================================
                                       INPUT FILE
================================================================================
NAME = pbeh-3c.inp
|  1> ! PBEh-3c def2/J TightSCF DefGrid3
|  2> 
|  3> %maxcore 60000
|  4> 
|  5> %pal
|  6> nprocs 4
|  7> end
|  8> 
|  9> *xyzfile 0 2 pme2.xyz
| 10> 
| 11>                          ****END OF INPUT****
================================================================================

                       ****************************
                       * Single Point Calculation *
                       ****************************

---------------------------------
CARTESIAN COORDINATES (ANGSTROEM)
---------------------------------
  P      0.000000    0.000000   -1.237282
  C     -0.000000    1.391101   -0.033668
  C     -0.000000   -1.391101   -0.033668
  H     -0.000000    2.343693   -0.564770
  H      0.885573    1.351461    0.608026
  H     -0.885573    1.351461    0.608026
  H     -0.000000   -2.343693   -0.564770
  H      0.885573   -1.351461    0.608026
  H     -0.885573   -1.351461    0.608026

----------------------------
CARTESIAN COORDINATES (A.U.)
----------------------------
  NO LB      ZA    FRAG     MASS         X           Y           Z
   0 P    15.0000    0    30.974    0.000000    0.000000   -2.338124
   1 C     6.0000    0    12.011   -0.000000    2.628800   -0.063624
   2 C     6.0000    0    12.011   -0.000000   -2.628800   -0.063624
   3 H     1.0000    0     1.008   -0.000000    4.428938   -1.067260
   4 H     1.0000    0     1.008    1.673491    2.553891    1.149003
   5 H     1.0000    0     1.008   -1.673491    2.553891    1.149003
   6 H     1.0000    0     1.008   -0.000000   -4.428938   -1.067260
   7 H     1.0000    0     1.008    1.673491   -2.553891    1.149003
   8 H     1.0000    0     1.008   -1.673491   -2.553891    1.149003

--------------------------------
INTERNAL COORDINATES (ANGSTROEM)
--------------------------------
 P      0   0   0     0.000000000000     0.00000000     0.00000000
 C      1   0   0     1.839523918503     0.00000000     0.00000000
 C      1   2   0     1.839523918503    98.26573381     0.00000000
 H      2   1   3     1.090642062881   109.99176584   180.00000000
 H      2   1   3     1.094341386106   110.87170381    60.00393629
 H      2   1   3     1.094341386106   110.87170381   299.99606371
 H      3   1   2     1.090642062881   109.99176584   180.00000000
 H      3   1   2     1.094341386106   110.87170381   299.99606371
 H      3   1   2     1.094341386106   110.87170381    60.00393629

---------------------------
INTERNAL COORDINATES (A.U.)
---------------------------
 P      0   0   0     0.000000000000     0.00000000     0.00000000
 C      1   0   0     3.476196422769     0.00000000     0.00000000
 C      1   2   0     3.476196422769    98.26573381     0.00000000
 H      2   1   3     2.061014808980   109.99176584   180.00000000
 H      2   1   3     2.068005516756   110.87170381    60.00393629
 H      2   1   3     2.068005516756   110.87170381   299.99606371
 H      3   1   2     2.061014808980   109.99176584   180.00000000
 H      3   1   2     2.068005516756   110.87170381   299.99606371
 H      3   1   2     2.068005516756   110.87170381    60.00393629

---------------------
BASIS SET INFORMATION
---------------------
There are 3 groups of distinct atoms

 Group   1 Type P   : 10s7p1d contracted to 4s3p1d pattern {5311/511/1}
 Group   2 Type C   : 8s4p1d contracted to 4s2p1d pattern {5111/31/1}
 Group   3 Type H   : 4s contracted to 2s pattern {31}

Atom   0P    basis set group =>   1
Atom   1C    basis set group =>   2
Atom   2C    basis set group =>   2
Atom   3H    basis set group =>   3
Atom   4H    basis set group =>   3
Atom   5H    basis set group =>   3
Atom   6H    basis set group =>   3
Atom   7H    basis set group =>   3
Atom   8H    basis set group =>   3
---------------------------------
AUXILIARY/J BASIS SET INFORMATION
---------------------------------
There are 3 groups of distinct atoms

 Group   1 Type P   : 14s5p5d2f1g contracted to 8s4p3d1f1g pattern {71111111/2111/311/2/1}
 Group   2 Type C   : 12s5p4d2f1g contracted to 6s4p3d1f1g pattern {711111/2111/211/2/1}
 Group   3 Type H   : 5s2p1d contracted to 3s1p1d pattern {311/2/1}

Atom   0P    basis set group =>   1
Atom   1C    basis set group =>   2
Atom   2C    basis set group =>   2
Atom   3H    basis set group =>   3
Atom   4H    basis set group =>   3
Atom   5H    basis set group =>   3
Atom   6H    basis set group =>   3
Atom   7H    basis set group =>   3
Atom   8H    basis set group =>   3


           ************************************************************
           *        Program running with 4 parallel MPI-processes     *
           *              working on a common directory               *
           ************************************************************
------------------------------------------------------------------------------
                           ORCA GTO INTEGRAL CALCULATION
                           -- RI-GTO INTEGRALS CHOSEN --
------------------------------------------------------------------------------
------------------------------------------------------------------------------
                   ___                                                        
                  /   \      - P O W E R E D   B Y -                         
                 /     \                                                     
                 |  |  |   _    _      __       _____    __    __             
                 |  |  |  | |  | |    /  \     |  _  \  |  |  /  |          
                  \  \/   | |  | |   /    \    | | | |  |  | /  /          
                 / \  \   | |__| |  /  /\  \   | |_| |  |  |/  /          
                |  |  |   |  __  | /  /__\  \  |    /   |      \           
                |  |  |   | |  | | |   __   |  |    \   |  |\   \          
                \     /   | |  | | |  |  |  |  | |\  \  |  | \   \       
                 \___/    |_|  |_| |__|  |__|  |_| \__\ |__|  \__/        
                                                                              
                      - O R C A' S   B I G   F R I E N D -                    
                                      &                                       
                       - I N T E G R A L  F E E D E R -                       
                                                                              
 v1 FN, 2020, v2 2021                                                         
------------------------------------------------------------------------------


Reading SHARK input file pbeh-3c.SHARKINP.tmp ... ok
----------------------
SHARK INTEGRAL PACKAGE
----------------------

Number of atoms                             ...      9
Number of basis functions                   ...     60
Number of shells                            ...     34
Maximum angular momentum                    ...      2
Integral batch strategy                     ... SHARK/LIBINT Hybrid
RI-J (if used) integral strategy            ... SPLIT-RIJ (Revised 2003 algorithm where possible)
Printlevel                                  ...      1
Contraction scheme used                     ... SEGMENTED contraction
Coulomb Range Separation                    ... NOT USED
Exchange Range Separation                   ... NOT USED
Finite Nucleus Model                        ... NOT USED
Auxiliary Coulomb fitting basis             ... AVAILABLE
   # of basis functions in Aux-J            ...    215
   # of shells in Aux-J                     ...     77
   Maximum angular momentum in Aux-J        ...      4
Auxiliary J/K fitting basis                 ... NOT available
Auxiliary Correlation fitting basis         ... NOT available
Auxiliary 'external' fitting basis          ... NOT available
Integral threshold                          ...     2.500000e-11
Primitive cut-off                           ...     2.500000e-12
Primitive pair pre-selection threshold      ...     2.500000e-12

Calculating pre-screening integrals         ... done (  0.1 sec) Dimension = 34
Organizing shell pair data                  ... done (  0.5 sec)
Shell pair information
Total number of shell pairs                 ...       595
Shell pairs after pre-screening             ...       583
Total number of primitive shell pairs       ...      2413
Primitive shell pairs kept                  ...      1834
          la=0 lb=0:    288 shell pairs
          la=1 lb=0:    168 shell pairs
          la=1 lb=1:     28 shell pairs
          la=2 lb=0:     72 shell pairs
          la=2 lb=1:     21 shell pairs
          la=2 lb=2:      6 shell pairs

Calculating one electron integrals          ... done (  0.0 sec)
Calculating RI/J V-Matrix + Cholesky decomp.... done (  0.7 sec)
Calculating Nuclear repulsion               ... done (  0.1 sec) ENN=    104.651944281863 Eh

SHARK setup successfully completed in   2.7 seconds

Maximum memory used throughout the entire GTOINT-calculation: 9.3 MB


           ************************************************************
           *        Program running with 4 parallel MPI-processes     *
           *              working on a common directory               *
           ************************************************************
-------------------------------------------------------------------------------
                                 ORCA SCF
-------------------------------------------------------------------------------

------------
SCF SETTINGS
------------
Hamiltonian:
 Density Functional     Method          .... DFT(GTOs)
 Exchange Functional    Exchange        .... PBE
   PBE kappa parameter   XKappa         ....  1.024500
   PBE mue parameter    XMuePBE         ....  0.123457
 Correlation Functional Correlation     .... PBE
   PBE beta parameter  CBetaPBE         ....  0.030000
 LDA part of GGA corr.  LDAOpt          .... PW91-LDA
 Gradients option       PostSCFGGA      .... off
 Hybrid DFT is turned on
   Fraction HF Exchange ScalHFX         ....  0.420000
   Scaling of DF-GGA-X  ScalDFX         ....  0.580000
   Scaling of DF-GGA-C  ScalDFC         ....  1.000000
   Scaling of DF-LDA-C  ScalLDAC        ....  1.000000
   Perturbative correction              ....  0.000000
   Density functional embedding theory  .... OFF
 RI-approximation to the Coulomb term is turned on
   Number of AuxJ basis functions       .... 215
   RIJ-ON(X) (HFX calculated with O(N)) .... on
   Number of AuxJ basis functions       .... 215
   RIJ-COSX (HFX calculated with COS-X)).... on


General Settings:
 Integral files         IntName         .... pbeh-3c
 Hartree-Fock type      HFTyp           .... UHF
 Total Charge           Charge          ....    0
 Multiplicity           Mult            ....    2
 Number of Electrons    NEL             ....   33
 Basis Dimension        Dim             ....   60
 Nuclear Repulsion      ENuc            ....    104.6519442819 Eh

Convergence Acceleration:
 DIIS                   CNVDIIS         .... on
   Start iteration      DIISMaxIt       ....    12
   Startup error        DIISStart       ....  0.200000
   # of expansion vecs  DIISMaxEq       ....     5
   Bias factor          DIISBfac        ....   1.050
   Max. coefficient     DIISMaxC        ....  10.000
 Trust-Rad. Augm. Hess. CNVTRAH         .... auto
   Auto Start mean grad. ratio tolernc. ....  1.125000
   Auto Start start iteration           ....    20
   Auto Start num. interpolation iter.  ....    10
   Max. Number of Micro iterations      ....    16
   Max. Number of Macro iterations      .... Maxiter - #DIIS iter
   Number of Davidson start vectors     ....     2
   Converg. threshold I  (grad. norm)   ....   1.000e-05
   Converg. threshold II (energy diff.) ....   1.000e-08
   Grad. Scal. Fac. for Micro threshold ....   0.100
   Minimum threshold for Micro iter.    ....   0.010
   NR start threshold (gradient norm)   ....   0.001
   Initial trust radius                 ....   0.400
   Minimum AH scaling param. (alpha)    ....   1.000
   Maximum AH scaling param. (alpha)    .... 1000.000
   Orbital update algorithm             .... Taylor
   White noise on init. David. guess    .... on
   Maximum white noise                  ....   0.010
   Quad. conv. algorithm                .... NR
   COSX micro iterations for RIJONX calc.... off
 SOSCF                  CNVSOSCF        .... off
 Level Shifting         CNVShift        .... on
   Level shift para.    LevelShift      ....    0.2500
   Turn off err/grad.   ShiftErr        ....    0.0010
 Zerner damping         CNVZerner       .... off
 Static damping         CNVDamp         .... on
   Fraction old density DampFac         ....    0.7000
   Max. Damping (<1)    DampMax         ....    0.9800
   Min. Damping (>=0)   DampMin         ....    0.0000
   Turn off err/grad.   DampErr         ....    0.1000
 Fernandez-Rico         CNVRico         .... off

SCF Procedure:
 Maximum # iterations   MaxIter         ....   125
 SCF integral mode      SCFMode         .... Direct
   Integral package                     .... SHARK and LIBINT hybrid scheme
 Reset frequency        DirectResetFreq ....    20
 Integral Threshold     Thresh          ....  2.500e-11 Eh
 Primitive CutOff       TCut            ....  2.500e-12 Eh

Convergence Tolerance:
 Convergence Check Mode ConvCheckMode   .... Total+1el-Energy
 Convergence forced     ConvForced      .... 0
 Energy Change          TolE            ....  1.000e-08 Eh
 1-El. energy change                    ....  1.000e-05 Eh
 DIIS Error             TolErr          ....  5.000e-07


Diagonalization of the overlap matrix:
Smallest eigenvalue                        ... 1.370e-02
Time for diagonalization                   ...    0.001 sec
Threshold for overlap eigenvalues          ... 1.000e-08
Number of eigenvalues below threshold      ... 0
Time for construction of square roots      ...    0.164 sec
Total time needed                          ...    0.166 sec

--------------------------------
INITIAL GUESS: MINIMAL BASIS EHT
--------------------------------
The minimal basis has 25 functions
EHT matrix was diagonalized
Basis set overlap was calculated now projecting the orbitals
Using GuessMode=FMatrix for the initial guess
C*T matrix was formed
Effective Fockian was calculated
Effective Fockian was diagonalized
Initial density was built
                      ------------------
                      INITIAL GUESS DONE
                      ------------------
-------------------
DFT GRID GENERATION
-------------------

General Integration Accuracy     IntAcc      ... 4.959
Radial Grid Type                 RadialGrid  ... OptM3 with GC (2021)
Angular Grid (max. ang.)         AngularGrid ... 6 (Lebedev-590)
Angular grid pruning method      GridPruning ... 4 (adaptive)
Weight generation scheme         WeightScheme... Becke
Basis function cutoff            BFCut       ... 1.0000e-11
Integration weight cutoff        WCut        ... 1.0000e-14
Angular grids for H and He will be reduced by one unit
Partially contracted basis set               ... off
Rotationally invariant grid construction     ... off

Total number of grid points                  ...    98368
Total number of batches                      ...     1542
Average number of points per batch           ...       63
Average number of grid points per atom       ...    10930
Time for grid setup =    2.195 sec

--------------------
COSX GRID GENERATION
--------------------

GRIDX 1
-------
General Integration Accuracy     IntAcc      ... 4.020
Radial Grid Type                 RadialGrid  ... OptM3 with GC (2021)
Angular Grid (max. ang.)         AngularGrid ... 2 (Lebedev-110)
Angular grid pruning method      GridPruning ... 4 (adaptive)
Weight generation scheme         WeightScheme... Becke
Basis function cutoff            BFCut       ... 1.0000e-11
Integration weight cutoff        WCut        ... 1.0000e-14
Angular grids for H and He will be reduced by one unit
Partially contracted basis set               ... on
Rotationally invariant grid construction     ... off

Total number of grid points                  ...    10354
Total number of batches                      ...      167
Average number of points per batch           ...       62
Average number of grid points per atom       ...     1150
UseSFitting                                  ... on

GRIDX 2
-------
General Integration Accuracy     IntAcc      ... 4.338
Radial Grid Type                 RadialGrid  ... OptM3 with GC (2021)
Angular Grid (max. ang.)         AngularGrid ... 3 (Lebedev-194)
Angular grid pruning method      GridPruning ... 4 (adaptive)
Weight generation scheme         WeightScheme... Becke
Basis function cutoff            BFCut       ... 1.0000e-11
Integration weight cutoff        WCut        ... 1.0000e-14
Angular grids for H and He will be reduced by one unit
Partially contracted basis set               ... on
Rotationally invariant grid construction     ... off

Total number of grid points                  ...    23316
Total number of batches                      ...      369
Average number of points per batch           ...       63
Average number of grid points per atom       ...     2591
UseSFitting                                  ... on

GRIDX 3
-------
General Integration Accuracy     IntAcc      ... 4.871
Radial Grid Type                 RadialGrid  ... OptM3 with GC (2021)
Angular Grid (max. ang.)         AngularGrid ... 4 (Lebedev-302)
Angular grid pruning method      GridPruning ... 4 (adaptive)
Weight generation scheme         WeightScheme... Becke
Basis function cutoff            BFCut       ... 1.0000e-11
Integration weight cutoff        WCut        ... 1.0000e-14
Angular grids for H and He will be reduced by one unit
Partially contracted basis set               ... on
Rotationally invariant grid construction     ... off

Total number of grid points                  ...    46372
Total number of batches                      ...      729
Average number of points per batch           ...       63
Average number of grid points per atom       ...     5152
UseSFitting                                  ... on

Time for X-Grid setup             =    3.463 sec

--------------
SCF ITERATIONS
--------------
ITER       Energy         Delta-E        Max-DP      RMS-DP      [F,P]     Damp
               ***  Starting incremental Fock matrix formation  ***
  0   -420.1345610202   0.000000000000 0.11845327  0.00406304  0.2368566 0.7000
  1   -420.2689391732  -0.134378153016 0.08134003  0.00284484  0.1583992 0.7000
                               ***Turning on DIIS***
  2   -420.3602726101  -0.091333436859 0.05551467  0.00193294  0.1037536 0.7000
  3   -420.4234189743  -0.063146364225 0.12588989  0.00429325  0.0680391 0.0000
  4   -420.5724702523  -0.149051278064 0.02001642  0.00044788  0.0041624 0.0000
  5   -420.5728877396  -0.000417487295 0.00703988  0.00020117  0.0017257 0.0000
  6   -420.5729572835  -0.000069543875 0.00597984  0.00016688  0.0007084 0.0000
               *** Restarting incremental Fock matrix formation ***
                                   *** Resetting DIIS ***
  7   -420.5729830258  -0.000025742253 0.00095496  0.00002707  0.0002222 0.0000
  8   -420.5729836758  -0.000000649993 0.00033190  0.00001118  0.0001747 0.0000
  9   -420.5729841792  -0.000000503414 0.00021869  0.00000598  0.0000395 0.0000
 10   -420.5729842230  -0.000000043810 0.00004205  0.00000159  0.0000097 0.0000
 11   -420.5729842266  -0.000000003643 0.00001041  0.00000047  0.0000030 0.0000
 12   -420.5729842293  -0.000000002696 0.00000715  0.00000018  0.0000011 0.0000
                            ***DIIS convergence achieved***

               *****************************************************
               *                     SUCCESS                       *
               *           SCF CONVERGED AFTER  13 CYCLES          *
               *****************************************************

Old exchange energy                            =    -14.748127108 Eh
New exchange energy                            =    -14.748121289 Eh
Exchange energy change after final integration =      0.000005818 Eh
Total energy after final integration           =   -420.572978413 Eh
Final COS-X integration done in                =     0.892 sec

----------------
TOTAL SCF ENERGY
----------------

Total Energy       :         -420.57297841 Eh          -11444.37256 eV

Components:
Nuclear Repulsion  :          104.65194428 Eh            2847.72418 eV
Electronic Energy  :         -525.22492269 Eh          -14292.09674 eV
One Electron Energy:         -785.68160047 Eh          -21379.48326 eV
Two Electron Energy:          260.45667778 Eh            7087.38652 eV
Max COSX asymmetry :            0.00000030 Eh               0.00001 eV

Virial components:
Potential Energy   :         -839.95405513 Eh          -22856.31183 eV
Kinetic Energy     :          419.38107672 Eh           11411.93927 eV
Virial Ratio       :            2.00284205


DFT components:
N(Alpha)           :       17.000001941642 electrons
N(Beta)            :       16.000002066949 electrons
N(Total)           :       33.000004008590 electrons
E(X)               :      -19.617931342993 Eh       
E(C)               :       -1.497136921579 Eh       
E(XC)              :      -21.115068264572 Eh       
DFET-embed. en.    :        0.000000000000 Eh       

---------------
SCF CONVERGENCE
---------------

  Last Energy change         ...   -1.7309e-09  Tolerance :   1.0000e-08
  Last MAX-Density change    ...    0.0000e+00  Tolerance :   1.0000e-07
  Last RMS-Density change    ...    0.0000e+00  Tolerance :   5.0000e-09
  Last DIIS Error            ...    3.9059e-07  Tolerance :   5.0000e-07

             **** THE GBW FILE WAS UPDATED (pbeh-3c.gbw) ****
             **** DENSITY pbeh-3c.scfp WAS UPDATED ****
             **** ENERGY FILE WAS UPDATED (pbeh-3c.en.tmp) ****
----------------------
UHF SPIN CONTAMINATION
----------------------

Warning: in a DFT calculation there is little theoretical justification to 
         calculate <S**2> as in Hartree-Fock theory. We will do it anyways
         but you should keep in mind that the values have only limited relevance

Expectation value of <S**2>     :     0.756133
Ideal value S*(S+1) for S=0.5   :     0.750000
Deviation                       :     0.006133

             **** THE GBW FILE WAS UPDATED (pbeh-3c.gbw) ****
             **** DENSITY pbeh-3c.scfp WAS UPDATED ****
----------------
ORBITAL ENERGIES
----------------
                 SPIN UP ORBITALS
  NO   OCC          E(Eh)            E(eV) 
   0   1.0000     -77.731074     -2115.1701 
   1   1.0000     -10.436753      -283.9985 
   2   1.0000     -10.436708      -283.9973 
   3   1.0000      -6.805425      -185.1850 
   4   1.0000      -4.902148      -133.3942 
   5   1.0000      -4.894506      -133.1863 
   6   1.0000      -4.892609      -133.1347 
   7   1.0000      -0.836522       -22.7629 
   8   1.0000      -0.774520       -21.0758 
   9   1.0000      -0.605864       -16.4864 
  10   1.0000      -0.491215       -13.3666 
  11   1.0000      -0.486995       -13.2518 
  12   1.0000      -0.462240       -12.5782 
  13   1.0000      -0.457536       -12.4502 
  14   1.0000      -0.385737       -10.4964 
  15   1.0000      -0.310097        -8.4382 
  16   1.0000      -0.248450        -6.7607 
  17   0.0000       0.092454         2.5158 
  18   0.0000       0.124933         3.3996 
  19   0.0000       0.161541         4.3957 
  20   0.0000       0.171772         4.6741 
  21   0.0000       0.192882         5.2486 
  22   0.0000       0.197674         5.3790 
  23   0.0000       0.226651         6.1675 
  24   0.0000       0.239563         6.5188 
  25   0.0000       0.335989         9.1427 
  26   0.0000       0.460799        12.5390 
  27   0.0000       0.469090        12.7646 
  28   0.0000       0.500226        13.6118 
  29   0.0000       0.501662        13.6509 
  30   0.0000       0.502914        13.6850 
  31   0.0000       0.584955        15.9174 
  32   0.0000       0.669772        18.2254 
  33   0.0000       0.674180        18.3454 
  34   0.0000       0.709770        19.3138 
  35   0.0000       0.711896        19.3717 
  36   0.0000       0.724263        19.7082 
  37   0.0000       0.729011        19.8374 
  38   0.0000       0.861520        23.4431 
  39   0.0000       0.984964        26.8022 
  40   0.0000       0.996741        27.1227 
  41   0.0000       1.008045        27.4303 
  42   0.0000       1.047624        28.5073 
  43   0.0000       1.049802        28.5666 
  44   0.0000       1.066358        29.0171 
  45   0.0000       1.132220        30.8093 
  46   0.0000       1.216627        33.1061 
  47   0.0000       1.322689        35.9922 
  48   0.0000       1.752093        47.6769 
  49   0.0000       1.765754        48.0486 
  50   0.0000       1.821283        49.5596 
  51   0.0000       1.859488        50.5992 
  52   0.0000       2.161500        58.8174 
  53   0.0000       2.247373        61.1541 
  54   0.0000       2.279574        62.0304 
  55   0.0000       2.311615        62.9022 
  56   0.0000       2.330326        63.4114 
  57   0.0000       2.331162        63.4341 
  58   0.0000      13.670497       371.9931 
  59   0.0000      13.757549       374.3619 

                 SPIN DOWN ORBITALS
  NO   OCC          E(Eh)            E(eV) 
   0   1.0000     -77.726226     -2115.0381 
   1   1.0000     -10.437320      -284.0139 
   2   1.0000     -10.437275      -284.0127 
   3   1.0000      -6.800181      -185.0423 
   4   1.0000      -4.891295      -133.0989 
   5   1.0000      -4.889873      -133.0602 
   6   1.0000      -4.883632      -132.8904 
   7   1.0000      -0.826427       -22.4882 
   8   1.0000      -0.772963       -21.0334 
   9   1.0000      -0.575175       -15.6513 
  10   1.0000      -0.485667       -13.2157 
  11   1.0000      -0.478313       -13.0156 
  12   1.0000      -0.459370       -12.5001 
  13   1.0000      -0.451639       -12.2897 
  14   1.0000      -0.382340       -10.4040 
  15   1.0000      -0.294070        -8.0021 
  16   0.0000      -0.052246        -1.4217 
  17   0.0000       0.100527         2.7355 
  18   0.0000       0.136280         3.7084 
  19   0.0000       0.172258         4.6874 
  20   0.0000       0.182208         4.9581 
  21   0.0000       0.203343         5.5332 
  22   0.0000       0.204268         5.5584 
  23   0.0000       0.228051         6.2056 
  24   0.0000       0.240134         6.5344 
  25   0.0000       0.358726         9.7614 
  26   0.0000       0.463644        12.6164 
  27   0.0000       0.470790        12.8109 
  28   0.0000       0.512436        13.9441 
  29   0.0000       0.513740        13.9796 
  30   0.0000       0.523852        14.2547 
  31   0.0000       0.636775        17.3275 
  32   0.0000       0.680708        18.5230 
  33   0.0000       0.682060        18.5598 
  34   0.0000       0.712443        19.3866 
  35   0.0000       0.713898        19.4262 
  36   0.0000       0.757506        20.6128 
  37   0.0000       0.763518        20.7764 
  38   0.0000       0.894835        24.3497 
  39   0.0000       0.986682        26.8490 
  40   0.0000       1.002703        27.2849 
  41   0.0000       1.011530        27.5251 
  42   0.0000       1.050359        28.5817 
  43   0.0000       1.054249        28.6876 
  44   0.0000       1.067078        29.0367 
  45   0.0000       1.135212        30.8907 
  46   0.0000       1.226462        33.3737 
  47   0.0000       1.324719        36.0474 
  48   0.0000       1.751075        47.6492 
  49   0.0000       1.767468        48.0952 
  50   0.0000       1.824694        49.6524 
  51   0.0000       1.859530        50.6004 
  52   0.0000       2.161876        58.8276 
  53   0.0000       2.248228        61.1774 
  54   0.0000       2.280886        62.0661 
  55   0.0000       2.311324        62.8943 
  56   0.0000       2.331219        63.4357 
  57   0.0000       2.331963        63.4559 
  58   0.0000      13.669932       371.9778 
  59   0.0000      13.757020       374.3476 

                    ********************************
                    * MULLIKEN POPULATION ANALYSIS *
                    ********************************

--------------------------------------------
MULLIKEN ATOMIC CHARGES AND SPIN POPULATIONS
--------------------------------------------
   0 P :    0.275780    1.011616
   1 C :   -0.872709   -0.055874
   2 C :   -0.872709   -0.055874
   3 H :    0.249764    0.000012
   4 H :    0.242528    0.025027
   5 H :    0.242528    0.025027
   6 H :    0.249764    0.000012
   7 H :    0.242527    0.025027
   8 H :    0.242528    0.025027
Sum of atomic charges         :   -0.0000000
Sum of atomic spin populations:    1.0000000

-----------------------------------------------------
MULLIKEN REDUCED ORBITAL CHARGES AND SPIN POPULATIONS
-----------------------------------------------------
CHARGE
  0 P s       :     5.810069  s :     5.810069
      pz      :     3.082384  p :     8.799635
      px      :     3.010425
      py      :     2.706827
      dz2     :     0.013794  d :     0.114516
      dxz     :     0.008465
      dyz     :     0.061182
      dx2y2   :     0.022206
      dxy     :     0.008870
  1 C s       :     3.434678  s :     3.434678
      pz      :     1.127961  p :     3.407631
      px      :     1.151795
      py      :     1.127875
      dz2     :     0.001282  d :     0.030400
      dxz     :     0.011160
      dyz     :     0.007146
      dx2y2   :     0.009755
      dxy     :     0.001058
  2 C s       :     3.434678  s :     3.434678
      pz      :     1.127961  p :     3.407631
      px      :     1.151795
      py      :     1.127875
      dz2     :     0.001282  d :     0.030400
      dxz     :     0.011160
      dyz     :     0.007146
      dx2y2   :     0.009755
      dxy     :     0.001058
  3 H s       :     0.750236  s :     0.750236
  4 H s       :     0.757472  s :     0.757472
  5 H s       :     0.757472  s :     0.757472
  6 H s       :     0.750236  s :     0.750236
  7 H s       :     0.757473  s :     0.757473
  8 H s       :     0.757472  s :     0.757472

SPIN
  0 P s       :     0.069112  s :     0.069112
      pz      :    -0.026922  p :     0.939119
      px      :     0.938097
      py      :     0.027943
      dz2     :     0.000946  d :     0.003386
      dxz     :     0.000092
      dyz     :    -0.000033
      dx2y2   :     0.001900
      dxy     :     0.000482
  1 C s       :    -0.010974  s :    -0.010974
      pz      :    -0.016515  p :    -0.048608
      px      :    -0.014980
      py      :    -0.017113
      dz2     :    -0.000022  d :     0.003708
      dxz     :     0.002843
      dyz     :    -0.000008
      dx2y2   :     0.000099
      dxy     :     0.000796
  2 C s       :    -0.010974  s :    -0.010974
      pz      :    -0.016515  p :    -0.048608
      px      :    -0.014980
      py      :    -0.017113
      dz2     :    -0.000022  d :     0.003708
      dxz     :     0.002843
      dyz     :    -0.000008
      dx2y2   :     0.000099
      dxy     :     0.000796
  3 H s       :     0.000012  s :     0.000012
  4 H s       :     0.025027  s :     0.025027
  5 H s       :     0.025027  s :     0.025027
  6 H s       :     0.000012  s :     0.000012
  7 H s       :     0.025027  s :     0.025027
  8 H s       :     0.025027  s :     0.025027


                     *******************************
                     * LOEWDIN POPULATION ANALYSIS *
                     *******************************

-------------------------------------------
LOEWDIN ATOMIC CHARGES AND SPIN POPULATIONS
-------------------------------------------
   0 P :    0.251059    0.937538
   1 C :   -0.543563   -0.015285
   2 C :   -0.543563   -0.015285
   3 H :    0.140378    0.000264
   4 H :    0.138827    0.023126
   5 H :    0.138827    0.023126
   6 H :    0.140378    0.000264
   7 H :    0.138827    0.023126
   8 H :    0.138827    0.023126

----------------------------------------------------
LOEWDIN REDUCED ORBITAL CHARGES AND SPIN POPULATIONS
----------------------------------------------------
CHARGE
  0 P s       :     5.544547  s :     5.544547
      pz      :     3.242789  p :     9.041622
      px      :     2.995676
      py      :     2.803157
      dz2     :     0.016621  d :     0.162772
      dxz     :     0.010746
      dyz     :     0.087176
      dx2y2   :     0.035870
      dxy     :     0.012359
  1 C s       :     3.013760  s :     3.013760
      pz      :     1.161514  p :     3.475603
      px      :     1.154877
      py      :     1.159211
      dz2     :     0.002520  d :     0.054200
      dxz     :     0.019013
      dyz     :     0.014365
      dx2y2   :     0.016288
      dxy     :     0.002014
  2 C s       :     3.013760  s :     3.013760
      pz      :     1.161514  p :     3.475603
      px      :     1.154877
      py      :     1.159211
      dz2     :     0.002520  d :     0.054200
      dxz     :     0.019013
      dyz     :     0.014365
      dx2y2   :     0.016288
      dxy     :     0.002014
  3 H s       :     0.859622  s :     0.859622
  4 H s       :     0.861173  s :     0.861173
  5 H s       :     0.861173  s :     0.861173
  6 H s       :     0.859622  s :     0.859622
  7 H s       :     0.861173  s :     0.861173
  8 H s       :     0.861173  s :     0.861173

SPIN
  0 P s       :     0.025351  s :     0.025351
      pz      :    -0.016145  p :     0.908525
      px      :     0.905147
      py      :     0.019523
      dz2     :     0.000929  d :     0.003662
      dxz     :     0.000388
      dyz     :    -0.001801
      dx2y2   :     0.003880
      dxy     :     0.000265
  1 C s       :    -0.003675  s :    -0.003675
      pz      :    -0.008292  p :    -0.019324
      px      :    -0.002151
      py      :    -0.008880
      dz2     :    -0.000050  d :     0.007713
      dxz     :     0.005508
      dyz     :     0.000252
      dx2y2   :     0.000255
      dxy     :     0.001748
  2 C s       :    -0.003675  s :    -0.003675
      pz      :    -0.008292  p :    -0.019324
      px      :    -0.002151
      py      :    -0.008880
      dz2     :    -0.000050  d :     0.007713
      dxz     :     0.005508
      dyz     :     0.000252
      dx2y2   :     0.000255
      dxy     :     0.001748
  3 H s       :     0.000264  s :     0.000264
  4 H s       :     0.023126  s :     0.023126
  5 H s       :     0.023126  s :     0.023126
  6 H s       :     0.000264  s :     0.000264
  7 H s       :     0.023126  s :     0.023126
  8 H s       :     0.023126  s :     0.023126


                      *****************************
                      * MAYER POPULATION ANALYSIS *
                      *****************************

  NA   - Mulliken gross atomic population
  ZA   - Total nuclear charge
  QA   - Mulliken gross atomic charge
  VA   - Mayer's total valence
  BVA  - Mayer's bonded valence
  FA   - Mayer's free valence

  ATOM       NA         ZA         QA         VA         BVA        FA
  0 P     14.7242    15.0000     0.2758     2.8888     1.9942     0.8946
  1 C      6.8727     6.0000    -0.8727     3.6927     3.6912     0.0015
  2 C      6.8727     6.0000    -0.8727     3.6927     3.6912     0.0015
  3 H      0.7502     1.0000     0.2498     0.8999     0.8999     0.0000
  4 H      0.7575     1.0000     0.2425     0.9005     0.8998     0.0006
  5 H      0.7575     1.0000     0.2425     0.9005     0.8998     0.0006
  6 H      0.7502     1.0000     0.2498     0.8999     0.8999     0.0000
  7 H      0.7575     1.0000     0.2425     0.9005     0.8998     0.0006
  8 H      0.7575     1.0000     0.2425     0.9005     0.8998     0.0006

  Mayer bond orders larger than 0.100000
B(  0-P ,  1-C ) :   0.9793 B(  0-P ,  2-C ) :   0.9793 B(  1-C ,  3-H ) :   0.9124 
B(  1-C ,  4-H ) :   0.9009 B(  1-C ,  5-H ) :   0.9009 B(  2-C ,  6-H ) :   0.9124 
B(  2-C ,  7-H ) :   0.9009 B(  2-C ,  8-H ) :   0.9009 

-------
TIMINGS
-------

Total SCF time: 0 days 0 hours 1 min 44 sec 

Total time                  ....     104.215 sec
Sum of individual times     ....      93.537 sec  ( 89.8%)

Fock matrix formation       ....      76.640 sec  ( 73.5%)
  Split-RI-J                ....       6.911 sec  (  9.0% of F)
  Chain of spheres X        ....       8.977 sec  ( 11.7% of F)
  XC integration            ....      22.648 sec  ( 29.6% of F)
    Basis function eval.    ....       1.145 sec  (  5.1% of XC)
    Density eval.           ....       1.185 sec  (  5.2% of XC)
    XC-Functional eval.     ....       1.250 sec  (  5.5% of XC)
    XC-Potential eval.      ....       0.779 sec  (  3.4% of XC)
Diagonalization             ....       1.338 sec  (  1.3%)
Density matrix formation    ....       0.011 sec  (  0.0%)
Population analysis         ....       1.456 sec  (  1.4%)
Initial guess               ....       0.003 sec  (  0.0%)
Orbital Transformation      ....       0.000 sec  (  0.0%)
Orbital Orthonormalization  ....       0.000 sec  (  0.0%)
DIIS solution               ....       8.430 sec  (  8.1%)
Grid generation             ....       5.658 sec  (  5.4%)

Maximum memory used throughout the entire SCF-calculation: 47.1 MB


-------------------------------------------------------------------------------
                          DFT DISPERSION CORRECTION                            
                                                                               
                              DFTD3 V3.1  Rev 1                                
                          USING Becke-Johnson damping                          
-------------------------------------------------------------------------------
The PBEh-3c composite method is recognized
Using three-body term ABC
Active option DFTDOPT                   ...         4   

molecular C6(AA) [au] = 1029.664921 


            DFT-D V3
 parameters
 s6 scaling factor         :     1.0000 
 a1 scaling factor         :     0.4860 
 s8 scaling factor         :     0.0000 
 a2 scaling factor         :     4.5000 
 Damping factor alpha9(ATM):    16.0000 
 ad hoc parameters k1-k3   :    16.0000     1.3333    -4.0000 

 Edisp/kcal,au: -1.998287633374  -0.003184473706 
 E6   /kcal   :  -1.999666847 
 E8   /kcal   :  -0.000000000 
 E6(ABC)      :   0.001379214 
 % E8         :   0.000000000 
 % E6(ABC)    :  -0.069019782 

-------------------------   ----------------
Dispersion correction           -0.003184474
-------------------------   ----------------

------------------   -----------------
gCP correction             0.007466402
------------------   -----------------

-------------------------   --------------------
FINAL SINGLE POINT ENERGY      -420.568696484307
-------------------------   --------------------


                            ***************************************
                            *     ORCA property calculations      *
                            ***************************************

                                    ---------------------
                                    Active property flags
                                    ---------------------
   (+) Dipole Moment


------------------------------------------------------------------------------
                       ORCA ELECTRIC PROPERTIES CALCULATION
------------------------------------------------------------------------------

Dipole Moment Calculation                       ... on
Quadrupole Moment Calculation                   ... off
Polarizability Calculation                      ... off
GBWName                                         ... pbeh-3c.gbw
Electron density                                ... pbeh-3c.scfp
The origin for moment calculation is the CENTER OF MASS  = ( 0.000000,  0.000000 -1.170766)

-------------
DIPOLE MOMENT
-------------
                                X             Y             Z
Electronic contribution:      0.00000      -0.00000      -4.65420
Nuclear contribution   :      0.00000       0.00000       5.26142
                        -----------------------------------------
Total Dipole Moment    :      0.00000      -0.00000       0.60723
                        -----------------------------------------
Magnitude (a.u.)       :      0.60723
Magnitude (Debye)      :      1.54345



--------------------
Rotational spectrum 
--------------------
 
Rotational constants in cm-1:     0.575164     0.247592     0.185103 
Rotational constants in MHz : 17242.984387  7422.615104  5549.253429 

 Dipole components along the rotational axes: 
x,y,z [a.u.] :    -0.000000     0.607229     0.000000 
x,y,z [Debye]:    -0.000000     1.543453     0.000000 

 

Timings for individual modules:

Sum of individual times         ...      108.737 sec (=   1.812 min)
GTO integral calculation        ...        3.718 sec (=   0.062 min)   3.4 %
SCF iterations                  ...      105.019 sec (=   1.750 min)  96.6 %
                             ****ORCA TERMINATED NORMALLY****
TOTAL RUN TIME: 0 days 0 hours 1 minutes 56 seconds 523 msec
