
                                 *****************
                                 * O   R   C   A *
                                 *****************

                                            #,                                       
                                            ###                                      
                                            ####                                     
                                            #####                                    
                                            ######                                   
                                           ########,                                 
                                     ,,################,,,,,                         
                               ,,#################################,,                 
                          ,,##########################################,,             
                       ,#########################################, ''#####,          
                    ,#############################################,,   '####,        
                  ,##################################################,,,,####,       
                ,###########''''           ''''###############################       
              ,#####''   ,,,,##########,,,,          '''####'''          '####       
            ,##' ,,,,###########################,,,                        '##       
           ' ,,###''''                  '''############,,,                           
         ,,##''                                '''############,,,,        ,,,,,,###''
      ,#''                                            '''#######################'''  
     '                                                          ''''####''''         
             ,#######,   #######,   ,#######,      ##                                
            ,#'     '#,  ##    ##  ,#'     '#,    #''#        ######   ,####,        
            ##       ##  ##   ,#'  ##            #'  '#       #        #'  '#        
            ##       ##  #######   ##           ,######,      #####,   #    #        
            '#,     ,#'  ##    ##  '#,     ,#' ,#      #,         ##   #,  ,#        
             '#######'   ##     ##  '#######'  #'      '#     #####' # '####'        



                  #######################################################
                  #                        -***-                        #
                  #          Department of theory and spectroscopy      #
                  #    Directorship and core code : Frank Neese         #
                  #        Max Planck Institute fuer Kohlenforschung    #
                  #                Kaiser Wilhelm Platz 1               #
                  #                 D-45470 Muelheim/Ruhr               #
                  #                      Germany                        #
                  #                                                     #
                  #                  All rights reserved                #
                  #                        -***-                        #
                  #######################################################


                         Program Version 5.0.3 -  RELEASE  -


 With contributions from (in alphabetic order):
   Daniel Aravena         : Magnetic Suceptibility
   Michael Atanasov       : Ab Initio Ligand Field Theory (pilot matlab implementation)
   Alexander A. Auer      : GIAO ZORA, VPT2 properties, NMR spectrum
   Ute Becker             : Parallelization
   Giovanni Bistoni       : ED, misc. LED, open-shell LED, HFLD
   Martin Brehm           : Molecular dynamics
   Dmytro Bykov           : SCF Hessian
   Vijay G. Chilkuri      : MRCI spin determinant printing, contributions to CSF-ICE
   Dipayan Datta          : RHF DLPNO-CCSD density
   Achintya Kumar Dutta   : EOM-CC, STEOM-CC
   Dmitry Ganyushin       : Spin-Orbit,Spin-Spin,Magnetic field MRCI
   Miquel Garcia          : C-PCM and meta-GGA Hessian, CC/C-PCM, Gaussian charge scheme
   Yang Guo               : DLPNO-NEVPT2, F12-NEVPT2, CIM, IAO-localization
   Andreas Hansen         : Spin unrestricted coupled pair/coupled cluster methods
   Benjamin Helmich-Paris : MC-RPA, TRAH-SCF, COSX integrals
   Lee Huntington         : MR-EOM, pCC
   Robert Izsak           : Overlap fitted RIJCOSX, COSX-SCS-MP3, EOM
   Marcus Kettner         : VPT2
   Christian Kollmar      : KDIIS, OOCD, Brueckner-CCSD(T), CCSD density, CASPT2, CASPT2-K
   Simone Kossmann        : Meta GGA functionals, TD-DFT gradient, OOMP2, MP2 Hessian
   Martin Krupicka        : Initial AUTO-CI
   Lucas Lang             : DCDCAS
   Marvin Lechner         : AUTO-CI (C++ implementation), FIC-MRCC
   Dagmar Lenk            : GEPOL surface, SMD
   Dimitrios Liakos       : Extrapolation schemes; Compound Job, initial MDCI parallelization
   Dimitrios Manganas     : Further ROCIS development; embedding schemes
   Dimitrios Pantazis     : SARC Basis sets
   Anastasios Papadopoulos: AUTO-CI, single reference methods and gradients
   Taras Petrenko         : DFT Hessian,TD-DFT gradient, ASA, ECA, R-Raman, ABS, FL, XAS/XES, NRVS
   Peter Pinski           : DLPNO-MP2, DLPNO-MP2 Gradient
   Christoph Reimann      : Effective Core Potentials
   Marius Retegan         : Local ZFS, SOC
   Christoph Riplinger    : Optimizer, TS searches, QM/MM, DLPNO-CCSD(T), (RO)-DLPNO pert. Triples
   Tobias Risthaus        : Range-separated hybrids, TD-DFT gradient, RPA, STAB
   Michael Roemelt        : Original ROCIS implementation
   Masaaki Saitow         : Open-shell DLPNO-CCSD energy and density
   Barbara Sandhoefer     : DKH picture change effects
   Avijit Sen             : IP-ROCIS
   Kantharuban Sivalingam : CASSCF convergence, NEVPT2, FIC-MRCI
   Bernardo de Souza      : ESD, SOC TD-DFT
   Georgi Stoychev        : AutoAux, RI-MP2 NMR, DLPNO-MP2 response
   Willem Van den Heuvel  : Paramagnetic NMR
   Boris Wezisla          : Elementary symmetry handling
   Frank Wennmohs         : Technical directorship


 We gratefully acknowledge several colleagues who have allowed us to
 interface, adapt or use parts of their codes:
   Stefan Grimme, W. Hujo, H. Kruse, P. Pracht,  : VdW corrections, initial TS optimization,
                  C. Bannwarth, S. Ehlert          DFT functionals, gCP, sTDA/sTD-DF
   Ed Valeev, F. Pavosevic, A. Kumar             : LibInt (2-el integral package), F12 methods
   Garnet Chan, S. Sharma, J. Yang, R. Olivares  : DMRG
   Ulf Ekstrom                                   : XCFun DFT Library
   Mihaly Kallay                                 : mrcc  (arbitrary order and MRCC methods)
   Jiri Pittner, Ondrej Demel                    : Mk-CCSD
   Frank Weinhold                                : gennbo (NPA and NBO analysis)
   Christopher J. Cramer and Donald G. Truhlar   : smd solvation model
   Lars Goerigk                                  : TD-DFT with DH, B97 family of functionals
   V. Asgeirsson, H. Jonsson                     : NEB implementation
   FAccTs GmbH                                   : IRC, NEB, NEB-TS, DLPNO-Multilevel, CI-OPT
                                                   MM, QMMM, 2- and 3-layer-ONIOM, Crystal-QMMM,
                                                   LR-CPCM, SF, NACMEs, symmetry and pop. for TD-DFT,
                                                   nearIR, NL-DFT gradient (VV10), updates on ESD,
                                                   ML-optimized integration grids
   S Lehtola, MJT Oliveira, MAL Marques          : LibXC Library
   Liviu Ungur et al                             : ANISO software


 Your calculation uses the libint2 library for the computation of 2-el integrals
 For citations please refer to: http://libint.valeyev.net

 Your ORCA version has been built with support for libXC version: 5.1.0
 For citations please refer to: https://tddft.org/programs/libxc/

 This ORCA versions uses:
   CBLAS   interface :  Fast vector & matrix operations
   LAPACKE interface :  Fast linear algebra routines
   SCALAPACK package :  Parallel linear algebra routines
   Shared memory     :  Shared parallel matrices
   BLAS/LAPACK       :  OpenBLAS 0.3.15  USE64BITINT DYNAMIC_ARCH NO_AFFINITY Haswell SINGLE_THREADED
        Core in use  :  Haswell
   Copyright (c) 2011-2014, The OpenBLAS Project




***************************************
The coordinates will be read from file: 2p.xyz
***************************************


Your calculation utilizes the geometrical counterpoise correction gCP
Please cite in your paper:
H.Kruse, S. Grimme J.Chem.Phys., 136, (2012), 154101 
   

Your calculation utilizes the atom-pairwise dispersion correction
with the Becke-Johnson damping scheme (D3BJ)
Cite in your paper:
S.Grimme, S.Ehrlich, L.Goerigk, J Comput Chem, (2011), 32, 1456–1465 
S.Grimme, J.Antony, S.Ehrlich and H.Krieg, J.Chem.Phys., 132, (2010), 154104 
   

Your calculation employs the composite approach PBEh-3c.
Please cite in your paper:
S. Grimme, J. G. Brandenburg, C. Bannwarth, A. Hansen J.Chem.Phys., 143, (2015), 054107 
   

================================================================================

----- Orbital basis set information -----
Your calculation utilizes the basis: def2-mSVP

----- AuxJ basis set information -----
Your calculation utilizes the auxiliary basis: def2/J
   F. Weigend, Phys. Chem. Chem. Phys. 8, 1057 (2006).

================================================================================
                                        WARNINGS
                       Please study these warnings very carefully!
================================================================================


INFO   : the flag for use of the SHARK integral package has been found!

================================================================================
                                       INPUT FILE
================================================================================
NAME = pbeh-3c.inp
|  1> ! PBEh-3c def2/J TightSCF DefGrid3
|  2> 
|  3> %maxcore 60000
|  4> 
|  5> %pal
|  6> nprocs 4
|  7> end
|  8> 
|  9> *xyzfile -1 1 2p.xyz
| 10> 
| 11>                          ****END OF INPUT****
================================================================================

                       ****************************
                       * Single Point Calculation *
                       ****************************

---------------------------------
CARTESIAN COORDINATES (ANGSTROEM)
---------------------------------
  H     -2.800459   -1.439761    2.793686
  O     -2.665814   -1.108114    1.891541
  C     -2.579461   -2.239220    1.004954
  H     -3.469475   -2.873539    1.098748
  H     -1.688070   -2.841662    1.226037
  C     -2.471054   -1.727348   -0.417349
  H     -2.264387   -2.575618   -1.076172
  O     -3.736848   -1.131824   -0.841384
  C     -3.545733    0.231646   -1.204317
  H     -3.542275    0.362112   -2.289424
  N     -4.692894    0.998884   -0.706946
  C     -4.998619    0.942444    0.633233
  H     -4.342104    0.302664    1.217953
  C     -6.043294    1.611640    1.174766
  H     -6.257242    1.542943    2.232785
  C     -6.891770    2.419737    0.333698
  O     -7.869611    3.084475    0.695675
  N     -6.527160    2.396116   -1.020754
  H     -7.101353    2.941687   -1.658645
  C     -5.473776    1.724665   -1.607654
  O     -5.254296    1.767134   -2.816341
  C     -1.399452   -0.650215   -0.618696
  H     -0.620809   -0.682035    0.146215
  C     -2.196614    0.660421   -0.590571
  H     -2.340244    0.972373    0.446099
  O     -1.581480    1.736389   -1.276683
  H     -1.173347    1.343864   -2.072997
  O     -0.820103   -0.754752   -1.935606
  P      0.635738   -1.525335   -2.058111
  O      0.918602   -1.568871   -3.528648
  O      0.630459   -2.742879   -1.186082
  O      1.656997   -0.489625   -1.310816
  C      1.953624    0.797269   -1.893592
  H      1.244474    1.538037   -1.509855
  H      1.876331    0.740645   -2.984865
  C      3.370333    1.175306   -1.505947
  H      3.627382    2.130436   -1.975034
  O      3.467210    1.352181   -0.058486
  C      4.364106    0.386593    0.494597
  H      5.315281    0.853878    0.760192
  N      3.805556   -0.103754    1.757294
  C      2.649622   -0.852657    1.751723
  H      2.230088   -1.032192    0.767044
  C      2.066070   -1.310480    2.884054
  H      1.161809   -1.903588    2.846498
  C      2.644887   -0.995913    4.167221
  O      2.218970   -1.347437    5.273182
  N      3.785948   -0.183643    4.085983
  H      4.214397    0.092424    4.966474
  C      4.407828    0.299866    2.953468
  O      5.392320    1.033744    3.004925
  C      4.406658    0.106707   -1.878326
  H      4.070278   -0.521646   -2.705196
  C      4.583566   -0.696315   -0.579163
  H      3.814410   -1.467939   -0.517754
  O      5.847144   -1.329653   -0.479561
  H      6.459675   -0.748345   -0.977367
  O      5.683052    0.700428   -2.187460
  H      5.844932    0.597650   -3.138245

----------------------------
CARTESIAN COORDINATES (A.U.)
----------------------------
  NO LB      ZA    FRAG     MASS         X           Y           Z
   0 H     1.0000    0     1.008   -5.292100   -2.720755    5.279302
   1 O     8.0000    0    15.999   -5.037658   -2.094033    3.574495
   2 C     6.0000    0    12.011   -4.874474   -4.231512    1.899088
   3 H     1.0000    0     1.008   -6.556358   -5.430202    2.076333
   4 H     1.0000    0     1.008   -3.189990   -5.369963    2.316875
   5 C     6.0000    0    12.011   -4.669616   -3.264216   -0.788675
   6 H     1.0000    0     1.008   -4.279070   -4.867213   -2.033670
   7 O     8.0000    0    15.999   -7.061620   -2.138838   -1.589985
   8 C     6.0000    0    12.011   -6.700465    0.437748   -2.275829
   9 H     1.0000    0     1.008   -6.693930    0.684293   -4.326385
  10 N     7.0000    0    14.007   -8.868283    1.887617   -1.335935
  11 C     6.0000    0    12.011   -9.446022    1.780961    1.196637
  12 H     1.0000    0     1.008   -8.205387    0.571952    2.301598
  13 C     6.0000    0    12.011  -11.420171    3.045557    2.219986
  14 H     1.0000    0     1.008  -11.824474    2.915739    4.219353
  15 C     6.0000    0    12.011  -13.023559    4.572640    0.630598
  16 O     8.0000    0    15.999  -14.871410    5.828812    1.314635
  17 N     7.0000    0    14.007  -12.334545    4.528004   -1.928946
  18 H     1.0000    0     1.008  -13.419613    5.558983   -3.134384
  19 C     6.0000    0    12.011  -10.343938    3.259144   -3.038026
  20 O     8.0000    0    15.999   -9.929181    3.339400   -5.322114
  21 C     6.0000    0    12.011   -2.644581   -1.228729   -1.169166
  22 H     1.0000    0     1.008   -1.173159   -1.288859    0.276306
  23 C     6.0000    0    12.011   -4.150999    1.248015   -1.116017
  24 H     1.0000    0     1.008   -4.422420    1.837519    0.843006
  25 O     8.0000    0    15.999   -2.988564    3.281300   -2.412581
  26 H     1.0000    0     1.008   -2.217304    2.539535   -3.917396
  27 O     8.0000    0    15.999   -1.549771   -1.426275   -3.657764
  28 P    15.0000    0    30.974    1.201371   -2.882465   -3.889266
  29 O     8.0000    0    15.999    1.735905   -2.964736   -6.668179
  30 O     8.0000    0    15.999    1.191395   -5.183289   -2.241370
  31 O     8.0000    0    15.999    3.131270   -0.925257   -2.477084
  32 C     6.0000    0    12.011    3.691815    1.506620   -3.578371
  33 H     1.0000    0     1.008    2.351715    2.906468   -2.853213
  34 H     1.0000    0     1.008    3.545751    1.399617   -5.640577
  35 C     6.0000    0    12.011    6.369007    2.221007   -2.845828
  36 H     1.0000    0     1.008    6.854759    4.025941   -3.732273
  37 O     8.0000    0    15.999    6.552078    2.555251   -0.110522
  38 C     6.0000    0    12.011    8.246965    0.730556    0.934653
  39 H     1.0000    0     1.008   10.044426    1.613597    1.436555
  40 N     7.0000    0    14.007    7.191458   -0.196066    3.320804
  41 C     6.0000    0    12.011    5.007060   -1.611287    3.310277
  42 H     1.0000    0     1.008    4.214256   -1.950559    1.449504
  43 C     6.0000    0    12.011    3.904306   -2.476448    5.450072
  44 H     1.0000    0     1.008    2.195501   -3.597260    5.379101
  45 C     6.0000    0    12.011    4.998112   -1.882002    7.874906
  46 O     8.0000    0    15.999    4.193245   -2.546287    9.964870
  47 N     7.0000    0    14.007    7.154404   -0.347036    7.721388
  48 H     1.0000    0     1.008    7.964056    0.174655    9.385275
  49 C     6.0000    0    12.011    8.329588    0.566664    5.581245
  50 O     8.0000    0    15.999   10.190009    1.953493    5.678486
  51 C     6.0000    0    12.011    8.327376    0.201648   -3.549521
  52 H     1.0000    0     1.008    7.691710   -0.985768   -5.112079
  53 C     6.0000    0    12.011    8.661685   -1.315844   -1.094460
  54 H     1.0000    0     1.008    7.208190   -2.774003   -0.978414
  55 O     8.0000    0    15.999   11.049501   -2.512681   -0.906238
  56 H     1.0000    0     1.008   12.207016   -1.414167   -1.846955
  57 O     8.0000    0    15.999   10.739411    1.323617   -4.133700
  58 H     1.0000    0     1.008   11.045320    1.129395   -5.930423

--------------------------------
INTERNAL COORDINATES (ANGSTROEM)
--------------------------------
 H      0   0   0     0.000000000000     0.00000000     0.00000000
 O      1   0   0     0.970558668301     0.00000000     0.00000000
 C      2   1   0     1.439754545018   108.19496382     0.00000000
 H      3   2   1     1.096943165976   110.66961696    55.78103079
 H      3   2   1     1.098358567689   110.83241922   294.83924861
 C      3   2   1     1.515489884697   108.47339381   175.91048758
 H      6   3   2     1.093764512509   108.47391887   172.13691430
 O      6   3   2     1.461742099409   110.35977632   289.96461810
 C      8   6   3     1.423831906280   110.35563180   120.88895776
 H      9   8   6     1.092927816846   111.58073703   103.66499531
 N      9   8   6     1.466972374474   108.02604206   219.87044380
 C     11   9   8     1.375766883385   118.85505983    55.91437640
 H     12  11   9     1.087303216053   114.44508941   359.41646956
 C     12  11   9     1.353671280909   122.74597083   180.40846613
 H     14  12  11     1.081618032785   120.83538522   179.82747391
 C     14  12  11     1.442334392024   119.84653832     0.32039841
 O     16  14  12     1.236557951861   126.56062002   180.38388458
 N     16  14  12     1.402868332717   113.62061907     1.08471948
 H     18  16  14     1.016980701684   116.73193684   179.29376861
 C     18  16  14     1.380187388455   128.10544037   358.99910520
 O     20  18  16     1.229186590304   122.52103821   179.35537022
 C      6   3   2     1.532673532175   114.24732356    49.69339338
 H     22   6   3     1.091964334952   112.70916003    22.90177426
 C     22   6   3     1.534283593593   103.57185206   261.05669843
 H     24  22   6     1.092075622658   109.25339103    84.16545147
 O     24  22   6     1.416632037605   114.47688820   204.69936401
 H     26  24  22     0.977120181193   105.72158815    38.31520631
 O     22   6   3     1.442506030359   110.47557320   147.12554992
 P     28  22   6     1.651750599302   117.09768941   260.42088134
 O     29  28  22     1.498127910234   104.64180599   175.71621096
 O     29  28  22     1.497623176710   109.45002018    41.80190830
 O     29  28  22     1.635271579882   102.77231276   291.12995791
 C     32  29  28     1.443506659494   120.56255277   292.19722789
 H     33  32  29     1.094936038830   109.18133188    91.20510272
 H     33  32  29     1.095471102790   109.97407897   330.69750237
 C     33  32  29     1.516655464889   108.11799952   211.21404933
 H     36  33  32     1.094710151903   109.10437611   177.62823191
 O     36  33  32     1.461442956067   110.19608304   295.62048616
 C     38  36  33     1.429223952626   110.06654712   116.85639243
 H     39  38  36     1.092534115838   110.57664319   105.13917773
 N     39  38  36     1.465203470505   108.68527702   220.37591671
 C     41  39  38     1.377341221933   119.89490748    67.02491823
 H     42  41  39     1.085280542269   114.71117017     0.36429972
 C     42  41  39     1.353627949310   122.84170844   181.49534061
 H     44  42  41     1.082069674131   121.10547872   180.49685665
 C     44  42  41     1.442393853337   119.82904528     1.13240523
 O     46  44  42     1.236173432032   126.55711047   180.05571250
 N     46  44  42     1.402996999978   113.64823791     1.50596451
 H     48  46  44     1.017371857919   116.71137527   178.04053027
 C     48  46  44     1.379531425700   128.10327006   358.31017432
 O     50  48  46     1.229003457458   122.41319904   178.30583906
 C     36  33  32     1.534450263750   113.28185423    54.49709618
 H     52  36  33     1.091647250883   112.12077006    24.59669229
 C     52  36  33     1.537518966289   103.67258773   263.57767333
 H     54  52  36     1.091226726816   109.61909453    85.19773913
 O     54  52  36     1.416922042660   113.29453325   205.86905064
 H     56  54  52     0.980267206380   104.86094415    30.06150180
 O     52  36  33     1.441266865868   111.30208368   148.73302154
 H     58  52  36     0.969927891190   108.32518492   249.46903356

---------------------------
INTERNAL COORDINATES (A.U.)
---------------------------
 H      0   0   0     0.000000000000     0.00000000     0.00000000
 O      1   0   0     1.834090079992     0.00000000     0.00000000
 C      2   1   0     2.720741790153   108.19496382     0.00000000
 H      3   2   1     2.072922168172   110.66961696    55.78103079
 H      3   2   1     2.075596889777   110.83241922   294.83924861
 C      3   2   1     2.863860840804   108.47339381   175.91048758
 H      6   3   2     2.066915383644   108.47391887   172.13691430
 O      6   3   2     2.762292246307   110.35977632   289.96461810
 C      8   6   3     2.690652363608   110.35563180   120.88895776
 H      9   8   6     2.065334257983   111.58073703   103.66499531
 N      9   8   6     2.772176033784   108.02604206   219.87044380
 C     11   9   8     2.599822633716   118.85505983    55.91437640
 H     12  11   9     2.054705302873   114.44508941   359.41646956
 C     12  11   9     2.558067996272   122.74597083   180.40846613
 H     14  12  11     2.043961863475   120.83538522   179.82747391
 C     14  12  11     2.725616994461   119.84653832     0.32039841
 O     16  14  12     2.336755877739   126.56062002   180.38388458
 N     16  14  12     2.651036950785   113.62061907     1.08471948
 H     18  16  14     1.921815009666   116.73193684   179.29376861
 C     18  16  14     2.608176177671   128.10544037   358.99910520
 O     20  18  16     2.322826023162   122.52103821   179.35537022
 C      6   3   2     2.896333228521   114.24732356    49.69339338
 H     22   6   3     2.063513541068   112.70916003    22.90177426
 C     22   6   3     2.899375803659   103.57185206   261.05669843
 H     24  22   6     2.063723844355   109.25339103    84.16545147
 O     24  22   6     2.677046583612   114.47688820   204.69936401
 H     26  24  22     1.846489542383   105.72158815    38.31520631
 O     22   6   3     2.725941343907   110.47557320   147.12554992
 P     28  22   6     3.121356274222   117.09768941   260.42088134
 O     29  28  22     2.831051463927   104.64180599   175.71621096
 O     29  28  22     2.830097655794   109.45002018    41.80190830
 O     29  28  22     3.090215440562   102.77231276   291.12995791
 C     32  29  28     2.727832258936   120.56255277   292.19722789
 H     33  32  29     2.069129247549   109.18133188    91.20510272
 H     33  32  29     2.070140371898   109.97407897   330.69750237
 C     33  32  29     2.866063468156   108.11799952   211.21404933
 H     36  33  32     2.068702383119   109.10437611   177.62823191
 O     36  33  32     2.761726947316   110.19608304   295.62048616
 C     38  36  33     2.700841854504   110.06654712   116.85639243
 H     39  38  36     2.064590270899   110.57664319   105.13917773
 N     39  38  36     2.768833289726   108.68527702   220.37591671
 C     41  39  38     2.602797702413   119.89490748    67.02491823
 H     42  41  39     2.050883003363   114.71117017     0.36429972
 C     42  41  39     2.557986111417   122.84170844   181.49534061
 H     44  42  41     2.044815341928   121.10547872   180.49685665
 C     44  42  41     2.725729360058   119.82904528     1.13240523
 O     46  44  42     2.336029240569   126.55711047   180.05571250
 N     46  44  42     2.651280096671   113.64823791     1.50596451
 H     48  46  44     1.922554187825   116.71137527   178.04053027
 C     48  46  44     2.606936587710   128.10327006   358.31017432
 O     50  48  46     2.322479952238   122.41319904   178.30583906
 C     36  33  32     2.899690764612   113.28185423    54.49709618
 H     52  36  33     2.062914339017   112.12077006    24.59669229
 C     52  36  33     2.905489771997   103.67258773   263.57767333
 H     54  52  36     2.062119663698   109.61909453    85.19773913
 O     54  52  36     2.677594613744   113.29453325   205.86905064
 H     56  54  52     1.852436558123   104.86094415    30.06150180
 O     52  36  33     2.723599662386   111.30208368   148.73302154
 H     58  52  36     1.832898084000   108.32518492   249.46903356

---------------------
BASIS SET INFORMATION
---------------------
There are 5 groups of distinct atoms

 Group   1 Type H   : 4s contracted to 2s pattern {31}
 Group   2 Type O   : 8s4p1d contracted to 4s2p1d pattern {5111/31/1}
 Group   3 Type C   : 8s4p1d contracted to 4s2p1d pattern {5111/31/1}
 Group   4 Type N   : 8s4p1d contracted to 4s2p1d pattern {5111/31/1}
 Group   5 Type P   : 10s7p1d contracted to 4s3p1d pattern {5311/511/1}

Atom   0H    basis set group =>   1
Atom   1O    basis set group =>   2
Atom   2C    basis set group =>   3
Atom   3H    basis set group =>   1
Atom   4H    basis set group =>   1
Atom   5C    basis set group =>   3
Atom   6H    basis set group =>   1
Atom   7O    basis set group =>   2
Atom   8C    basis set group =>   3
Atom   9H    basis set group =>   1
Atom  10N    basis set group =>   4
Atom  11C    basis set group =>   3
Atom  12H    basis set group =>   1
Atom  13C    basis set group =>   3
Atom  14H    basis set group =>   1
Atom  15C    basis set group =>   3
Atom  16O    basis set group =>   2
Atom  17N    basis set group =>   4
Atom  18H    basis set group =>   1
Atom  19C    basis set group =>   3
Atom  20O    basis set group =>   2
Atom  21C    basis set group =>   3
Atom  22H    basis set group =>   1
Atom  23C    basis set group =>   3
Atom  24H    basis set group =>   1
Atom  25O    basis set group =>   2
Atom  26H    basis set group =>   1
Atom  27O    basis set group =>   2
Atom  28P    basis set group =>   5
Atom  29O    basis set group =>   2
Atom  30O    basis set group =>   2
Atom  31O    basis set group =>   2
Atom  32C    basis set group =>   3
Atom  33H    basis set group =>   1
Atom  34H    basis set group =>   1
Atom  35C    basis set group =>   3
Atom  36H    basis set group =>   1
Atom  37O    basis set group =>   2
Atom  38C    basis set group =>   3
Atom  39H    basis set group =>   1
Atom  40N    basis set group =>   4
Atom  41C    basis set group =>   3
Atom  42H    basis set group =>   1
Atom  43C    basis set group =>   3
Atom  44H    basis set group =>   1
Atom  45C    basis set group =>   3
Atom  46O    basis set group =>   2
Atom  47N    basis set group =>   4
Atom  48H    basis set group =>   1
Atom  49C    basis set group =>   3
Atom  50O    basis set group =>   2
Atom  51C    basis set group =>   3
Atom  52H    basis set group =>   1
Atom  53C    basis set group =>   3
Atom  54H    basis set group =>   1
Atom  55O    basis set group =>   2
Atom  56H    basis set group =>   1
Atom  57O    basis set group =>   2
Atom  58H    basis set group =>   1
---------------------------------
AUXILIARY/J BASIS SET INFORMATION
---------------------------------
There are 5 groups of distinct atoms

 Group   1 Type H   : 5s2p1d contracted to 3s1p1d pattern {311/2/1}
 Group   2 Type O   : 12s5p4d2f1g contracted to 6s4p3d1f1g pattern {711111/2111/211/2/1}
 Group   3 Type C   : 12s5p4d2f1g contracted to 6s4p3d1f1g pattern {711111/2111/211/2/1}
 Group   4 Type N   : 12s5p4d2f1g contracted to 6s4p3d1f1g pattern {711111/2111/211/2/1}
 Group   5 Type P   : 14s5p5d2f1g contracted to 8s4p3d1f1g pattern {71111111/2111/311/2/1}

Atom   0H    basis set group =>   1
Atom   1O    basis set group =>   2
Atom   2C    basis set group =>   3
Atom   3H    basis set group =>   1
Atom   4H    basis set group =>   1
Atom   5C    basis set group =>   3
Atom   6H    basis set group =>   1
Atom   7O    basis set group =>   2
Atom   8C    basis set group =>   3
Atom   9H    basis set group =>   1
Atom  10N    basis set group =>   4
Atom  11C    basis set group =>   3
Atom  12H    basis set group =>   1
Atom  13C    basis set group =>   3
Atom  14H    basis set group =>   1
Atom  15C    basis set group =>   3
Atom  16O    basis set group =>   2
Atom  17N    basis set group =>   4
Atom  18H    basis set group =>   1
Atom  19C    basis set group =>   3
Atom  20O    basis set group =>   2
Atom  21C    basis set group =>   3
Atom  22H    basis set group =>   1
Atom  23C    basis set group =>   3
Atom  24H    basis set group =>   1
Atom  25O    basis set group =>   2
Atom  26H    basis set group =>   1
Atom  27O    basis set group =>   2
Atom  28P    basis set group =>   5
Atom  29O    basis set group =>   2
Atom  30O    basis set group =>   2
Atom  31O    basis set group =>   2
Atom  32C    basis set group =>   3
Atom  33H    basis set group =>   1
Atom  34H    basis set group =>   1
Atom  35C    basis set group =>   3
Atom  36H    basis set group =>   1
Atom  37O    basis set group =>   2
Atom  38C    basis set group =>   3
Atom  39H    basis set group =>   1
Atom  40N    basis set group =>   4
Atom  41C    basis set group =>   3
Atom  42H    basis set group =>   1
Atom  43C    basis set group =>   3
Atom  44H    basis set group =>   1
Atom  45C    basis set group =>   3
Atom  46O    basis set group =>   2
Atom  47N    basis set group =>   4
Atom  48H    basis set group =>   1
Atom  49C    basis set group =>   3
Atom  50O    basis set group =>   2
Atom  51C    basis set group =>   3
Atom  52H    basis set group =>   1
Atom  53C    basis set group =>   3
Atom  54H    basis set group =>   1
Atom  55O    basis set group =>   2
Atom  56H    basis set group =>   1
Atom  57O    basis set group =>   2
Atom  58H    basis set group =>   1


           ************************************************************
           *        Program running with 4 parallel MPI-processes     *
           *              working on a common directory               *
           ************************************************************
------------------------------------------------------------------------------
                           ORCA GTO INTEGRAL CALCULATION
                           -- RI-GTO INTEGRALS CHOSEN --
------------------------------------------------------------------------------
------------------------------------------------------------------------------
                   ___                                                        
                  /   \      - P O W E R E D   B Y -                         
                 /     \                                                     
                 |  |  |   _    _      __       _____    __    __             
                 |  |  |  | |  | |    /  \     |  _  \  |  |  /  |          
                  \  \/   | |  | |   /    \    | | | |  |  | /  /          
                 / \  \   | |__| |  /  /\  \   | |_| |  |  |/  /          
                |  |  |   |  __  | /  /__\  \  |    /   |      \           
                |  |  |   | |  | | |   __   |  |    \   |  |\   \          
                \     /   | |  | | |  |  |  |  | |\  \  |  | \   \       
                 \___/    |_|  |_| |__|  |__|  |_| \__\ |__|  \__/        
                                                                              
                      - O R C A' S   B I G   F R I E N D -                    
                                      &                                       
                       - I N T E G R A L  F E E D E R -                       
                                                                              
 v1 FN, 2020, v2 2021                                                         
------------------------------------------------------------------------------


Reading SHARK input file pbeh-3c.SHARKINP.tmp ... ok
----------------------
SHARK INTEGRAL PACKAGE
----------------------

Number of atoms                             ...     59
Number of basis functions                   ...    602
Number of shells                            ...    304
Maximum angular momentum                    ...      2
Integral batch strategy                     ... SHARK/LIBINT Hybrid
RI-J (if used) integral strategy            ... SPLIT-RIJ (Revised 2003 algorithm where possible)
Printlevel                                  ...      1
Contraction scheme used                     ... SEGMENTED contraction
Coulomb Range Separation                    ... NOT USED
Exchange Range Separation                   ... NOT USED
Finite Nucleus Model                        ... NOT USED
Auxiliary Coulomb fitting basis             ... AVAILABLE
   # of basis functions in Aux-J            ...   2057
   # of shells in Aux-J                     ...    667
   Maximum angular momentum in Aux-J        ...      4
Auxiliary J/K fitting basis                 ... NOT available
Auxiliary Correlation fitting basis         ... NOT available
Auxiliary 'external' fitting basis          ... NOT available
Integral threshold                          ...     2.500000e-11
Primitive cut-off                           ...     2.500000e-12
Primitive pair pre-selection threshold      ...     2.500000e-12

Calculating pre-screening integrals         ... done (  0.1 sec) Dimension = 304
Organizing shell pair data                  ... done (  0.4 sec)
Shell pair information
Total number of shell pairs                 ...     46360
Shell pairs after pre-screening             ...     22085
Total number of primitive shell pairs       ...    165582
Primitive shell pairs kept                  ...     47646
          la=0 lb=0:   7760 shell pairs
          la=1 lb=0:   7783 shell pairs
          la=1 lb=1:   1851 shell pairs
          la=2 lb=0:   2902 shell pairs
          la=2 lb=1:   1495 shell pairs
          la=2 lb=2:    294 shell pairs

Calculating one electron integrals          ... done (  0.1 sec)
Calculating RI/J V-Matrix + Cholesky decomp.... done (  1.4 sec)
Calculating Nuclear repulsion               ... done (  0.0 sec) ENN=   4664.835324418428 Eh

SHARK setup successfully completed in   2.9 seconds

Maximum memory used throughout the entire GTOINT-calculation: 53.4 MB


           ************************************************************
           *        Program running with 4 parallel MPI-processes     *
           *              working on a common directory               *
           ************************************************************
-------------------------------------------------------------------------------
                                 ORCA SCF
-------------------------------------------------------------------------------

------------
SCF SETTINGS
------------
Hamiltonian:
 Density Functional     Method          .... DFT(GTOs)
 Exchange Functional    Exchange        .... PBE
   PBE kappa parameter   XKappa         ....  1.024500
   PBE mue parameter    XMuePBE         ....  0.123457
 Correlation Functional Correlation     .... PBE
   PBE beta parameter  CBetaPBE         ....  0.030000
 LDA part of GGA corr.  LDAOpt          .... PW91-LDA
 Gradients option       PostSCFGGA      .... off
 Hybrid DFT is turned on
   Fraction HF Exchange ScalHFX         ....  0.420000
   Scaling of DF-GGA-X  ScalDFX         ....  0.580000
   Scaling of DF-GGA-C  ScalDFC         ....  1.000000
   Scaling of DF-LDA-C  ScalLDAC        ....  1.000000
   Perturbative correction              ....  0.000000
   Density functional embedding theory  .... OFF
 RI-approximation to the Coulomb term is turned on
   Number of AuxJ basis functions       .... 2057
   RIJ-ON(X) (HFX calculated with O(N)) .... on
   Number of AuxJ basis functions       .... 2057
   RIJ-COSX (HFX calculated with COS-X)).... on


General Settings:
 Integral files         IntName         .... pbeh-3c
 Hartree-Fock type      HFTyp           .... RHF
 Total Charge           Charge          ....   -1
 Multiplicity           Mult            ....    1
 Number of Electrons    NEL             ....  286
 Basis Dimension        Dim             ....  602
 Nuclear Repulsion      ENuc            ....   4664.8353244184 Eh

Convergence Acceleration:
 DIIS                   CNVDIIS         .... on
   Start iteration      DIISMaxIt       ....    12
   Startup error        DIISStart       ....  0.200000
   # of expansion vecs  DIISMaxEq       ....     5
   Bias factor          DIISBfac        ....   1.050
   Max. coefficient     DIISMaxC        ....  10.000
 Trust-Rad. Augm. Hess. CNVTRAH         .... auto
   Auto Start mean grad. ratio tolernc. ....  1.125000
   Auto Start start iteration           ....    20
   Auto Start num. interpolation iter.  ....    10
   Max. Number of Micro iterations      ....    16
   Max. Number of Macro iterations      .... Maxiter - #DIIS iter
   Number of Davidson start vectors     ....     2
   Converg. threshold I  (grad. norm)   ....   1.000e-05
   Converg. threshold II (energy diff.) ....   1.000e-08
   Grad. Scal. Fac. for Micro threshold ....   0.100
   Minimum threshold for Micro iter.    ....   0.010
   NR start threshold (gradient norm)   ....   0.001
   Initial trust radius                 ....   0.400
   Minimum AH scaling param. (alpha)    ....   1.000
   Maximum AH scaling param. (alpha)    .... 1000.000
   Orbital update algorithm             .... Taylor
   White noise on init. David. guess    .... on
   Maximum white noise                  ....   0.010
   Quad. conv. algorithm                .... NR
   COSX micro iterations for RIJONX calc.... off
 SOSCF                  CNVSOSCF        .... on
   Start iteration      SOSCFMaxIt      ....   150
   Startup grad/error   SOSCFStart      ....  0.003300
 Level Shifting         CNVShift        .... on
   Level shift para.    LevelShift      ....    0.2500
   Turn off err/grad.   ShiftErr        ....    0.0010
 Zerner damping         CNVZerner       .... off
 Static damping         CNVDamp         .... on
   Fraction old density DampFac         ....    0.7000
   Max. Damping (<1)    DampMax         ....    0.9800
   Min. Damping (>=0)   DampMin         ....    0.0000
   Turn off err/grad.   DampErr         ....    0.1000
 Fernandez-Rico         CNVRico         .... off

SCF Procedure:
 Maximum # iterations   MaxIter         ....   125
 SCF integral mode      SCFMode         .... Direct
   Integral package                     .... SHARK and LIBINT hybrid scheme
 Reset frequency        DirectResetFreq ....    20
 Integral Threshold     Thresh          ....  2.500e-11 Eh
 Primitive CutOff       TCut            ....  2.500e-12 Eh

Convergence Tolerance:
 Convergence Check Mode ConvCheckMode   .... Total+1el-Energy
 Convergence forced     ConvForced      .... 0
 Energy Change          TolE            ....  1.000e-08 Eh
 1-El. energy change                    ....  1.000e-05 Eh
 Orbital Gradient       TolG            ....  1.000e-05
 Orbital Rotation angle TolX            ....  1.000e-05
 DIIS Error             TolErr          ....  5.000e-07


Diagonalization of the overlap matrix:
Smallest eigenvalue                        ... 1.578e-03
Time for diagonalization                   ...    0.098 sec
Threshold for overlap eigenvalues          ... 1.000e-08
Number of eigenvalues below threshold      ... 0
Time for construction of square roots      ...    0.147 sec
Total time needed                          ...    0.248 sec

--------------------------------
INITIAL GUESS: MINIMAL BASIS EHT
--------------------------------
The minimal basis has 211 functions
EHT matrix was diagonalized
Basis set overlap was calculated now projecting the orbitals
Using GuessMode=FMatrix for the initial guess
C*T matrix was formed
Effective Fockian was calculated
Effective Fockian was diagonalized
Initial density was built
                      ------------------
                      INITIAL GUESS DONE
                      ------------------
-------------------
DFT GRID GENERATION
-------------------

General Integration Accuracy     IntAcc      ... 4.959
Radial Grid Type                 RadialGrid  ... OptM3 with GC (2021)
Angular Grid (max. ang.)         AngularGrid ... 6 (Lebedev-590)
Angular grid pruning method      GridPruning ... 4 (adaptive)
Weight generation scheme         WeightScheme... Becke
Basis function cutoff            BFCut       ... 1.0000e-11
Integration weight cutoff        WCut        ... 1.0000e-14
Angular grids for H and He will be reduced by one unit
Partially contracted basis set               ... off
Rotationally invariant grid construction     ... off

Total number of grid points                  ...   710422
Total number of batches                      ...    11129
Average number of points per batch           ...       63
Average number of grid points per atom       ...    12041
Time for grid setup =   17.012 sec

--------------------
COSX GRID GENERATION
--------------------

GRIDX 1
-------
General Integration Accuracy     IntAcc      ... 4.020
Radial Grid Type                 RadialGrid  ... OptM3 with GC (2021)
Angular Grid (max. ang.)         AngularGrid ... 2 (Lebedev-110)
Angular grid pruning method      GridPruning ... 4 (adaptive)
Weight generation scheme         WeightScheme... Becke
Basis function cutoff            BFCut       ... 1.0000e-11
Integration weight cutoff        WCut        ... 1.0000e-14
Angular grids for H and He will be reduced by one unit
Partially contracted basis set               ... on
Rotationally invariant grid construction     ... off

Total number of grid points                  ...    80776
Total number of batches                      ...     1288
Average number of points per batch           ...       62
Average number of grid points per atom       ...     1369
UseSFitting                                  ... on

GRIDX 2
-------
General Integration Accuracy     IntAcc      ... 4.338
Radial Grid Type                 RadialGrid  ... OptM3 with GC (2021)
Angular Grid (max. ang.)         AngularGrid ... 3 (Lebedev-194)
Angular grid pruning method      GridPruning ... 4 (adaptive)
Weight generation scheme         WeightScheme... Becke
Basis function cutoff            BFCut       ... 1.0000e-11
Integration weight cutoff        WCut        ... 1.0000e-14
Angular grids for H and He will be reduced by one unit
Partially contracted basis set               ... on
Rotationally invariant grid construction     ... off

Total number of grid points                  ...   177212
Total number of batches                      ...     2797
Average number of points per batch           ...       63
Average number of grid points per atom       ...     3004
UseSFitting                                  ... on

GRIDX 3
-------
General Integration Accuracy     IntAcc      ... 4.871
Radial Grid Type                 RadialGrid  ... OptM3 with GC (2021)
Angular Grid (max. ang.)         AngularGrid ... 4 (Lebedev-302)
Angular grid pruning method      GridPruning ... 4 (adaptive)
Weight generation scheme         WeightScheme... Becke
Basis function cutoff            BFCut       ... 1.0000e-11
Integration weight cutoff        WCut        ... 1.0000e-14
Angular grids for H and He will be reduced by one unit
Partially contracted basis set               ... on
Rotationally invariant grid construction     ... off

Total number of grid points                  ...   325788
Total number of batches                      ...     5120
Average number of points per batch           ...       63
Average number of grid points per atom       ...     5522
UseSFitting                                  ... on

Time for X-Grid setup             =   13.618 sec

--------------
SCF ITERATIONS
--------------
ITER       Energy         Delta-E        Max-DP      RMS-DP      [F,P]     Damp
               ***  Starting incremental Fock matrix formation  ***
  0  -2300.5497425437   0.000000000000 0.46774477  0.00443823  0.7185294 0.7000
  1  -2303.6160905970  -3.066348053272 0.16532665  0.00231604  0.3662472 0.7000
  2  -2305.0307095833  -1.414618986370 0.08024622  0.00129348  0.2586062 0.7000
                               ***Turning on DIIS***
  3  -2306.0299284536  -0.999218870261 0.08196211  0.00089814  0.1789921 0.7000
  4  -2306.7511422749  -0.721213821351 0.05552995  0.00064306  0.1223642 0.7000
  5  -2307.2592234068  -0.508081131847 0.12311925  0.00154785  0.0847700 0.0000
  6  -2308.4616245114  -1.202401104647 0.00562581  0.00008454  0.0043125 0.0000
                      *** Initiating the SOSCF procedure ***
                           *** Shutting down DIIS ***
                      *** Re-Reading the Fockian *** 
                      *** Removing any level shift *** 
ITER      Energy       Delta-E        Grad      Rot      Max-DP    RMS-DP
  7  -2308.46227053  -0.0006460226  0.000987  0.000987  0.003023  0.000040
               *** Restarting incremental Fock matrix formation ***
  8  -2308.46243453  -0.0001639971  0.001030  0.003226  0.001727  0.000029
  9  -2308.46247081  -0.0000362824  0.000391  0.001139  0.003064  0.000030
 10  -2308.46247860  -0.0000077861  0.000242  0.000650  0.001272  0.000014
 11  -2308.46248527  -0.0000066683  0.000028  0.000048  0.000149  0.000002
 12  -2308.46248527  -0.0000000015  0.000041  0.000035  0.000083  0.000001
 13  -2308.46248539  -0.0000001161  0.000004  0.000012  0.000025  0.000000
 14  -2308.46248539   0.0000000001  0.000003  0.000005  0.000013  0.000000
                  ***Gradient check signals convergence***
              ***Rediagonalizing the Fockian in SOSCF/NRSCF***

               *****************************************************
               *                     SUCCESS                       *
               *           SCF CONVERGED AFTER  15 CYCLES          *
               *****************************************************

Old exchange energy                            =   -111.716205602 Eh
New exchange energy                            =   -111.716227725 Eh
Exchange energy change after final integration =     -0.000022124 Eh
Total energy after final integration           =  -2308.462507531 Eh
Final COS-X integration done in                =   101.852 sec

----------------
TOTAL SCF ENERGY
----------------

Total Energy       :        -2308.46250753 Eh          -62816.45836 eV

Components:
Nuclear Repulsion  :         4664.83532442 Eh          126936.62251 eV
Electronic Energy  :        -6973.29783195 Eh         -189753.08087 eV
One Electron Energy:       -12488.41402367 Eh         -339827.02206 eV
Two Electron Energy:         5515.11619172 Eh          150073.94119 eV
Max COSX asymmetry :            0.00000464 Eh               0.00013 eV

Virial components:
Potential Energy   :        -4601.43742837 Eh         -125211.47805 eV
Kinetic Energy     :         2292.97492084 Eh           62395.01970 eV
Virial Ratio       :            2.00675436


DFT components:
N(Alpha)           :      142.999996921582 electrons
N(Beta)            :      142.999996921582 electrons
N(Total)           :      285.999993843165 electrons
E(X)               :     -148.804318600818 Eh       
E(C)               :      -13.012177332794 Eh       
E(XC)              :     -161.816495933612 Eh       
DFET-embed. en.    :        0.000000000000 Eh       

---------------
SCF CONVERGENCE
---------------

  Last Energy change         ...   -2.2344e-08  Tolerance :   1.0000e-08
  Last MAX-Density change    ...    2.3315e-15  Tolerance :   1.0000e-07
  Last RMS-Density change    ...    3.1983e-17  Tolerance :   5.0000e-09
  Last Orbital Gradient      ...    6.6174e-07  Tolerance :   1.0000e-05
  Last Orbital Rotation      ...    2.3427e-06  Tolerance :   1.0000e-05

             **** THE GBW FILE WAS UPDATED (pbeh-3c.gbw) ****
             **** DENSITY pbeh-3c.scfp WAS UPDATED ****
             **** ENERGY FILE WAS UPDATED (pbeh-3c.en.tmp) ****
             **** THE GBW FILE WAS UPDATED (pbeh-3c.gbw) ****
             **** DENSITY pbeh-3c.scfp WAS UPDATED ****
----------------
ORBITAL ENERGIES
----------------

  NO   OCC          E(Eh)            E(eV) 
   0   2.0000     -77.730159     -2115.1452 
   1   2.0000     -19.448571      -529.2225 
   2   2.0000     -19.439037      -528.9631 
   3   2.0000     -19.430350      -528.7267 
   4   2.0000     -19.429826      -528.7124 
   5   2.0000     -19.416750      -528.3566 
   6   2.0000     -19.412216      -528.2333 
   7   2.0000     -19.405442      -528.0489 
   8   2.0000     -19.403121      -527.9858 
   9   2.0000     -19.402705      -527.9744 
  10   2.0000     -19.399711      -527.8930 
  11   2.0000     -19.398438      -527.8583 
  12   2.0000     -19.390958      -527.6548 
  13   2.0000     -19.290382      -524.9180 
  14   2.0000     -19.285672      -524.7898 
  15   2.0000     -14.636069      -398.2677 
  16   2.0000     -14.630981      -398.1292 
  17   2.0000     -14.622900      -397.9093 
  18   2.0000     -14.617319      -397.7575 
  19   2.0000     -10.529403      -286.5196 
  20   2.0000     -10.525265      -286.4070 
  21   2.0000     -10.496967      -285.6370 
  22   2.0000     -10.488748      -285.4134 
  23   2.0000     -10.457363      -284.5593 
  24   2.0000     -10.456970      -284.5486 
  25   2.0000     -10.446907      -284.2748 
  26   2.0000     -10.433993      -283.9234 
  27   2.0000     -10.433631      -283.9135 
  28   2.0000     -10.424544      -283.6663 
  29   2.0000     -10.422238      -283.6035 
  30   2.0000     -10.420732      -283.5625 
  31   2.0000     -10.417859      -283.4844 
  32   2.0000     -10.416629      -283.4509 
  33   2.0000     -10.414238      -283.3858 
  34   2.0000     -10.405480      -283.1475 
  35   2.0000     -10.384666      -282.5811 
  36   2.0000     -10.372819      -282.2588 
  37   2.0000      -6.774638      -184.3473 
  38   2.0000      -4.869821      -132.5146 
  39   2.0000      -4.868432      -132.4768 
  40   2.0000      -4.866075      -132.4126 
  41   2.0000      -1.114264       -30.3207 
  42   2.0000      -1.110584       -30.2205 
  43   2.0000      -1.093664       -29.7601 
  44   2.0000      -1.088189       -29.6111 
  45   2.0000      -1.071443       -29.1554 
  46   2.0000      -1.070508       -29.1300 
  47   2.0000      -1.065234       -28.9865 
  48   2.0000      -1.063856       -28.9490 
  49   2.0000      -1.058745       -28.8099 
  50   2.0000      -1.045691       -28.4547 
  51   2.0000      -1.043975       -28.4080 
  52   2.0000      -1.015622       -27.6365 
  53   2.0000      -1.003058       -27.2946 
  54   2.0000      -0.998179       -27.1618 
  55   2.0000      -0.955450       -25.9991 
  56   2.0000      -0.950047       -25.8521 
  57   2.0000      -0.919365       -25.0172 
  58   2.0000      -0.878278       -23.8992 
  59   2.0000      -0.820741       -22.3335 
  60   2.0000      -0.811671       -22.0867 
  61   2.0000      -0.795161       -21.6374 
  62   2.0000      -0.787888       -21.4395 
  63   2.0000      -0.767218       -20.8771 
  64   2.0000      -0.766820       -20.8662 
  65   2.0000      -0.698046       -18.9948 
  66   2.0000      -0.696031       -18.9400 
  67   2.0000      -0.693412       -18.8687 
  68   2.0000      -0.688328       -18.7303 
  69   2.0000      -0.647436       -17.6176 
  70   2.0000      -0.644200       -17.5296 
  71   2.0000      -0.612851       -16.6765 
  72   2.0000      -0.611178       -16.6310 
  73   2.0000      -0.593230       -16.1426 
  74   2.0000      -0.587491       -15.9864 
  75   2.0000      -0.560120       -15.2416 
  76   2.0000      -0.558139       -15.1877 
  77   2.0000      -0.554105       -15.0780 
  78   2.0000      -0.552961       -15.0468 
  79   2.0000      -0.537329       -14.6215 
  80   2.0000      -0.532459       -14.4890 
  81   2.0000      -0.524334       -14.2679 
  82   2.0000      -0.517085       -14.0706 
  83   2.0000      -0.504146       -13.7185 
  84   2.0000      -0.497494       -13.5375 
  85   2.0000      -0.492619       -13.4048 
  86   2.0000      -0.480695       -13.0804 
  87   2.0000      -0.475901       -12.9499 
  88   2.0000      -0.471863       -12.8400 
  89   2.0000      -0.461752       -12.5649 
  90   2.0000      -0.460195       -12.5225 
  91   2.0000      -0.449945       -12.2436 
  92   2.0000      -0.447636       -12.1808 
  93   2.0000      -0.440020       -11.9736 
  94   2.0000      -0.436410       -11.8753 
  95   2.0000      -0.433885       -11.8066 
  96   2.0000      -0.432423       -11.7668 
  97   2.0000      -0.424909       -11.5624 
  98   2.0000      -0.422538       -11.4978 
  99   2.0000      -0.415757       -11.3133 
 100   2.0000      -0.410367       -11.1667 
 101   2.0000      -0.408809       -11.1243 
 102   2.0000      -0.405471       -11.0334 
 103   2.0000      -0.402737       -10.9590 
 104   2.0000      -0.398700       -10.8492 
 105   2.0000      -0.397256       -10.8099 
 106   2.0000      -0.393652       -10.7118 
 107   2.0000      -0.381289       -10.3754 
 108   2.0000      -0.379488       -10.3264 
 109   2.0000      -0.376542       -10.2462 
 110   2.0000      -0.374146       -10.1810 
 111   2.0000      -0.359005        -9.7690 
 112   2.0000      -0.351877        -9.5751 
 113   2.0000      -0.349507        -9.5106 
 114   2.0000      -0.338701        -9.2165 
 115   2.0000      -0.337613        -9.1869 
 116   2.0000      -0.335063        -9.1175 
 117   2.0000      -0.332132        -9.0378 
 118   2.0000      -0.323763        -8.8100 
 119   2.0000      -0.313643        -8.5346 
 120   2.0000      -0.311681        -8.4813 
 121   2.0000      -0.302783        -8.2391 
 122   2.0000      -0.286947        -7.8082 
 123   2.0000      -0.283786        -7.7222 
 124   2.0000      -0.279775        -7.6131 
 125   2.0000      -0.275629        -7.5002 
 126   2.0000      -0.274929        -7.4812 
 127   2.0000      -0.264840        -7.2067 
 128   2.0000      -0.262519        -7.1435 
 129   2.0000      -0.261608        -7.1187 
 130   2.0000      -0.257392        -7.0040 
 131   2.0000      -0.253665        -6.9026 
 132   2.0000      -0.246934        -6.7194 
 133   2.0000      -0.246383        -6.7044 
 134   2.0000      -0.244808        -6.6616 
 135   2.0000      -0.239491        -6.5169 
 136   2.0000      -0.237126        -6.4525 
 137   2.0000      -0.217005        -5.9050 
 138   2.0000      -0.208854        -5.6832 
 139   2.0000      -0.203042        -5.5251 
 140   2.0000      -0.200479        -5.4553 
 141   2.0000      -0.182204        -4.9580 
 142   2.0000      -0.168663        -4.5896 
 143   0.0000       0.056907         1.5485 
 144   0.0000       0.066950         1.8218 
 145   0.0000       0.114783         3.1234 
 146   0.0000       0.119399         3.2490 
 147   0.0000       0.160571         4.3694 
 148   0.0000       0.169147         4.6027 
 149   0.0000       0.190512         5.1841 
 150   0.0000       0.204614         5.5678 
 151   0.0000       0.207806         5.6547 
 152   0.0000       0.212536         5.7834 
 153   0.0000       0.216545         5.8925 
 154   0.0000       0.229541         6.2461 
 155   0.0000       0.231107         6.2888 
 156   0.0000       0.234949         6.3933 
 157   0.0000       0.240482         6.5439 
 158   0.0000       0.242827         6.6077 
 159   0.0000       0.245835         6.6895 
 160   0.0000       0.250963         6.8291 
 161   0.0000       0.257220         6.9993 
 162   0.0000       0.262552         7.1444 
 163   0.0000       0.266736         7.2583 
 164   0.0000       0.269953         7.3458 
 165   0.0000       0.280031         7.6200 
 166   0.0000       0.281979         7.6731 
 167   0.0000       0.286430         7.7942 
 168   0.0000       0.287978         7.8363 
 169   0.0000       0.289515         7.8781 
 170   0.0000       0.293101         7.9757 
 171   0.0000       0.297654         8.0996 
 172   0.0000       0.300041         8.1645 
 173   0.0000       0.303144         8.2490 
 174   0.0000       0.307837         8.3767 
 175   0.0000       0.311564         8.4781 
 176   0.0000       0.312203         8.4955 
 177   0.0000       0.319423         8.6919 
 178   0.0000       0.324857         8.8398 
 179   0.0000       0.330143         8.9836 
 180   0.0000       0.333157         9.0657 
 181   0.0000       0.339190         9.2298 
 182   0.0000       0.343310         9.3419 
 183   0.0000       0.347696         9.4613 
 184   0.0000       0.349738         9.5169 
 185   0.0000       0.354656         9.6507 
 186   0.0000       0.362273         9.8580 
 187   0.0000       0.367903        10.0112 
 188   0.0000       0.371451        10.1077 
 189   0.0000       0.377810        10.2807 
 190   0.0000       0.382060        10.3964 
 191   0.0000       0.384697        10.4681 
 192   0.0000       0.392634        10.6841 
 193   0.0000       0.395507        10.7623 
 194   0.0000       0.408118        11.1055 
 195   0.0000       0.412121        11.2144 
 196   0.0000       0.417780        11.3684 
 197   0.0000       0.417988        11.3740 
 198   0.0000       0.430442        11.7129 
 199   0.0000       0.441220        12.0062 
 200   0.0000       0.447833        12.1862 
 201   0.0000       0.449687        12.2366 
 202   0.0000       0.450877        12.2690 
 203   0.0000       0.460963        12.5434 
 204   0.0000       0.469469        12.7749 
 205   0.0000       0.481247        13.0954 
 206   0.0000       0.489215        13.3122 
 207   0.0000       0.491373        13.3709 
 208   0.0000       0.502787        13.6815 
 209   0.0000       0.537698        14.6315 
 210   0.0000       0.546169        14.8620 
 211   0.0000       0.556202        15.1350 
 212   0.0000       0.559857        15.2345 
 213   0.0000       0.568752        15.4765 
 214   0.0000       0.582688        15.8557 
 215   0.0000       0.587558        15.9883 
 216   0.0000       0.598216        16.2783 
 217   0.0000       0.604649        16.4533 
 218   0.0000       0.609996        16.5988 
 219   0.0000       0.621613        16.9150 
 220   0.0000       0.624196        16.9852 
 221   0.0000       0.626039        17.0354 
 222   0.0000       0.628696        17.1077 
 223   0.0000       0.631906        17.1950 
 224   0.0000       0.633929        17.2501 
 225   0.0000       0.637527        17.3480 
 226   0.0000       0.645526        17.5657 
 227   0.0000       0.650662        17.7054 
 228   0.0000       0.655817        17.8457 
 229   0.0000       0.661751        18.0072 
 230   0.0000       0.664216        18.0742 
 231   0.0000       0.667091        18.1525 
 232   0.0000       0.673009        18.3135 
 233   0.0000       0.680882        18.5277 
 234   0.0000       0.683046        18.5866 
 235   0.0000       0.692337        18.8395 
 236   0.0000       0.701635        19.0925 
 237   0.0000       0.706593        19.2274 
 238   0.0000       0.710778        19.3413 
 239   0.0000       0.713960        19.4278 
 240   0.0000       0.716730        19.5032 
 241   0.0000       0.720981        19.6189 
 242   0.0000       0.727454        19.7950 
 243   0.0000       0.731611        19.9081 
 244   0.0000       0.738180        20.0869 
 245   0.0000       0.741327        20.1725 
 246   0.0000       0.743571        20.2336 
 247   0.0000       0.751374        20.4459 
 248   0.0000       0.758327        20.6351 
 249   0.0000       0.762358        20.7448 
 250   0.0000       0.772538        21.0218 
 251   0.0000       0.782354        21.2889 
 252   0.0000       0.785577        21.3766 
 253   0.0000       0.792369        21.5615 
 254   0.0000       0.798649        21.7323 
 255   0.0000       0.806407        21.9435 
 256   0.0000       0.810954        22.0672 
 257   0.0000       0.822455        22.3801 
 258   0.0000       0.828874        22.5548 
 259   0.0000       0.835098        22.7242 
 260   0.0000       0.853397        23.2221 
 261   0.0000       0.853870        23.2350 
 262   0.0000       0.863680        23.5019 
 263   0.0000       0.865300        23.5460 
 264   0.0000       0.867770        23.6132 
 265   0.0000       0.877632        23.8816 
 266   0.0000       0.885274        24.0895 
 267   0.0000       0.901262        24.5246 
 268   0.0000       0.915634        24.9157 
 269   0.0000       0.927189        25.2301 
 270   0.0000       0.950958        25.8769 
 271   0.0000       0.957134        26.0449 
 272   0.0000       0.963986        26.2314 
 273   0.0000       0.968282        26.3483 
 274   0.0000       0.975930        26.5564 
 275   0.0000       0.978268        26.6200 
 276   0.0000       0.984858        26.7993 
 277   0.0000       0.987968        26.8840 
 278   0.0000       0.991264        26.9737 
 279   0.0000       0.995382        27.0857 
 280   0.0000       1.002721        27.2854 
 281   0.0000       1.022555        27.8251 
 282   0.0000       1.024103        27.8673 
 283   0.0000       1.029697        28.0195 
 284   0.0000       1.033719        28.1289 
 285   0.0000       1.042647        28.3719 
 286   0.0000       1.046709        28.4824 
 287   0.0000       1.048796        28.5392 
 288   0.0000       1.054960        28.7069 
 289   0.0000       1.058999        28.8168 
 290   0.0000       1.063283        28.9334 
 291   0.0000       1.064319        28.9616 
 292   0.0000       1.070607        29.1327 
 293   0.0000       1.075392        29.2629 
 294   0.0000       1.079388        29.3717 
 295   0.0000       1.082956        29.4687 
 296   0.0000       1.087283        29.5865 
 297   0.0000       1.089023        29.6338 
 298   0.0000       1.092753        29.7353 
 299   0.0000       1.102972        30.0134 
 300   0.0000       1.108207        30.1559 
 301   0.0000       1.117953        30.4210 
 302   0.0000       1.119295        30.4576 
 303   0.0000       1.128689        30.7132 
 304   0.0000       1.131098        30.7787 
 305   0.0000       1.139053        30.9952 
 306   0.0000       1.141522        31.0624 
 307   0.0000       1.150824        31.3155 
 308   0.0000       1.152155        31.3517 
 309   0.0000       1.157170        31.4882 
 310   0.0000       1.177322        32.0366 
 311   0.0000       1.179445        32.0943 
 312   0.0000       1.186486        32.2859 
 313   0.0000       1.192601        32.4523 
 314   0.0000       1.195298        32.5257 
 315   0.0000       1.210261        32.9329 
 316   0.0000       1.211362        32.9628 
 317   0.0000       1.216530        33.1035 
 318   0.0000       1.220389        33.2085 
 319   0.0000       1.223962        33.3057 
 320   0.0000       1.231643        33.5147 
 321   0.0000       1.235169        33.6106 
 322   0.0000       1.247141        33.9364 
 323   0.0000       1.252777        34.0898 
 324   0.0000       1.262072        34.3427 
 325   0.0000       1.270458        34.5709 
 326   0.0000       1.277538        34.7636 
 327   0.0000       1.280356        34.8402 
 328   0.0000       1.285210        34.9723 
 329   0.0000       1.292671        35.1754 
 330   0.0000       1.296177        35.2708 
 331   0.0000       1.300059        35.3764 
 332   0.0000       1.305222        35.5169 
 333   0.0000       1.306801        35.5599 
 334   0.0000       1.316719        35.8298 
 335   0.0000       1.324215        36.0337 
 336   0.0000       1.328972        36.1632 
 337   0.0000       1.331473        36.2312 
 338   0.0000       1.338966        36.4351 
 339   0.0000       1.348333        36.6900 
 340   0.0000       1.353628        36.8341 
 341   0.0000       1.363611        37.1057 
 342   0.0000       1.364317        37.1249 
 343   0.0000       1.371137        37.3105 
 344   0.0000       1.385011        37.6881 
 345   0.0000       1.386211        37.7207 
 346   0.0000       1.389345        37.8060 
 347   0.0000       1.403514        38.1916 
 348   0.0000       1.412071        38.4244 
 349   0.0000       1.428734        38.8778 
 350   0.0000       1.434883        39.0452 
 351   0.0000       1.444736        39.3133 
 352   0.0000       1.459104        39.7042 
 353   0.0000       1.462741        39.8032 
 354   0.0000       1.465884        39.8887 
 355   0.0000       1.469028        39.9743 
 356   0.0000       1.473857        40.1057 
 357   0.0000       1.484677        40.4001 
 358   0.0000       1.495201        40.6865 
 359   0.0000       1.508601        41.0511 
 360   0.0000       1.509198        41.0674 
 361   0.0000       1.514623        41.2150 
 362   0.0000       1.516583        41.2683 
 363   0.0000       1.523751        41.4634 
 364   0.0000       1.537031        41.8247 
 365   0.0000       1.542190        41.9651 
 366   0.0000       1.554120        42.2897 
 367   0.0000       1.570252        42.7287 
 368   0.0000       1.573085        42.8058 
 369   0.0000       1.577169        42.9170 
 370   0.0000       1.585679        43.1485 
 371   0.0000       1.591235        43.2997 
 372   0.0000       1.593672        43.3660 
 373   0.0000       1.623400        44.1750 
 374   0.0000       1.626314        44.2542 
 375   0.0000       1.630197        44.3599 
 376   0.0000       1.638691        44.5910 
 377   0.0000       1.654657        45.0255 
 378   0.0000       1.659811        45.1657 
 379   0.0000       1.666295        45.3422 
 380   0.0000       1.672807        45.5194 
 381   0.0000       1.685555        45.8663 
 382   0.0000       1.707411        46.4610 
 383   0.0000       1.708079        46.4792 
 384   0.0000       1.724337        46.9216 
 385   0.0000       1.732629        47.1472 
 386   0.0000       1.740891        47.3721 
 387   0.0000       1.756656        47.8011 
 388   0.0000       1.766362        48.0652 
 389   0.0000       1.770422        48.1756 
 390   0.0000       1.786912        48.6244 
 391   0.0000       1.789811        48.7032 
 392   0.0000       1.820128        49.5282 
 393   0.0000       1.824830        49.6562 
 394   0.0000       1.830164        49.8013 
 395   0.0000       1.835756        49.9535 
 396   0.0000       1.848265        50.2939 
 397   0.0000       1.858465        50.5714 
 398   0.0000       1.868528        50.8452 
 399   0.0000       1.869569        50.8736 
 400   0.0000       1.881761        51.2053 
 401   0.0000       1.890107        51.4324 
 402   0.0000       1.899676        51.6928 
 403   0.0000       1.904551        51.8255 
 404   0.0000       1.914119        52.0858 
 405   0.0000       1.915131        52.1134 
 406   0.0000       1.920053        52.2473 
 407   0.0000       1.923406        52.3385 
 408   0.0000       1.934165        52.6313 
 409   0.0000       1.939295        52.7709 
 410   0.0000       1.946819        52.9756 
 411   0.0000       1.952915        53.1415 
 412   0.0000       1.953706        53.1630 
 413   0.0000       1.954963        53.1973 
 414   0.0000       1.959101        53.3099 
 415   0.0000       1.959503        53.3208 
 416   0.0000       1.967805        53.5467 
 417   0.0000       1.973063        53.6898 
 418   0.0000       1.975965        53.7687 
 419   0.0000       1.990248        54.1574 
 420   0.0000       1.994660        54.2774 
 421   0.0000       2.000956        54.4488 
 422   0.0000       2.006525        54.6003 
 423   0.0000       2.021902        55.0187 
 424   0.0000       2.026356        55.1400 
 425   0.0000       2.029246        55.2186 
 426   0.0000       2.034589        55.3640 
 427   0.0000       2.041904        55.5630 
 428   0.0000       2.050181        55.7883 
 429   0.0000       2.053766        55.8858 
 430   0.0000       2.058047        56.0023 
 431   0.0000       2.058955        56.0270 
 432   0.0000       2.065623        56.2085 
 433   0.0000       2.075099        56.4663 
 434   0.0000       2.079482        56.5856 
 435   0.0000       2.083752        56.7018 
 436   0.0000       2.094226        56.9868 
 437   0.0000       2.097012        57.0626 
 438   0.0000       2.098976        57.1160 
 439   0.0000       2.106861        57.3306 
 440   0.0000       2.107932        57.3597 
 441   0.0000       2.115508        57.5659 
 442   0.0000       2.117530        57.6209 
 443   0.0000       2.126981        57.8781 
 444   0.0000       2.128120        57.9091 
 445   0.0000       2.131092        57.9900 
 446   0.0000       2.138043        58.1791 
 447   0.0000       2.144218        58.3471 
 448   0.0000       2.148573        58.4656 
 449   0.0000       2.152207        58.5645 
 450   0.0000       2.159565        58.7647 
 451   0.0000       2.163560        58.8735 
 452   0.0000       2.172073        59.1051 
 453   0.0000       2.174956        59.1836 
 454   0.0000       2.176363        59.2218 
 455   0.0000       2.189413        59.5769 
 456   0.0000       2.204510        59.9878 
 457   0.0000       2.214701        60.2651 
 458   0.0000       2.219707        60.4013 
 459   0.0000       2.226713        60.5919 
 460   0.0000       2.242149        61.0120 
 461   0.0000       2.245015        61.0900 
 462   0.0000       2.247350        61.1535 
 463   0.0000       2.262571        61.5677 
 464   0.0000       2.268238        61.7219 
 465   0.0000       2.268976        61.7420 
 466   0.0000       2.283549        62.1385 
 467   0.0000       2.291586        62.3572 
 468   0.0000       2.297593        62.5207 
 469   0.0000       2.301062        62.6151 
 470   0.0000       2.303641        62.6853 
 471   0.0000       2.314698        62.9861 
 472   0.0000       2.321307        63.1660 
 473   0.0000       2.322839        63.2077 
 474   0.0000       2.325836        63.2892 
 475   0.0000       2.346395        63.8486 
 476   0.0000       2.354469        64.0684 
 477   0.0000       2.360741        64.2390 
 478   0.0000       2.367823        64.4317 
 479   0.0000       2.377701        64.7005 
 480   0.0000       2.383335        64.8538 
 481   0.0000       2.405445        65.4555 
 482   0.0000       2.416707        65.7619 
 483   0.0000       2.419586        65.8403 
 484   0.0000       2.423882        65.9572 
 485   0.0000       2.437321        66.3229 
 486   0.0000       2.440432        66.4075 
 487   0.0000       2.444905        66.5293 
 488   0.0000       2.449015        66.6411 
 489   0.0000       2.459412        66.9240 
 490   0.0000       2.462401        67.0053 
 491   0.0000       2.480879        67.5082 
 492   0.0000       2.487603        67.6911 
 493   0.0000       2.494747        67.8855 
 494   0.0000       2.501737        68.0757 
 495   0.0000       2.509240        68.2799 
 496   0.0000       2.520208        68.5784 
 497   0.0000       2.526741        68.7561 
 498   0.0000       2.550632        69.4062 
 499   0.0000       2.555811        69.5471 
 500   0.0000       2.564553        69.7850 
 501   0.0000       2.570343        69.9426 
 502   0.0000       2.574662        70.0601 
 503   0.0000       2.596800        70.6625 
 504   0.0000       2.609568        71.0099 
 505   0.0000       2.621865        71.3446 
 506   0.0000       2.638816        71.8058 
 507   0.0000       2.651689        72.1561 
 508   0.0000       2.671061        72.6833 
 509   0.0000       2.679629        72.9164 
 510   0.0000       2.690002        73.1987 
 511   0.0000       2.694004        73.3076 
 512   0.0000       2.702729        73.5450 
 513   0.0000       2.706692        73.6528 
 514   0.0000       2.711720        73.7897 
 515   0.0000       2.712949        73.8231 
 516   0.0000       2.735557        74.4383 
 517   0.0000       2.737259        74.4846 
 518   0.0000       2.739280        74.5396 
 519   0.0000       2.741493        74.5998 
 520   0.0000       2.750167        74.8359 
 521   0.0000       2.754573        74.9557 
 522   0.0000       2.761289        75.1385 
 523   0.0000       2.780996        75.6747 
 524   0.0000       2.788604        75.8818 
 525   0.0000       2.791958        75.9730 
 526   0.0000       2.803135        76.2772 
 527   0.0000       2.807071        76.3843 
 528   0.0000       2.826938        76.9249 
 529   0.0000       2.841364        77.3175 
 530   0.0000       2.843305        77.3702 
 531   0.0000       2.852320        77.6156 
 532   0.0000       2.869888        78.0936 
 533   0.0000       2.884416        78.4890 
 534   0.0000       2.895031        78.7778 
 535   0.0000       2.901707        78.9595 
 536   0.0000       2.907624        79.1205 
 537   0.0000       2.912337        79.2487 
 538   0.0000       2.916447        79.3606 
 539   0.0000       2.934495        79.8517 
 540   0.0000       2.975849        80.9770 
 541   0.0000       2.985685        81.2446 
 542   0.0000       2.992159        81.4208 
 543   0.0000       2.995281        81.5057 
 544   0.0000       3.000943        81.6598 
 545   0.0000       3.008837        81.8746 
 546   0.0000       3.019744        82.1714 
 547   0.0000       3.023618        82.2768 
 548   0.0000       3.054276        83.1111 
 549   0.0000       3.066209        83.4358 
 550   0.0000       3.069725        83.5315 
 551   0.0000       3.072781        83.6146 
 552   0.0000       3.087319        84.0102 
 553   0.0000       3.092987        84.1644 
 554   0.0000       3.104968        84.4905 
 555   0.0000       3.117886        84.8420 
 556   0.0000       3.130181        85.1765 
 557   0.0000       3.164476        86.1098 
 558   0.0000       3.170902        86.2846 
 559   0.0000       3.177228        86.4568 
 560   0.0000       3.179609        86.5216 
 561   0.0000       3.232810        87.9692 
 562   0.0000       3.391729        92.2936 
 563   0.0000       3.397585        92.4530 
 564   0.0000       3.576076        97.3100 
 565   0.0000       3.581758        97.4646 
 566   0.0000      13.540054       368.4436 
 567   0.0000      13.553742       368.8161 
 568   0.0000      13.661915       371.7596 
 569   0.0000      13.671924       372.0320 
 570   0.0000      13.870316       377.4305 
 571   0.0000      13.885032       377.8309 
 572   0.0000      14.013668       381.3313 
 573   0.0000      14.022433       381.5698 
 574   0.0000      14.033525       381.8716 
 575   0.0000      14.035100       381.9145 
 576   0.0000      14.101882       383.7317 
 577   0.0000      14.115607       384.1052 
 578   0.0000      14.179140       385.8340 
 579   0.0000      14.189566       386.1177 
 580   0.0000      14.235647       387.3716 
 581   0.0000      14.255727       387.9181 
 582   0.0000      14.308375       389.3507 
 583   0.0000      14.320654       389.6848 
 584   0.0000      19.384387       527.4760 
 585   0.0000      19.392214       527.6890 
 586   0.0000      19.476341       529.9782 
 587   0.0000      19.481958       530.1310 
 588   0.0000      25.561965       695.5764 
 589   0.0000      25.678403       698.7449 
 590   0.0000      25.692124       699.1182 
 591   0.0000      25.740586       700.4370 
 592   0.0000      25.753710       700.7941 
 593   0.0000      25.799554       702.0416 
 594   0.0000      25.818805       702.5654 
 595   0.0000      25.821826       702.6476 
 596   0.0000      25.837816       703.0827 
 597   0.0000      25.845432       703.2900 
 598   0.0000      25.870296       703.9665 
 599   0.0000      25.874005       704.0675 
 600   0.0000      25.924943       705.4536 
 601   0.0000      25.953220       706.2230 

                    ********************************
                    * MULLIKEN POPULATION ANALYSIS *
                    ********************************

-----------------------
MULLIKEN ATOMIC CHARGES
-----------------------
   0 H :    0.425488
   1 O :   -0.644997
   2 C :   -0.193402
   3 H :    0.201502
   4 H :    0.226776
   5 C :    0.014949
   6 H :    0.275959
   7 O :   -0.494672
   8 C :    0.184192
   9 H :    0.277635
  10 N :   -0.567139
  11 C :    0.094431
  12 H :    0.316198
  13 C :   -0.489326
  14 H :    0.243914
  15 C :    0.563949
  16 O :   -0.431786
  17 N :   -0.736466
  18 H :    0.388230
  19 C :    0.727447
  20 O :   -0.441345
  21 C :   -0.052337
  22 H :    0.259636
  23 C :   -0.011503
  24 H :    0.250206
  25 O :   -0.636620
  26 H :    0.434592
  27 O :   -0.640180
  28 P :    1.390960
  29 O :   -0.724596
  30 O :   -0.743487
  31 O :   -0.636397
  32 C :   -0.177839
  33 H :    0.226283
  34 H :    0.220011
  35 C :    0.012860
  36 H :    0.222630
  37 O :   -0.481016
  38 C :    0.195869
  39 H :    0.263393
  40 N :   -0.575996
  41 C :    0.083211
  42 H :    0.357047
  43 C :   -0.487344
  44 H :    0.254770
  45 C :    0.561598
  46 O :   -0.434323
  47 N :   -0.736456
  48 H :    0.385362
  49 C :    0.730952
  50 O :   -0.450479
  51 C :   -0.085896
  52 H :    0.272373
  53 C :   -0.024517
  54 H :    0.288303
  55 O :   -0.636136
  56 H :    0.417627
  57 O :   -0.661369
  58 H :    0.427270
Sum of atomic charges:   -1.0000000

--------------------------------
MULLIKEN REDUCED ORBITAL CHARGES
--------------------------------
  0 H s       :     0.574512  s :     0.574512
  1 O s       :     3.828109  s :     3.828109
      pz      :     1.313699  p :     4.789154
      px      :     1.913039
      py      :     1.562415
      dz2     :     0.007661  d :     0.027735
      dxz     :     0.001437
      dyz     :     0.010158
      dx2y2   :     0.005279
      dxy     :     0.003200
  2 C s       :     3.278396  s :     3.278396
      pz      :     0.869211  p :     2.850004
      px      :     1.134810
      py      :     0.845983
      dz2     :     0.015460  d :     0.065002
      dxz     :     0.005387
      dyz     :     0.016687
      dx2y2   :     0.007021
      dxy     :     0.020447
  3 H s       :     0.798498  s :     0.798498
  4 H s       :     0.773224  s :     0.773224
  5 C s       :     3.234725  s :     3.234725
      pz      :     0.954165  p :     2.683522
      px      :     0.726815
      py      :     1.002542
      dz2     :     0.012973  d :     0.066804
      dxz     :     0.011890
      dyz     :     0.013016
      dx2y2   :     0.012560
      dxy     :     0.016365
  6 H s       :     0.724041  s :     0.724041
  7 O s       :     3.817321  s :     3.817321
      pz      :     1.779020  p :     4.648240
      px      :     1.536175
      py      :     1.333045
      dz2     :     0.004386  d :     0.029111
      dxz     :     0.003930
      dyz     :     0.003935
      dx2y2   :     0.010449
      dxy     :     0.006411
  8 C s       :     3.159864  s :     3.159864
      pz      :     1.110824  p :     2.570478
      px      :     0.797327
      py      :     0.662327
      dz2     :     0.019305  d :     0.085466
      dxz     :     0.008370
      dyz     :     0.015321
      dx2y2   :     0.023340
      dxy     :     0.019130
  9 H s       :     0.722365  s :     0.722365
 10 N s       :     3.563321  s :     3.563321
      pz      :     1.161365  p :     3.963273
      px      :     1.338569
      py      :     1.463339
      dz2     :     0.010022  d :     0.040546
      dxz     :     0.011203
      dyz     :     0.008740
      dx2y2   :     0.005109
      dxy     :     0.005472
 11 C s       :     3.148114  s :     3.148114
      pz      :     0.798650  p :     2.699343
      px      :     0.964083
      py      :     0.936610
      dz2     :     0.017160  d :     0.058112
      dxz     :     0.013770
      dyz     :     0.013401
      dx2y2   :     0.006370
      dxy     :     0.007411
[...]
      dxz     :     0.013692
      dyz     :     0.013319
      dx2y2   :     0.000548
      dxy     :     0.000747
 21 C s       :     2.882411  s :     2.882411
      pz      :     0.903019  p :     2.990933
      px      :     1.042117
      py      :     1.045797
      dz2     :     0.041088  d :     0.154509
      dxz     :     0.042656
      dyz     :     0.020475
      dx2y2   :     0.014780
      dxy     :     0.035510
 22 H s       :     0.863477  s :     0.863477
 23 C s       :     2.878111  s :     2.878111
      pz      :     1.045135  p :     3.001559
      px      :     0.999571
      py      :     0.956852
      dz2     :     0.034269  d :     0.160573
      dxz     :     0.019674
      dyz     :     0.027570
      dx2y2   :     0.036637
      dxy     :     0.042423
 24 H s       :     0.864613  s :     0.864613
 25 O s       :     3.519610  s :     3.519610
      pz      :     1.488533  p :     4.816933
      px      :     1.724514
      py      :     1.603886
      dz2     :     0.009593  d :     0.051029
      dxz     :     0.006848
      dyz     :     0.015260
      dx2y2   :     0.008570
      dxy     :     0.010758
 26 H s       :     0.683000  s :     0.683000
 27 O s       :     3.497387  s :     3.497387
      pz      :     1.499877  p :     4.804900
      px      :     1.548172
      py      :     1.756851
      dz2     :     0.017981  d :     0.050202
      dxz     :     0.010852
      dyz     :     0.006694
      dx2y2   :     0.005780
      dxy     :     0.008894
 28 P s       :     4.832391  s :     4.832391
      pz      :     2.802294  p :     8.258797
      px      :     2.709589
      py      :     2.746915
      dz2     :     0.268953  d :     1.105461
      dxz     :     0.187736
      dyz     :     0.262001
      dx2y2   :     0.159296
      dxy     :     0.227475
 29 O s       :     3.607956  s :     3.607956
      pz      :     1.538279  p :     4.959494
      px      :     1.706851
      py      :     1.714364
      dz2     :     0.018658  d :     0.035372
      dxz     :     0.008512
      dyz     :     0.007401
      dx2y2   :     0.000412
      dxy     :     0.000390
 30 O s       :     3.606687  s :     3.606687
      pz      :     1.664686  p :     4.969277
      px      :     1.714680
      py      :     1.589911
      dz2     :     0.004813  d :     0.035073
      dxz     :     0.002452
      dyz     :     0.014178
      dx2y2   :     0.008498
      dxy     :     0.005132
 31 O s       :     3.491942  s :     3.491942
      pz      :     1.721012  p :     4.819397
      px      :     1.692795
      py      :     1.405590
      dz2     :     0.006313  d :     0.049225
      dxz     :     0.006234
      dyz     :     0.015101
      dx2y2   :     0.010500
      dxy     :     0.011077
 32 C s       :     2.920700  s :     2.920700
      pz      :     1.083299  p :     3.040081
      px      :     1.067306
      py      :     0.889476
      dz2     :     0.033218  d :     0.136926
      dxz     :     0.009581
      dyz     :     0.024401
      dx2y2   :     0.033475
      dxy     :     0.036251
 33 H s       :     0.876246  s :     0.876246
 34 H s       :     0.871039  s :     0.871039
 35 C s       :     2.891112  s :     2.891112
      pz      :     0.828698  p :     2.979232
      px      :     1.072809
      py      :     1.077725
      dz2     :     0.047292  d :     0.148163
      dxz     :     0.028705
      dyz     :     0.030310
      dx2y2   :     0.020309
      dxy     :     0.021547
 36 H s       :     0.874049  s :     0.874049
 37 O s       :     3.482135  s :     3.482135
      pz      :     1.361277  p :     4.706619
      px      :     1.678582
      py      :     1.666760
      dz2     :     0.021127  d :     0.062902
      dxz     :     0.010474
      dyz     :     0.012716
      dx2y2   :     0.007056
      dxy     :     0.011530
 38 C s       :     2.867936  s :     2.867936
      pz      :     0.913259  p :     2.882332
      px      :     1.004043
      py      :     0.965030
      dz2     :     0.035308  d :     0.185768
      dxz     :     0.035499
      dyz     :     0.048532
      dx2y2   :     0.031764
      dxy     :     0.034666
 39 H s       :     0.857006  s :     0.857006
 40 N s       :     3.066856  s :     3.066856
      pz      :     1.190143  p :     3.916279
      px      :     1.300568
      py      :     1.425567
      dz2     :     0.026854  d :     0.102149
      dxz     :     0.029203
      dyz     :     0.019598
      dx2y2   :     0.012487
      dxy     :     0.014007
 41 C s       :     2.889030  s :     2.889030
      pz      :     1.142422  p :     2.972098
      px      :     0.933483
      py      :     0.896194
      dz2     :     0.032008  d :     0.128303
      dxz     :     0.026639
      dyz     :     0.015428
      dx2y2   :     0.028458
      dxy     :     0.025770
 42 H s       :     0.821526  s :     0.821526
 43 C s       :     2.904593  s :     2.904593
      pz      :     1.051833  p :     3.264444
      px      :     1.101857
      py      :     1.110753
      dz2     :     0.027709  d :     0.081510
      dxz     :     0.023673
      dyz     :     0.015099
      dx2y2   :     0.005023
      dxy     :     0.010005
 44 H s       :     0.839574  s :     0.839574
 45 C s       :     2.820555  s :     2.820555
      pz      :     1.051990  p :     2.783734
      px      :     0.891174
      py      :     0.840570
      dz2     :     0.086286  d :     0.269326
      dxz     :     0.063100
      dyz     :     0.049551
      dx2y2   :     0.030839
      dxy     :     0.039550
 46 O s       :     3.530154  s :     3.530154
      pz      :     1.522589  p :     4.701476
      px      :     1.642393
      py      :     1.536494
      dz2     :     0.018967  d :     0.053406
      dxz     :     0.014792
      dyz     :     0.013721
      dx2y2   :     0.003022
      dxy     :     0.002904
 47 N s       :     3.118454  s :     3.118454
      pz      :     1.206618  p :     4.007610
      px      :     1.337057
      py      :     1.463935
      dz2     :     0.018518  d :     0.076054
      dxz     :     0.022610
      dyz     :     0.013400
      dx2y2   :     0.008949
      dxy     :     0.012576
 48 H s       :     0.719168  s :     0.719168
 49 C s       :     2.784194  s :     2.784194
      pz      :     0.924336  p :     2.735671
      px      :     0.933986
      py      :     0.877349
      dz2     :     0.047652  d :     0.311663
      dxz     :     0.100806
      dyz     :     0.068191
      dx2y2   :     0.056274
      dxy     :     0.038740
 50 O s       :     3.527494  s :     3.527494
      pz      :     1.764953  p :     4.706686
      px      :     1.465033
      py      :     1.476700
      dz2     :     0.007510  d :     0.054616
      dxz     :     0.007714
      dyz     :     0.004371
      dx2y2   :     0.015110
      dxy     :     0.019911
 51 C s       :     2.887331  s :     2.887331
      pz      :     1.086991  p :     2.996157
      px      :     0.877805
      py      :     1.031361
      dz2     :     0.026822  d :     0.152322
      dxz     :     0.022307
      dyz     :     0.030816
      dx2y2   :     0.029565
      dxy     :     0.042813
 52 H s       :     0.860581  s :     0.860581
 53 C s       :     2.879757  s :     2.879757
      pz      :     1.033100  p :     3.005123
      px      :     0.928532
      py      :     1.043492
      dz2     :     0.025620  d :     0.159348
      dxz     :     0.023199
      dyz     :     0.038870
      dx2y2   :     0.026630
      dxy     :     0.045028
 54 H s       :     0.848205  s :     0.848205
 55 O s       :     3.522363  s :     3.522363
      pz      :     1.791367  p :     4.816902
      px      :     1.334874
      py      :     1.690661
      dz2     :     0.004977  d :     0.051569
      dxz     :     0.010331
      dyz     :     0.007254
      dx2y2   :     0.007957
      dxy     :     0.021049
 56 H s       :     0.691565  s :     0.691565
 57 O s       :     3.528252  s :     3.528252
      pz      :     1.442463  p :     4.829197
      px      :     1.548185
      py      :     1.838548
      dz2     :     0.019709  d :     0.049317
      dxz     :     0.007081
      dyz     :     0.003940
      dx2y2   :     0.007875
      dxy     :     0.010712
 58 H s       :     0.680613  s :     0.680613


                      *****************************
                      * MAYER POPULATION ANALYSIS *
                      *****************************

  NA   - Mulliken gross atomic population
  ZA   - Total nuclear charge
  QA   - Mulliken gross atomic charge
  VA   - Mayer's total valence
  BVA  - Mayer's bonded valence
  FA   - Mayer's free valence

  ATOM       NA         ZA         QA         VA         BVA        FA
  0 H      0.5745     1.0000     0.4255     0.7951     0.7951     0.0000
  1 O      8.6450     8.0000    -0.6450     1.8485     1.8485    -0.0000
  2 C      6.1934     6.0000    -0.1934     3.7026     3.7026     0.0000
  3 H      0.7985     1.0000     0.2015     0.9055     0.9055     0.0000
  4 H      0.7732     1.0000     0.2268     0.8970     0.8970     0.0000
  5 C      5.9851     6.0000     0.0149     3.6323     3.6323    -0.0000
  6 H      0.7240     1.0000     0.2760     0.8897     0.8897    -0.0000
  7 O      8.4947     8.0000    -0.4947     1.9962     1.9962     0.0000
  8 C      5.8158     6.0000     0.1842     3.6302     3.6302    -0.0000
  9 H      0.7224     1.0000     0.2776     0.9006     0.9006    -0.0000
 10 N      7.5671     7.0000    -0.5671     3.1517     3.1517    -0.0000
 11 C      5.9056     6.0000     0.0944     3.5557     3.5557    -0.0000
 12 H      0.6838     1.0000     0.3162     0.8955     0.8955     0.0000
 13 C      6.4893     6.0000    -0.4893     3.7428     3.7428    -0.0000
 14 H      0.7561     1.0000     0.2439     0.9192     0.9192    -0.0000
 15 C      5.4361     6.0000     0.5639     4.0685     4.0685    -0.0000
 16 O      8.4318     8.0000    -0.4318     2.1924     2.1924    -0.0000
 17 N      7.7365     7.0000    -0.7365     3.0036     3.0036     0.0000
 18 H      0.6118     1.0000     0.3882     0.8405     0.8405    -0.0000
 19 C      5.2726     6.0000     0.7274     4.0624     4.0624     0.0000
 20 O      8.4413     8.0000    -0.4413     2.1931     2.1931    -0.0000
 21 C      6.0523     6.0000    -0.0523     3.6983     3.6983    -0.0000
 22 H      0.7404     1.0000     0.2596     0.9072     0.9072     0.0000
 23 C      6.0115     6.0000    -0.0115     3.7371     3.7371    -0.0000
 24 H      0.7498     1.0000     0.2502     0.9038     0.9038    -0.0000
 25 O      8.6366     8.0000    -0.6366     1.8769     1.8769     0.0000
 26 H      0.5654     1.0000     0.4346     0.8040     0.8040     0.0000
 27 O      8.6402     8.0000    -0.6402     1.9039     1.9039    -0.0000
 28 P     13.6090    15.0000     1.3910     5.1975     5.1975     0.0000
 29 O      8.7246     8.0000    -0.7246     1.9130     1.9130     0.0000
 30 O      8.7435     8.0000    -0.7435     1.8912     1.8912    -0.0000
 31 O      8.6364     8.0000    -0.6364     1.9192     1.9192     0.0000
 32 C      6.1778     6.0000    -0.1778     3.6897     3.6897     0.0000
 33 H      0.7737     1.0000     0.2263     0.9096     0.9096     0.0000
 34 H      0.7800     1.0000     0.2200     0.9186     0.9186     0.0000
 35 C      5.9871     6.0000     0.0129     3.6716     3.6716    -0.0000
 36 H      0.7774     1.0000     0.2226     0.9033     0.9033    -0.0000
 37 O      8.4810     8.0000    -0.4810     2.0062     2.0062     0.0000
 38 C      5.8041     6.0000     0.1959     3.6441     3.6441    -0.0000
 39 H      0.7366     1.0000     0.2634     0.9061     0.9061    -0.0000
 40 N      7.5760     7.0000    -0.5760     3.1498     3.1498     0.0000
 41 C      5.9168     6.0000     0.0832     3.5319     3.5319     0.0000
 42 H      0.6430     1.0000     0.3570     0.8651     0.8651     0.0000
 43 C      6.4873     6.0000    -0.4873     3.7489     3.7489    -0.0000
 44 H      0.7452     1.0000     0.2548     0.9156     0.9156     0.0000
 45 C      5.4384     6.0000     0.5616     4.0581     4.0581    -0.0000
 46 O      8.4343     8.0000    -0.4343     2.1901     2.1901    -0.0000
 47 N      7.7365     7.0000    -0.7365     3.0049     3.0049    -0.0000
 48 H      0.6146     1.0000     0.3854     0.8427     0.8427     0.0000
 49 C      5.2690     6.0000     0.7310     4.0579     4.0579    -0.0000
 50 O      8.4505     8.0000    -0.4505     2.1842     2.1842    -0.0000
 51 C      6.0859     6.0000    -0.0859     3.6878     3.6878     0.0000
 52 H      0.7276     1.0000     0.2724     0.8874     0.8874     0.0000
 53 C      6.0245     6.0000    -0.0245     3.6988     3.6988    -0.0000
 54 H      0.7117     1.0000     0.2883     0.8910     0.8910    -0.0000
 55 O      8.6361     8.0000    -0.6361     1.8657     1.8657    -0.0000
 56 H      0.5824     1.0000     0.4176     0.8208     0.8208     0.0000
 57 O      8.6614     8.0000    -0.6614     1.8317     1.8317    -0.0000
 58 H      0.5727     1.0000     0.4273     0.7957     0.7957    -0.0000

  Mayer bond orders larger than 0.100000
B(  0-H ,  1-O ) :   0.7867 B(  1-O ,  2-C ) :   0.9680 B(  2-C ,  3-H ) :   0.9056 
B(  2-C ,  4-H ) :   0.8893 B(  2-C ,  5-C ) :   0.9475 B(  5-C ,  6-H ) :   0.8842 
B(  5-C ,  7-O ) :   0.9201 B(  5-C , 21-C ) :   0.9261 B(  7-O ,  8-C ) :   0.9923 
B(  8-C ,  9-H ) :   0.8636 B(  8-C , 10-N ) :   0.8865 B(  8-C , 23-C ) :   0.8907 
B( 10-N , 11-C ) :   1.0763 B( 10-N , 19-C ) :   1.0231 B( 11-C , 12-H ) :   0.8331 
B( 11-C , 13-C ) :   1.5960 B( 13-C , 14-H ) :   0.9206 B( 13-C , 15-C ) :   1.0782 
B( 15-C , 16-O ) :   1.9971 B( 15-C , 17-N ) :   0.9915 B( 17-N , 18-H ) :   0.8047 
B( 17-N , 19-C ) :   1.0542 B( 19-C , 20-O ) :   1.9756 B( 21-C , 22-H ) :   0.8825 
B( 21-C , 23-C ) :   0.9368 B( 21-C , 27-O ) :   0.8962 B( 23-C , 24-H ) :   0.8906 
B( 23-C , 25-O ) :   1.0535 B( 25-O , 26-H ) :   0.7441 B( 27-O , 28-P ) :   0.8364 
B( 28-P , 29-O ) :   1.7586 B( 28-P , 30-O ) :   1.7044 B( 28-P , 31-O ) :   0.8275 
B( 31-O , 32-C ) :   0.9217 B( 32-C , 33-H ) :   0.8928 B( 32-C , 34-H ) :   0.8806 
B( 32-C , 35-C ) :   0.9456 B( 35-C , 36-H ) :   0.9029 B( 35-C , 37-O ) :   0.9405 
B( 35-C , 51-C ) :   0.9269 B( 37-O , 38-C ) :   0.9983 B( 38-C , 39-H ) :   0.8674 
B( 38-C , 40-N ) :   0.9022 B( 38-C , 53-C ) :   0.8899 B( 40-N , 41-C ) :   1.0575 
B( 40-N , 49-C ) :   1.0225 B( 41-C , 42-H ) :   0.8096 B( 41-C , 43-C ) :   1.6093 
B( 43-C , 44-H ) :   0.9159 B( 43-C , 45-C ) :   1.0768 B( 45-C , 46-O ) :   1.9950 
B( 45-C , 47-N ) :   0.9847 B( 47-N , 48-H ) :   0.8063 B( 47-N , 49-C ) :   1.0625 
B( 49-C , 50-O ) :   1.9642 B( 51-C , 52-H ) :   0.8874 B( 51-C , 53-C ) :   0.9440 
B( 51-C , 57-O ) :   0.9519 B( 53-C , 54-H ) :   0.8689 B( 53-C , 55-O ) :   1.0439 
B( 55-O , 56-H ) :   0.7535 B( 57-O , 58-H ) :   0.7874 

-------
TIMINGS
-------

Total SCF time: 0 days 0 hours 14 min 29 sec 

Total time                  ....     869.834 sec
Sum of individual times     ....     861.329 sec  ( 99.0%)

Fock matrix formation       ....     816.832 sec  ( 93.9%)
  Split-RI-J                ....      52.090 sec  (  6.4% of F)
  Chain of spheres X        ....     675.384 sec  ( 82.7% of F)
  XC integration            ....      76.738 sec  (  9.4% of F)
    Basis function eval.    ....      28.670 sec  ( 37.4% of XC)
    Density eval.           ....      18.325 sec  ( 23.9% of XC)
    XC-Functional eval.     ....       4.993 sec  (  6.5% of XC)
    XC-Potential eval.      ....       9.232 sec  ( 12.0% of XC)
Diagonalization             ....       3.826 sec  (  0.4%)
Density matrix formation    ....       0.445 sec  (  0.1%)
Population analysis         ....       0.421 sec  (  0.0%)
Initial guess               ....       0.458 sec  (  0.1%)
Orbital Transformation      ....       0.000 sec  (  0.0%)
Orbital Orthonormalization  ....       0.000 sec  (  0.0%)
DIIS solution               ....       4.354 sec  (  0.5%)
SOSCF solution              ....       4.364 sec  (  0.5%)
Grid generation             ....      30.629 sec  (  3.5%)

Maximum memory used throughout the entire SCF-calculation: 208.2 MB


-------------------------------------------------------------------------------
                          DFT DISPERSION CORRECTION                            
                                                                               
                              DFTD3 V3.1  Rev 1                                
                          USING Becke-Johnson damping                          
-------------------------------------------------------------------------------
The PBEh-3c composite method is recognized
Using three-body term ABC
Active option DFTDOPT                   ...         4   

molecular C6(AA) [au] = 38275.273481 


            DFT-D V3
 parameters
 s6 scaling factor         :     1.0000 
 a1 scaling factor         :     0.4860 
 s8 scaling factor         :     0.0000 
 a2 scaling factor         :     4.5000 
 Damping factor alpha9(ATM):    16.0000 
 ad hoc parameters k1-k3   :    16.0000     1.3333    -4.0000 

 Edisp/kcal,au: -29.477118289214  -0.046974773072 
 E6   /kcal   : -29.855679567 
 E8   /kcal   :  -0.000000000 
 E6(ABC)      :   0.378561278 
 % E8         :   0.000000000 
 % E6(ABC)    :  -1.284254702 

-------------------------   ----------------
Dispersion correction           -0.046974773
-------------------------   ----------------

------------------   -----------------
gCP correction             0.192875516
------------------   -----------------

-------------------------   --------------------
FINAL SINGLE POINT ENERGY     -2308.316606788155
-------------------------   --------------------


                            ***************************************
                            *     ORCA property calculations      *
                            ***************************************

                                    ---------------------
                                    Active property flags
                                    ---------------------
   (+) Dipole Moment


------------------------------------------------------------------------------
                       ORCA ELECTRIC PROPERTIES CALCULATION
------------------------------------------------------------------------------

Dipole Moment Calculation                       ... on
Quadrupole Moment Calculation                   ... off
Polarizability Calculation                      ... off
GBWName                                         ... pbeh-3c.gbw
Electron density                                ... pbeh-3c.scfp
The origin for moment calculation is the CENTER OF MASS  = (-0.091336,  0.011847 -0.080252)

-------------
DIPOLE MOMENT
-------------
                                X             Y             Z
Electronic contribution:     -3.86627       2.14253       0.35969
Nuclear contribution   :      4.43091      -1.25974       0.38433
                        -----------------------------------------
Total Dipole Moment    :      0.56464       0.88279       0.74402
                        -----------------------------------------
Magnitude (a.u.)       :      1.28519
Magnitude (Debye)      :      3.26669



--------------------
Rotational spectrum 
--------------------
 
Rotational constants in cm-1:     0.005231     0.001687     0.001488 
Rotational constants in MHz :   156.824455    50.589243    44.597942 

 Dipole components along the rotational axes: 
x,y,z [a.u.] :    -0.517206     0.676993    -0.962231 
x,y,z [Debye]:    -1.314632     1.720781    -2.445798 

 

Timings for individual modules:

Sum of individual times         ...      873.352 sec (=  14.556 min)
GTO integral calculation        ...        3.184 sec (=   0.053 min)   0.4 %
SCF iterations                  ...      870.168 sec (=  14.503 min)  99.6 %
                             ****ORCA TERMINATED NORMALLY****
TOTAL RUN TIME: 0 days 0 hours 14 minutes 36 seconds 611 msec
