
                                 *****************
                                 * O   R   C   A *
                                 *****************

                                            #,                                       
                                            ###                                      
                                            ####                                     
                                            #####                                    
                                            ######                                   
                                           ########,                                 
                                     ,,################,,,,,                         
                               ,,#################################,,                 
                          ,,##########################################,,             
                       ,#########################################, ''#####,          
                    ,#############################################,,   '####,        
                  ,##################################################,,,,####,       
                ,###########''''           ''''###############################       
              ,#####''   ,,,,##########,,,,          '''####'''          '####       
            ,##' ,,,,###########################,,,                        '##       
           ' ,,###''''                  '''############,,,                           
         ,,##''                                '''############,,,,        ,,,,,,###''
      ,#''                                            '''#######################'''  
     '                                                          ''''####''''         
             ,#######,   #######,   ,#######,      ##                                
            ,#'     '#,  ##    ##  ,#'     '#,    #''#        ######   ,####,        
            ##       ##  ##   ,#'  ##            #'  '#       #        #'  '#        
            ##       ##  #######   ##           ,######,      #####,   #    #        
            '#,     ,#'  ##    ##  '#,     ,#' ,#      #,         ##   #,  ,#        
             '#######'   ##     ##  '#######'  #'      '#     #####' # '####'        



                  #######################################################
                  #                        -***-                        #
                  #          Department of theory and spectroscopy      #
                  #    Directorship and core code : Frank Neese         #
                  #        Max Planck Institute fuer Kohlenforschung    #
                  #                Kaiser Wilhelm Platz 1               #
                  #                 D-45470 Muelheim/Ruhr               #
                  #                      Germany                        #
                  #                                                     #
                  #                  All rights reserved                #
                  #                        -***-                        #
                  #######################################################


                         Program Version 5.0.3 -  RELEASE  -


 With contributions from (in alphabetic order):
   Daniel Aravena         : Magnetic Suceptibility
   Michael Atanasov       : Ab Initio Ligand Field Theory (pilot matlab implementation)
   Alexander A. Auer      : GIAO ZORA, VPT2 properties, NMR spectrum
   Ute Becker             : Parallelization
   Giovanni Bistoni       : ED, misc. LED, open-shell LED, HFLD
   Martin Brehm           : Molecular dynamics
   Dmytro Bykov           : SCF Hessian
   Vijay G. Chilkuri      : MRCI spin determinant printing, contributions to CSF-ICE
   Dipayan Datta          : RHF DLPNO-CCSD density
   Achintya Kumar Dutta   : EOM-CC, STEOM-CC
   Dmitry Ganyushin       : Spin-Orbit,Spin-Spin,Magnetic field MRCI
   Miquel Garcia          : C-PCM and meta-GGA Hessian, CC/C-PCM, Gaussian charge scheme
   Yang Guo               : DLPNO-NEVPT2, F12-NEVPT2, CIM, IAO-localization
   Andreas Hansen         : Spin unrestricted coupled pair/coupled cluster methods
   Benjamin Helmich-Paris : MC-RPA, TRAH-SCF, COSX integrals
   Lee Huntington         : MR-EOM, pCC
   Robert Izsak           : Overlap fitted RIJCOSX, COSX-SCS-MP3, EOM
   Marcus Kettner         : VPT2
   Christian Kollmar      : KDIIS, OOCD, Brueckner-CCSD(T), CCSD density, CASPT2, CASPT2-K
   Simone Kossmann        : Meta GGA functionals, TD-DFT gradient, OOMP2, MP2 Hessian
   Martin Krupicka        : Initial AUTO-CI
   Lucas Lang             : DCDCAS
   Marvin Lechner         : AUTO-CI (C++ implementation), FIC-MRCC
   Dagmar Lenk            : GEPOL surface, SMD
   Dimitrios Liakos       : Extrapolation schemes; Compound Job, initial MDCI parallelization
   Dimitrios Manganas     : Further ROCIS development; embedding schemes
   Dimitrios Pantazis     : SARC Basis sets
   Anastasios Papadopoulos: AUTO-CI, single reference methods and gradients
   Taras Petrenko         : DFT Hessian,TD-DFT gradient, ASA, ECA, R-Raman, ABS, FL, XAS/XES, NRVS
   Peter Pinski           : DLPNO-MP2, DLPNO-MP2 Gradient
   Christoph Reimann      : Effective Core Potentials
   Marius Retegan         : Local ZFS, SOC
   Christoph Riplinger    : Optimizer, TS searches, QM/MM, DLPNO-CCSD(T), (RO)-DLPNO pert. Triples
   Tobias Risthaus        : Range-separated hybrids, TD-DFT gradient, RPA, STAB
   Michael Roemelt        : Original ROCIS implementation
   Masaaki Saitow         : Open-shell DLPNO-CCSD energy and density
   Barbara Sandhoefer     : DKH picture change effects
   Avijit Sen             : IP-ROCIS
   Kantharuban Sivalingam : CASSCF convergence, NEVPT2, FIC-MRCI
   Bernardo de Souza      : ESD, SOC TD-DFT
   Georgi Stoychev        : AutoAux, RI-MP2 NMR, DLPNO-MP2 response
   Willem Van den Heuvel  : Paramagnetic NMR
   Boris Wezisla          : Elementary symmetry handling
   Frank Wennmohs         : Technical directorship


 We gratefully acknowledge several colleagues who have allowed us to
 interface, adapt or use parts of their codes:
   Stefan Grimme, W. Hujo, H. Kruse, P. Pracht,  : VdW corrections, initial TS optimization,
                  C. Bannwarth, S. Ehlert          DFT functionals, gCP, sTDA/sTD-DF
   Ed Valeev, F. Pavosevic, A. Kumar             : LibInt (2-el integral package), F12 methods
   Garnet Chan, S. Sharma, J. Yang, R. Olivares  : DMRG
   Ulf Ekstrom                                   : XCFun DFT Library
   Mihaly Kallay                                 : mrcc  (arbitrary order and MRCC methods)
   Jiri Pittner, Ondrej Demel                    : Mk-CCSD
   Frank Weinhold                                : gennbo (NPA and NBO analysis)
   Christopher J. Cramer and Donald G. Truhlar   : smd solvation model
   Lars Goerigk                                  : TD-DFT with DH, B97 family of functionals
   V. Asgeirsson, H. Jonsson                     : NEB implementation
   FAccTs GmbH                                   : IRC, NEB, NEB-TS, DLPNO-Multilevel, CI-OPT
                                                   MM, QMMM, 2- and 3-layer-ONIOM, Crystal-QMMM,
                                                   LR-CPCM, SF, NACMEs, symmetry and pop. for TD-DFT,
                                                   nearIR, NL-DFT gradient (VV10), updates on ESD,
                                                   ML-optimized integration grids
   S Lehtola, MJT Oliveira, MAL Marques          : LibXC Library
   Liviu Ungur et al                             : ANISO software


 Your calculation uses the libint2 library for the computation of 2-el integrals
 For citations please refer to: http://libint.valeyev.net

 Your ORCA version has been built with support for libXC version: 5.1.0
 For citations please refer to: https://tddft.org/programs/libxc/

 This ORCA versions uses:
   CBLAS   interface :  Fast vector & matrix operations
   LAPACKE interface :  Fast linear algebra routines
   SCALAPACK package :  Parallel linear algebra routines
   Shared memory     :  Shared parallel matrices
   BLAS/LAPACK       :  OpenBLAS 0.3.15  USE64BITINT DYNAMIC_ARCH NO_AFFINITY Haswell SINGLE_THREADED
        Core in use  :  Haswell
   Copyright (c) 2011-2014, The OpenBLAS Project




***************************************
The coordinates will be read from file: E42.xyz
***************************************


Your calculation utilizes the geometrical counterpoise correction gCP
Please cite in your paper:
H.Kruse, S. Grimme J.Chem.Phys., 136, (2012), 154101 
   

Your calculation utilizes the atom-pairwise dispersion correction
with the Becke-Johnson damping scheme (D3BJ)
Cite in your paper:
S.Grimme, S.Ehrlich, L.Goerigk, J Comput Chem, (2011), 32, 1456–1465 
S.Grimme, J.Antony, S.Ehrlich and H.Krieg, J.Chem.Phys., 132, (2010), 154104 
   

Your calculation employs the composite approach PBEh-3c.
Please cite in your paper:
S. Grimme, J. G. Brandenburg, C. Bannwarth, A. Hansen J.Chem.Phys., 143, (2015), 054107 
   

================================================================================

----- Orbital basis set information -----
Your calculation utilizes the basis: def2-mSVP

----- AuxJ basis set information -----
Your calculation utilizes the auxiliary basis: def2/J
   F. Weigend, Phys. Chem. Chem. Phys. 8, 1057 (2006).

================================================================================
                                        WARNINGS
                       Please study these warnings very carefully!
================================================================================


INFO   : the flag for use of the SHARK integral package has been found!

================================================================================
                                       INPUT FILE
================================================================================
NAME = pbeh-3c.inp
|  1> ! PBEh-3c def2/J TightSCF DefGrid3
|  2> 
|  3> %maxcore 60000
|  4> 
|  5> %pal
|  6> nprocs 4
|  7> end
|  8> 
|  9> *xyzfile 0 1 E42.xyz
| 10> 
| 11>                          ****END OF INPUT****
================================================================================

                       ****************************
                       * Single Point Calculation *
                       ****************************

---------------------------------
CARTESIAN COORDINATES (ANGSTROEM)
---------------------------------
  N      0.276612    0.272457    1.557083
  C     -0.520424   -0.069112    0.390752
  C      0.303877    0.068826   -0.868328
  O      1.507070    0.043255   -0.916315
  O     -0.476499    0.179959   -1.968489
  H      1.220367   -0.083924    1.456171
  H     -0.128225   -0.105257    2.403783
  H      0.112823    0.209876   -2.738944
  H     -0.905313   -1.102875    0.374156
  H     -1.390288    0.586796    0.310132

----------------------------
CARTESIAN COORDINATES (A.U.)
----------------------------
  NO LB      ZA    FRAG     MASS         X           Y           Z
   0 N     7.0000    0    14.007    0.522721    0.514870    2.942461
   1 C     6.0000    0    12.011   -0.983460   -0.130603    0.738414
   2 C     6.0000    0    12.011    0.574245    0.130062   -1.640902
   3 O     8.0000    0    15.999    2.847950    0.081741   -1.731585
   4 O     8.0000    0    15.999   -0.900453    0.340072   -3.719906
   5 H     1.0000    0     1.008    2.306160   -0.158594    2.751765
   6 H     1.0000    0     1.008   -0.242311   -0.198908    4.542492
   7 H     1.0000    0     1.008    0.213206    0.396608   -5.175854
   8 H     1.0000    0     1.008   -1.710794   -2.084132    0.707052
   9 H     1.0000    0     1.008   -2.627264    1.108884    0.586064

--------------------------------
INTERNAL COORDINATES (ANGSTROEM)
--------------------------------
 N      0   0   0     0.000000000000     0.00000000     0.00000000
 C      1   0   0     1.453363222571     0.00000000     0.00000000
 C      2   1   0     1.511219142006   110.36670928     0.00000000
 O      3   2   1     1.204421046023   125.18063694    21.80854197
 O      3   2   1     1.353400563143   111.73068701   199.59901867
 H      1   2   3     1.013837104088   110.36557100   320.65822647
 H      1   2   3     1.011663160001   111.37334347   199.52316356
 H      5   3   2     0.970461917099   107.32178047   183.38592191
 H      2   1   3     1.103213520490   115.06371957   118.92469993
 H      2   1   3     1.092418470684   110.78102025   239.75268423

---------------------------
INTERNAL COORDINATES (A.U.)
---------------------------
 N      0   0   0     0.000000000000     0.00000000     0.00000000
 C      1   0   0     2.746458463773     0.00000000     0.00000000
 C      2   1   0     2.855790306732   110.36670928     0.00000000
 O      3   2   1     2.276025926915   125.18063694    21.80854197
 O      3   2   1     2.557556413835   111.73068701   199.59901867
 H      1   2   3     1.915874471133   110.36557100   320.65822647
 H      1   2   3     1.911766312179   111.37334347   199.52316356
 H      5   3   2     1.833907246718   107.32178047   183.38592191
 H      2   1   3     2.084771420965   115.06371957   118.92469993
 H      2   1   3     2.064371733230   110.78102025   239.75268423

---------------------
BASIS SET INFORMATION
---------------------
There are 4 groups of distinct atoms

 Group   1 Type N   : 8s4p1d contracted to 4s2p1d pattern {5111/31/1}
 Group   2 Type C   : 8s4p1d contracted to 4s2p1d pattern {5111/31/1}
 Group   3 Type O   : 8s4p1d contracted to 4s2p1d pattern {5111/31/1}
 Group   4 Type H   : 4s contracted to 2s pattern {31}

Atom   0N    basis set group =>   1
Atom   1C    basis set group =>   2
Atom   2C    basis set group =>   2
Atom   3O    basis set group =>   3
Atom   4O    basis set group =>   3
Atom   5H    basis set group =>   4
Atom   6H    basis set group =>   4
Atom   7H    basis set group =>   4
Atom   8H    basis set group =>   4
Atom   9H    basis set group =>   4
---------------------------------
AUXILIARY/J BASIS SET INFORMATION
---------------------------------
There are 4 groups of distinct atoms

 Group   1 Type N   : 12s5p4d2f1g contracted to 6s4p3d1f1g pattern {711111/2111/211/2/1}
 Group   2 Type C   : 12s5p4d2f1g contracted to 6s4p3d1f1g pattern {711111/2111/211/2/1}
 Group   3 Type O   : 12s5p4d2f1g contracted to 6s4p3d1f1g pattern {711111/2111/211/2/1}
 Group   4 Type H   : 5s2p1d contracted to 3s1p1d pattern {311/2/1}

Atom   0N    basis set group =>   1
Atom   1C    basis set group =>   2
Atom   2C    basis set group =>   2
Atom   3O    basis set group =>   3
Atom   4O    basis set group =>   3
Atom   5H    basis set group =>   4
Atom   6H    basis set group =>   4
Atom   7H    basis set group =>   4
Atom   8H    basis set group =>   4
Atom   9H    basis set group =>   4


           ************************************************************
           *        Program running with 4 parallel MPI-processes     *
           *              working on a common directory               *
           ************************************************************
------------------------------------------------------------------------------
                           ORCA GTO INTEGRAL CALCULATION
                           -- RI-GTO INTEGRALS CHOSEN --
------------------------------------------------------------------------------
------------------------------------------------------------------------------
                   ___                                                        
                  /   \      - P O W E R E D   B Y -                         
                 /     \                                                     
                 |  |  |   _    _      __       _____    __    __             
                 |  |  |  | |  | |    /  \     |  _  \  |  |  /  |          
                  \  \/   | |  | |   /    \    | | | |  |  | /  /          
                 / \  \   | |__| |  /  /\  \   | |_| |  |  |/  /          
                |  |  |   |  __  | /  /__\  \  |    /   |      \           
                |  |  |   | |  | | |   __   |  |    \   |  |\   \          
                \     /   | |  | | |  |  |  |  | |\  \  |  | \   \       
                 \___/    |_|  |_| |__|  |__|  |_| \__\ |__|  \__/        
                                                                              
                      - O R C A' S   B I G   F R I E N D -                    
                                      &                                       
                       - I N T E G R A L  F E E D E R -                       
                                                                              
 v1 FN, 2020, v2 2021                                                         
------------------------------------------------------------------------------


Reading SHARK input file pbeh-3c.SHARKINP.tmp ... ok
----------------------
SHARK INTEGRAL PACKAGE
----------------------

Number of atoms                             ...     10
Number of basis functions                   ...     85
Number of shells                            ...     45
Maximum angular momentum                    ...      2
Integral batch strategy                     ... SHARK/LIBINT Hybrid
RI-J (if used) integral strategy            ... SPLIT-RIJ (Revised 2003 algorithm where possible)
Printlevel                                  ...      1
Contraction scheme used                     ... SEGMENTED contraction
Coulomb Range Separation                    ... NOT USED
Exchange Range Separation                   ... NOT USED
Finite Nucleus Model                        ... NOT USED
Auxiliary Coulomb fitting basis             ... AVAILABLE
   # of basis functions in Aux-J            ...    300
   # of shells in Aux-J                     ...    100
   Maximum angular momentum in Aux-J        ...      4
Auxiliary J/K fitting basis                 ... NOT available
Auxiliary Correlation fitting basis         ... NOT available
Auxiliary 'external' fitting basis          ... NOT available
Integral threshold                          ...     2.500000e-11
Primitive cut-off                           ...     2.500000e-12
Primitive pair pre-selection threshold      ...     2.500000e-12

Calculating pre-screening integrals         ... done (  0.1 sec) Dimension = 45
Organizing shell pair data                  ... done (  0.6 sec)
Shell pair information
Total number of shell pairs                 ...      1035
Shell pairs after pre-screening             ...       983
Total number of primitive shell pairs       ...      3735
Primitive shell pairs kept                  ...      2709
          la=0 lb=0:    421 shell pairs
          la=1 lb=0:    296 shell pairs
          la=1 lb=1:     55 shell pairs
          la=2 lb=0:    146 shell pairs
          la=2 lb=1:     50 shell pairs
          la=2 lb=2:     15 shell pairs

Calculating one electron integrals          ... done (  0.0 sec)
Calculating RI/J V-Matrix + Cholesky decomp.... done (  0.3 sec)
Calculating Nuclear repulsion               ... done (  0.1 sec) ENN=    179.687515154393 Eh

SHARK setup successfully completed in   2.3 seconds

Maximum memory used throughout the entire GTOINT-calculation: 9.7 MB


           ************************************************************
           *        Program running with 4 parallel MPI-processes     *
           *              working on a common directory               *
           ************************************************************
-------------------------------------------------------------------------------
                                 ORCA SCF
-------------------------------------------------------------------------------

------------
SCF SETTINGS
------------
Hamiltonian:
 Density Functional     Method          .... DFT(GTOs)
 Exchange Functional    Exchange        .... PBE
   PBE kappa parameter   XKappa         ....  1.024500
   PBE mue parameter    XMuePBE         ....  0.123457
 Correlation Functional Correlation     .... PBE
   PBE beta parameter  CBetaPBE         ....  0.030000
 LDA part of GGA corr.  LDAOpt          .... PW91-LDA
 Gradients option       PostSCFGGA      .... off
 Hybrid DFT is turned on
   Fraction HF Exchange ScalHFX         ....  0.420000
   Scaling of DF-GGA-X  ScalDFX         ....  0.580000
   Scaling of DF-GGA-C  ScalDFC         ....  1.000000
   Scaling of DF-LDA-C  ScalLDAC        ....  1.000000
   Perturbative correction              ....  0.000000
   Density functional embedding theory  .... OFF
 RI-approximation to the Coulomb term is turned on
   Number of AuxJ basis functions       .... 300
   RIJ-ON(X) (HFX calculated with O(N)) .... on
   Number of AuxJ basis functions       .... 300
   RIJ-COSX (HFX calculated with COS-X)).... on


General Settings:
 Integral files         IntName         .... pbeh-3c
 Hartree-Fock type      HFTyp           .... RHF
 Total Charge           Charge          ....    0
 Multiplicity           Mult            ....    1
 Number of Electrons    NEL             ....   40
 Basis Dimension        Dim             ....   85
 Nuclear Repulsion      ENuc            ....    179.6875151544 Eh

Convergence Acceleration:
 DIIS                   CNVDIIS         .... on
   Start iteration      DIISMaxIt       ....    12
   Startup error        DIISStart       ....  0.200000
   # of expansion vecs  DIISMaxEq       ....     5
   Bias factor          DIISBfac        ....   1.050
   Max. coefficient     DIISMaxC        ....  10.000
 Trust-Rad. Augm. Hess. CNVTRAH         .... auto
   Auto Start mean grad. ratio tolernc. ....  1.125000
   Auto Start start iteration           ....    20
   Auto Start num. interpolation iter.  ....    10
   Max. Number of Micro iterations      ....    16
   Max. Number of Macro iterations      .... Maxiter - #DIIS iter
   Number of Davidson start vectors     ....     2
   Converg. threshold I  (grad. norm)   ....   1.000e-05
   Converg. threshold II (energy diff.) ....   1.000e-08
   Grad. Scal. Fac. for Micro threshold ....   0.100
   Minimum threshold for Micro iter.    ....   0.010
   NR start threshold (gradient norm)   ....   0.001
   Initial trust radius                 ....   0.400
   Minimum AH scaling param. (alpha)    ....   1.000
   Maximum AH scaling param. (alpha)    .... 1000.000
   Orbital update algorithm             .... Taylor
   White noise on init. David. guess    .... on
   Maximum white noise                  ....   0.010
   Quad. conv. algorithm                .... NR
   COSX micro iterations for RIJONX calc.... off
 SOSCF                  CNVSOSCF        .... on
   Start iteration      SOSCFMaxIt      ....   150
   Startup grad/error   SOSCFStart      ....  0.003300
 Level Shifting         CNVShift        .... on
   Level shift para.    LevelShift      ....    0.2500
   Turn off err/grad.   ShiftErr        ....    0.0010
 Zerner damping         CNVZerner       .... off
 Static damping         CNVDamp         .... on
   Fraction old density DampFac         ....    0.7000
   Max. Damping (<1)    DampMax         ....    0.9800
   Min. Damping (>=0)   DampMin         ....    0.0000
   Turn off err/grad.   DampErr         ....    0.1000
 Fernandez-Rico         CNVRico         .... off

SCF Procedure:
 Maximum # iterations   MaxIter         ....   125
 SCF integral mode      SCFMode         .... Direct
   Integral package                     .... SHARK and LIBINT hybrid scheme
 Reset frequency        DirectResetFreq ....    20
 Integral Threshold     Thresh          ....  2.500e-11 Eh
 Primitive CutOff       TCut            ....  2.500e-12 Eh

Convergence Tolerance:
 Convergence Check Mode ConvCheckMode   .... Total+1el-Energy
 Convergence forced     ConvForced      .... 0
 Energy Change          TolE            ....  1.000e-08 Eh
 1-El. energy change                    ....  1.000e-05 Eh
 Orbital Gradient       TolG            ....  1.000e-05
 Orbital Rotation angle TolX            ....  1.000e-05
 DIIS Error             TolErr          ....  5.000e-07


Diagonalization of the overlap matrix:
Smallest eigenvalue                        ... 5.634e-03
Time for diagonalization                   ...    0.003 sec
Threshold for overlap eigenvalues          ... 1.000e-08
Number of eigenvalues below threshold      ... 0
Time for construction of square roots      ...    0.092 sec
Total time needed                          ...    0.096 sec

--------------------------------
INITIAL GUESS: MINIMAL BASIS EHT
--------------------------------
The minimal basis has 30 functions
EHT matrix was diagonalized
Basis set overlap was calculated now projecting the orbitals
Using GuessMode=FMatrix for the initial guess
C*T matrix was formed
Effective Fockian was calculated
Effective Fockian was diagonalized
Initial density was built
                      ------------------
                      INITIAL GUESS DONE
                      ------------------
-------------------
DFT GRID GENERATION
-------------------

General Integration Accuracy     IntAcc      ... 4.959
Radial Grid Type                 RadialGrid  ... OptM3 with GC (2021)
Angular Grid (max. ang.)         AngularGrid ... 6 (Lebedev-590)
Angular grid pruning method      GridPruning ... 4 (adaptive)
Weight generation scheme         WeightScheme... Becke
Basis function cutoff            BFCut       ... 1.0000e-11
Integration weight cutoff        WCut        ... 1.0000e-14
Angular grids for H and He will be reduced by one unit
Partially contracted basis set               ... off
Rotationally invariant grid construction     ... off

Total number of grid points                  ...   116394
Total number of batches                      ...     1825
Average number of points per batch           ...       63
Average number of grid points per atom       ...    11639
Time for grid setup =    2.110 sec

--------------------
COSX GRID GENERATION
--------------------

GRIDX 1
-------
General Integration Accuracy     IntAcc      ... 4.020
Radial Grid Type                 RadialGrid  ... OptM3 with GC (2021)
Angular Grid (max. ang.)         AngularGrid ... 2 (Lebedev-110)
Angular grid pruning method      GridPruning ... 4 (adaptive)
Weight generation scheme         WeightScheme... Becke
Basis function cutoff            BFCut       ... 1.0000e-11
Integration weight cutoff        WCut        ... 1.0000e-14
Angular grids for H and He will be reduced by one unit
Partially contracted basis set               ... on
Rotationally invariant grid construction     ... off

Total number of grid points                  ...    13094
Total number of batches                      ...      210
Average number of points per batch           ...       62
Average number of grid points per atom       ...     1309
UseSFitting                                  ... on

GRIDX 2
-------
General Integration Accuracy     IntAcc      ... 4.338
Radial Grid Type                 RadialGrid  ... OptM3 with GC (2021)
Angular Grid (max. ang.)         AngularGrid ... 3 (Lebedev-194)
Angular grid pruning method      GridPruning ... 4 (adaptive)
Weight generation scheme         WeightScheme... Becke
Basis function cutoff            BFCut       ... 1.0000e-11
Integration weight cutoff        WCut        ... 1.0000e-14
Angular grids for H and He will be reduced by one unit
Partially contracted basis set               ... on
Rotationally invariant grid construction     ... off

Total number of grid points                  ...    28872
Total number of batches                      ...      457
Average number of points per batch           ...       63
Average number of grid points per atom       ...     2887
UseSFitting                                  ... on

GRIDX 3
-------
General Integration Accuracy     IntAcc      ... 4.871
Radial Grid Type                 RadialGrid  ... OptM3 with GC (2021)
Angular Grid (max. ang.)         AngularGrid ... 4 (Lebedev-302)
Angular grid pruning method      GridPruning ... 4 (adaptive)
Weight generation scheme         WeightScheme... Becke
Basis function cutoff            BFCut       ... 1.0000e-11
Integration weight cutoff        WCut        ... 1.0000e-14
Angular grids for H and He will be reduced by one unit
Partially contracted basis set               ... on
Rotationally invariant grid construction     ... off

Total number of grid points                  ...    55381
Total number of batches                      ...      870
Average number of points per batch           ...       63
Average number of grid points per atom       ...     5538
UseSFitting                                  ... on

Time for X-Grid setup             =    2.702 sec

--------------
SCF ITERATIONS
--------------
ITER       Energy         Delta-E        Max-DP      RMS-DP      [F,P]     Damp
               ***  Starting incremental Fock matrix formation  ***
  0   -282.8468530706   0.000000000000 0.18751393  0.00876708  0.5344813 0.7000
  1   -283.2289879165  -0.382134845859 0.10545693  0.00492147  0.2762490 0.7000
                               ***Turning on DIIS***
  2   -283.4120566822  -0.183068765750 0.05819829  0.00263779  0.1972354 0.7000
  3   -283.5371677580  -0.125111075717 0.03311937  0.00172445  0.1395561 0.7000
  4   -283.6269656033  -0.089797845357 0.08807989  0.00421135  0.0974289 0.0000
  5   -283.8419466463  -0.214981042946 0.01237424  0.00047742  0.0135537 0.0000
  6   -283.8423116823  -0.000365036011 0.00369389  0.00016237  0.0069080 0.0000
                      *** Initiating the SOSCF procedure ***
                           *** Shutting down DIIS ***
                      *** Re-Reading the Fockian *** 
                      *** Removing any level shift *** 
ITER      Energy       Delta-E        Grad      Rot      Max-DP    RMS-DP
  7   -283.84241915  -0.0001074691  0.000869  0.000869  0.002702  0.000090
               *** Restarting incremental Fock matrix formation ***
  8   -283.84243503  -0.0000158785  0.000416  0.000960  0.002130  0.000076
  9   -283.84243614  -0.0000011147  0.000741  0.000865  0.001005  0.000035
 10   -283.84243932  -0.0000031715  0.000042  0.000065  0.000153  0.000008
 11   -283.84243932  -0.0000000019  0.000052  0.000026  0.000081  0.000003
 12   -283.84243936  -0.0000000413  0.000003  0.000007  0.000010  0.000000
 13   -283.84243936   0.0000000001  0.000003  0.000001  0.000005  0.000000
                 **** Energy Check signals convergence ****
              ***Rediagonalizing the Fockian in SOSCF/NRSCF***

               *****************************************************
               *                     SUCCESS                       *
               *           SCF CONVERGED AFTER  14 CYCLES          *
               *****************************************************

Old exchange energy                            =    -14.794115555 Eh
New exchange energy                            =    -14.794115869 Eh
Exchange energy change after final integration =     -0.000000314 Eh
Total energy after final integration           =   -283.842439673 Eh
Final COS-X integration done in                =     1.420 sec

----------------
TOTAL SCF ENERGY
----------------

Total Energy       :         -283.84243967 Eh           -7723.74545 eV

Components:
Nuclear Repulsion  :          179.68751515 Eh            4889.54587 eV
Electronic Energy  :         -463.52995483 Eh          -12613.29132 eV
One Electron Energy:         -743.54676887 Eh          -20232.93620 eV
Two Electron Energy:          280.01681404 Eh            7619.64489 eV
Max COSX asymmetry :            0.00000118 Eh               0.00003 eV

Virial components:
Potential Energy   :         -565.71858713 Eh          -15393.98537 eV
Kinetic Energy     :          281.87614746 Eh            7670.23992 eV
Virial Ratio       :            2.00697573


DFT components:
N(Alpha)           :       19.999999809830 electrons
N(Beta)            :       19.999999809830 electrons
N(Total)           :       39.999999619659 electrons
E(X)               :      -19.699258246323 Eh       
E(C)               :       -1.777776354081 Eh       
E(XC)              :      -21.477034600404 Eh       
DFET-embed. en.    :        0.000000000000 Eh       

---------------
SCF CONVERGENCE
---------------

  Last Energy change         ...   -5.4627e-11  Tolerance :   1.0000e-08
  Last MAX-Density change    ...    1.4433e-15  Tolerance :   1.0000e-07
  Last RMS-Density change    ...    7.1047e-17  Tolerance :   5.0000e-09
  Last Orbital Gradient      ...    3.2702e-07  Tolerance :   1.0000e-05
  Last Orbital Rotation      ...    6.3153e-07  Tolerance :   1.0000e-05

             **** THE GBW FILE WAS UPDATED (pbeh-3c.gbw) ****
             **** DENSITY pbeh-3c.scfp WAS UPDATED ****
             **** ENERGY FILE WAS UPDATED (pbeh-3c.en.tmp) ****
             **** THE GBW FILE WAS UPDATED (pbeh-3c.gbw) ****
             **** DENSITY pbeh-3c.scfp WAS UPDATED ****
----------------
ORBITAL ENERGIES
----------------

  NO   OCC          E(Eh)            E(eV) 
   0   2.0000     -19.547581      -531.9167 
   1   2.0000     -19.493116      -530.4347 
   2   2.0000     -14.614219      -397.6731 
   3   2.0000     -10.587668      -288.1051 
   4   2.0000     -10.481552      -285.2175 
   5   2.0000      -1.225676       -33.3523 
   6   2.0000      -1.132381       -30.8136 
   7   2.0000      -0.983927       -26.7740 
   8   2.0000      -0.809177       -22.0188 
   9   2.0000      -0.675096       -18.3703 
  10   2.0000      -0.591853       -16.1051 
  11   2.0000      -0.561499       -15.2792 
  12   2.0000      -0.549776       -14.9602 
  13   2.0000      -0.507444       -13.8082 
  14   2.0000      -0.487603       -13.2684 
  15   2.0000      -0.463080       -12.6011 
  16   2.0000      -0.448212       -12.1965 
  17   2.0000      -0.383201       -10.4274 
  18   2.0000      -0.344266        -9.3680 
  19   2.0000      -0.292274        -7.9532 
  20   0.0000       0.043050         1.1714 
  21   0.0000       0.126538         3.4433 
  22   0.0000       0.140988         3.8365 
  23   0.0000       0.182450         4.9647 
  24   0.0000       0.215275         5.8579 
  25   0.0000       0.222214         6.0468 
  26   0.0000       0.259800         7.0695 
  27   0.0000       0.283347         7.7103 
  28   0.0000       0.329546         8.9674 
  29   0.0000       0.388957        10.5841 
  30   0.0000       0.527381        14.3508 
  31   0.0000       0.550702        14.9854 
  32   0.0000       0.556004        15.1296 
  33   0.0000       0.609046        16.5730 
  34   0.0000       0.635365        17.2892 
  35   0.0000       0.695937        18.9374 
  36   0.0000       0.766570        20.8594 
  37   0.0000       0.824936        22.4476 
  38   0.0000       0.867830        23.6149 
  39   0.0000       0.902378        24.5550 
  40   0.0000       0.928266        25.2594 
  41   0.0000       0.969201        26.3733 
  42   0.0000       1.005565        27.3628 
  43   0.0000       1.019237        27.7349 
  44   0.0000       1.029594        28.0167 
  45   0.0000       1.050775        28.5931 
  46   0.0000       1.073470        29.2106 
  47   0.0000       1.113968        30.3126 
  48   0.0000       1.147487        31.2247 
  49   0.0000       1.171583        31.8804 
  50   0.0000       1.245624        33.8951 
  51   0.0000       1.380493        37.5651 
  52   0.0000       1.404426        38.2164 
  53   0.0000       1.451490        39.4971 
  54   0.0000       1.593804        43.3696 
  55   0.0000       1.609875        43.8069 
  56   0.0000       1.743460        47.4420 
  57   0.0000       1.761485        47.9324 
  58   0.0000       1.809949        49.2512 
  59   0.0000       1.832276        49.8588 
  60   0.0000       1.900649        51.7193 
  61   0.0000       1.936449        52.6935 
  62   0.0000       1.972395        53.6716 
  63   0.0000       2.000017        54.4232 
  64   0.0000       2.056572        55.9622 
  65   0.0000       2.112586        57.4864 
  66   0.0000       2.124416        57.8083 
  67   0.0000       2.176738        59.2320 
  68   0.0000       2.240946        60.9792 
  69   0.0000       2.389814        65.0301 
  70   0.0000       2.430120        66.1269 
  71   0.0000       2.460493        66.9534 
  72   0.0000       2.538039        69.0635 
  73   0.0000       2.620464        71.3065 
  74   0.0000       2.675569        72.8059 
  75   0.0000       2.734556        74.4111 
  76   0.0000       2.776001        75.5388 
  77   0.0000       2.924688        79.5848 
  78   0.0000       3.032194        82.5102 
  79   0.0000       3.175055        86.3976 
  80   0.0000      13.672268       372.0413 
  81   0.0000      14.064273       382.7083 
  82   0.0000      19.132494       520.6216 
  83   0.0000      25.548852       695.2196 
  84   0.0000      25.727299       700.0754 

                    ********************************
                    * MULLIKEN POPULATION ANALYSIS *
                    ********************************

-----------------------
MULLIKEN ATOMIC CHARGES
-----------------------
   0 N :   -0.752432
   1 C :   -0.365457
   2 C :    0.516471
   3 O :   -0.390080
   4 O :   -0.589065
   5 H :    0.340817
   6 H :    0.325964
   7 H :    0.443634
   8 H :    0.220718
   9 H :    0.249429
Sum of atomic charges:    0.0000000

--------------------------------
MULLIKEN REDUCED ORBITAL CHARGES
--------------------------------
  0 N s       :     3.618968  s :     3.618968
      pz      :     1.133202  p :     4.098961
      px      :     1.185170
      py      :     1.780589
      dz2     :     0.006988  d :     0.034503
      dxz     :     0.006561
      dyz     :     0.008583
      dx2y2   :     0.003499
      dxy     :     0.008871
  1 C s       :     3.304967  s :     3.304967
      pz      :     0.851475  p :     3.003321
      px      :     1.018016
      py      :     1.133830
      dz2     :     0.014106  d :     0.057169
      dxz     :     0.013980
      dyz     :     0.008220
      dx2y2   :     0.007870
      dxy     :     0.012994
  2 C s       :     2.958239  s :     2.958239
      pz      :     0.822927  p :     2.390003
      px      :     0.836237
      py      :     0.730839
      dz2     :     0.021462  d :     0.135288
      dxz     :     0.058906
      dyz     :     0.010337
      dx2y2   :     0.018001
      dxy     :     0.026582
  3 O s       :     3.756107  s :     3.756107
      pz      :     1.786653  p :     4.602926
      px      :     1.384318
      py      :     1.431955
      dz2     :     0.003172  d :     0.031048
      dxz     :     0.007375
      dyz     :     0.000083
      dx2y2   :     0.008370
      dxy     :     0.012048
  4 O s       :     3.804429  s :     3.804429
      pz      :     1.287605  p :     4.754446
      px      :     1.652753
      py      :     1.814089
      dz2     :     0.002958  d :     0.030190
      dxz     :     0.016450
      dyz     :     0.001419
      dx2y2   :     0.005208
      dxy     :     0.004154
  5 H s       :     0.659183  s :     0.659183
  6 H s       :     0.674036  s :     0.674036
  7 H s       :     0.556366  s :     0.556366
  8 H s       :     0.779282  s :     0.779282
  9 H s       :     0.750571  s :     0.750571


                     *******************************
                     * LOEWDIN POPULATION ANALYSIS *
                     *******************************

----------------------
LOEWDIN ATOMIC CHARGES
----------------------
   0 N :   -0.473342
   1 C :   -0.193230
   2 C :    0.133582
   3 O :   -0.226580
   4 O :   -0.302278
   5 H :    0.235870
   6 H :    0.226833
   7 H :    0.334650
   8 H :    0.123811
   9 H :    0.140684

-------------------------------
LOEWDIN REDUCED ORBITAL CHARGES
-------------------------------
  0 N s       :     3.233996  s :     3.233996
      pz      :     1.177654  p :     4.176548
      px      :     1.212142
      py      :     1.786752
      dz2     :     0.015536  d :     0.062799
      dxz     :     0.015546
      dyz     :     0.013159
      dx2y2   :     0.006414
      dxy     :     0.012144
  1 C s       :     2.912950  s :     2.912950
      pz      :     0.983737  p :     3.163206
      px      :     1.068721
      py      :     1.110747
      dz2     :     0.029170  d :     0.117074
      dxz     :     0.031873
      dyz     :     0.016684
      dx2y2   :     0.014206
      dxy     :     0.025140
  2 C s       :     2.837739  s :     2.837739
      pz      :     0.946703  p :     2.725028
      px      :     1.035249
      py      :     0.743076
      dz2     :     0.046886  d :     0.303651
      dxz     :     0.140184
      dyz     :     0.020854
      dx2y2   :     0.042571
      dxy     :     0.053156
  3 O s       :     3.517422  s :     3.517422
      pz      :     1.759255  p :     4.651633
      px      :     1.476240
      py      :     1.416138
      dz2     :     0.007293  d :     0.057525
      dxz     :     0.014656
      dyz     :     0.000107
      dx2y2   :     0.020223
      dxy     :     0.015247
  4 O s       :     3.503083  s :     3.503083
      pz      :     1.306092  p :     4.746003
      px      :     1.648250
      py      :     1.791661
      dz2     :     0.010362  d :     0.053192
      dxz     :     0.028059
      dyz     :     0.003562
      dx2y2   :     0.006399
      dxy     :     0.004809
  5 H s       :     0.764130  s :     0.764130
  6 H s       :     0.773167  s :     0.773167
  7 H s       :     0.665350  s :     0.665350
  8 H s       :     0.876189  s :     0.876189
  9 H s       :     0.859316  s :     0.859316


                      *****************************
                      * MAYER POPULATION ANALYSIS *
                      *****************************

  NA   - Mulliken gross atomic population
  ZA   - Total nuclear charge
  QA   - Mulliken gross atomic charge
  VA   - Mayer's total valence
  BVA  - Mayer's bonded valence
  FA   - Mayer's free valence

  ATOM       NA         ZA         QA         VA         BVA        FA
  0 N      7.7524     7.0000    -0.7524     2.7454     2.7454    -0.0000
  1 C      6.3655     6.0000    -0.3655     3.7462     3.7462     0.0000
  2 C      5.4835     6.0000     0.5165     4.1102     4.1102     0.0000
  3 O      8.3901     8.0000    -0.3901     2.2171     2.2171     0.0000
  4 O      8.5891     8.0000    -0.5891     1.9948     1.9948     0.0000
  5 H      0.6592     1.0000     0.3408     0.8604     0.8604    -0.0000
  6 H      0.6740     1.0000     0.3260     0.8602     0.8602    -0.0000
  7 H      0.5564     1.0000     0.4436     0.7943     0.7943     0.0000
  8 H      0.7793     1.0000     0.2207     0.8932     0.8932     0.0000
  9 H      0.7506     1.0000     0.2494     0.8905     0.8905    -0.0000

  Mayer bond orders larger than 0.100000
B(  0-N ,  1-C ) :   1.0429 B(  0-N ,  5-H ) :   0.8364 B(  0-N ,  6-H ) :   0.8591 
B(  1-C ,  2-C ) :   0.9242 B(  1-C ,  8-H ) :   0.8840 B(  1-C ,  9-H ) :   0.8885 
B(  2-C ,  3-O ) :   2.0578 B(  2-C ,  4-O ) :   1.1430 B(  4-O ,  7-H ) :   0.7584 


-------
TIMINGS
-------

Total SCF time: 0 days 0 hours 1 min 9 sec 

Total time                  ....      69.738 sec
Sum of individual times     ....      62.899 sec  ( 90.2%)

Fock matrix formation       ....      52.652 sec  ( 75.5%)
  Split-RI-J                ....       5.668 sec  ( 10.8% of F)
  Chain of spheres X        ....      12.328 sec  ( 23.4% of F)
  XC integration            ....      17.420 sec  ( 33.1% of F)
    Basis function eval.    ....       1.664 sec  (  9.6% of XC)
    Density eval.           ....       1.123 sec  (  6.4% of XC)
    XC-Functional eval.     ....       1.041 sec  (  6.0% of XC)
    XC-Potential eval.      ....       0.515 sec  (  3.0% of XC)
Diagonalization             ....       0.575 sec  (  0.8%)
Density matrix formation    ....       0.070 sec  (  0.1%)
Population analysis         ....       1.189 sec  (  1.7%)
Initial guess               ....       0.006 sec  (  0.0%)
Orbital Transformation      ....       0.000 sec  (  0.0%)
Orbital Orthonormalization  ....       0.000 sec  (  0.0%)
DIIS solution               ....       2.681 sec  (  3.8%)
SOSCF solution              ....       0.913 sec  (  1.3%)
Grid generation             ....       4.812 sec  (  6.9%)

Maximum memory used throughout the entire SCF-calculation: 48.7 MB


-------------------------------------------------------------------------------
                          DFT DISPERSION CORRECTION                            
                                                                               
                              DFTD3 V3.1  Rev 1                                
                          USING Becke-Johnson damping                          
-------------------------------------------------------------------------------
The PBEh-3c composite method is recognized
Using three-body term ABC
Active option DFTDOPT                   ...         4   

molecular C6(AA) [au] = 824.281313 


            DFT-D V3
 parameters
 s6 scaling factor         :     1.0000 
 a1 scaling factor         :     0.4860 
 s8 scaling factor         :     0.0000 
 a2 scaling factor         :     4.5000 
 Damping factor alpha9(ATM):    16.0000 
 ad hoc parameters k1-k3   :    16.0000     1.3333    -4.0000 

 Edisp/kcal,au: -2.190138142883  -0.003490206921 
 E6   /kcal   :  -2.193082231 
 E8   /kcal   :  -0.000000000 
 E6(ABC)      :   0.002944088 
 % E8         :   0.000000000 
 % E6(ABC)    :  -0.134424777 

-------------------------   ----------------
Dispersion correction           -0.003490207
-------------------------   ----------------

------------------   -----------------
gCP correction             0.022513765
------------------   -----------------

-------------------------   --------------------
FINAL SINGLE POINT ENERGY      -283.823416114292
-------------------------   --------------------


                            ***************************************
                            *     ORCA property calculations      *
                            ***************************************

                                    ---------------------
                                    Active property flags
                                    ---------------------
   (+) Dipole Moment


------------------------------------------------------------------------------
                       ORCA ELECTRIC PROPERTIES CALCULATION
------------------------------------------------------------------------------

Dipole Moment Calculation                       ... on
Quadrupole Moment Calculation                   ... off
Polarizability Calculation                      ... off
GBWName                                         ... pbeh-3c.gbw
Electron density                                ... pbeh-3c.scfp
The origin for moment calculation is the CENTER OF MASS  = ( 0.419455,  0.173315 -0.711422)

-------------
DIPOLE MOMENT
-------------
                                X             Y             Z
Electronic contribution:      1.50200       0.32598      -3.50922
Nuclear contribution   :     -2.05545      -0.89340       3.43878
                        -----------------------------------------
Total Dipole Moment    :     -0.55345      -0.56742      -0.07044
                        -----------------------------------------
Magnitude (a.u.)       :      0.79576
Magnitude (Debye)      :      2.02266



--------------------
Rotational spectrum 
--------------------
 
Rotational constants in cm-1:     0.346028     0.131589     0.098345 
Rotational constants in MHz : 10373.654439  3944.950945  2948.323035 

 Dipole components along the rotational axes: 
x,y,z [a.u.] :    -0.070445     0.553450     0.567417 
x,y,z [Debye]:    -0.179057     1.406758     1.442259 

 

Timings for individual modules:

Sum of individual times         ...       74.197 sec (=   1.237 min)
GTO integral calculation        ...        3.611 sec (=   0.060 min)   4.9 %
SCF iterations                  ...       70.585 sec (=   1.176 min)  95.1 %
                             ****ORCA TERMINATED NORMALLY****
TOTAL RUN TIME: 0 days 0 hours 1 minutes 26 seconds 992 msec
