
                                 *****************
                                 * O   R   C   A *
                                 *****************

                                            #,                                       
                                            ###                                      
                                            ####                                     
                                            #####                                    
                                            ######                                   
                                           ########,                                 
                                     ,,################,,,,,                         
                               ,,#################################,,                 
                          ,,##########################################,,             
                       ,#########################################, ''#####,          
                    ,#############################################,,   '####,        
                  ,##################################################,,,,####,       
                ,###########''''           ''''###############################       
              ,#####''   ,,,,##########,,,,          '''####'''          '####       
            ,##' ,,,,###########################,,,                        '##       
           ' ,,###''''                  '''############,,,                           
         ,,##''                                '''############,,,,        ,,,,,,###''
      ,#''                                            '''#######################'''  
     '                                                          ''''####''''         
             ,#######,   #######,   ,#######,      ##                                
            ,#'     '#,  ##    ##  ,#'     '#,    #''#        ######   ,####,        
            ##       ##  ##   ,#'  ##            #'  '#       #        #'  '#        
            ##       ##  #######   ##           ,######,      #####,   #    #        
            '#,     ,#'  ##    ##  '#,     ,#' ,#      #,         ##   #,  ,#        
             '#######'   ##     ##  '#######'  #'      '#     #####' # '####'        



                  #######################################################
                  #                        -***-                        #
                  #          Department of theory and spectroscopy      #
                  #    Directorship and core code : Frank Neese         #
                  #        Max Planck Institute fuer Kohlenforschung    #
                  #                Kaiser Wilhelm Platz 1               #
                  #                 D-45470 Muelheim/Ruhr               #
                  #                      Germany                        #
                  #                                                     #
                  #                  All rights reserved                #
                  #                        -***-                        #
                  #######################################################


                         Program Version 5.0.3 -  RELEASE  -


 With contributions from (in alphabetic order):
   Daniel Aravena         : Magnetic Suceptibility
   Michael Atanasov       : Ab Initio Ligand Field Theory (pilot matlab implementation)
   Alexander A. Auer      : GIAO ZORA, VPT2 properties, NMR spectrum
   Ute Becker             : Parallelization
   Giovanni Bistoni       : ED, misc. LED, open-shell LED, HFLD
   Martin Brehm           : Molecular dynamics
   Dmytro Bykov           : SCF Hessian
   Vijay G. Chilkuri      : MRCI spin determinant printing, contributions to CSF-ICE
   Dipayan Datta          : RHF DLPNO-CCSD density
   Achintya Kumar Dutta   : EOM-CC, STEOM-CC
   Dmitry Ganyushin       : Spin-Orbit,Spin-Spin,Magnetic field MRCI
   Miquel Garcia          : C-PCM and meta-GGA Hessian, CC/C-PCM, Gaussian charge scheme
   Yang Guo               : DLPNO-NEVPT2, F12-NEVPT2, CIM, IAO-localization
   Andreas Hansen         : Spin unrestricted coupled pair/coupled cluster methods
   Benjamin Helmich-Paris : MC-RPA, TRAH-SCF, COSX integrals
   Lee Huntington         : MR-EOM, pCC
   Robert Izsak           : Overlap fitted RIJCOSX, COSX-SCS-MP3, EOM
   Marcus Kettner         : VPT2
   Christian Kollmar      : KDIIS, OOCD, Brueckner-CCSD(T), CCSD density, CASPT2, CASPT2-K
   Simone Kossmann        : Meta GGA functionals, TD-DFT gradient, OOMP2, MP2 Hessian
   Martin Krupicka        : Initial AUTO-CI
   Lucas Lang             : DCDCAS
   Marvin Lechner         : AUTO-CI (C++ implementation), FIC-MRCC
   Dagmar Lenk            : GEPOL surface, SMD
   Dimitrios Liakos       : Extrapolation schemes; Compound Job, initial MDCI parallelization
   Dimitrios Manganas     : Further ROCIS development; embedding schemes
   Dimitrios Pantazis     : SARC Basis sets
   Anastasios Papadopoulos: AUTO-CI, single reference methods and gradients
   Taras Petrenko         : DFT Hessian,TD-DFT gradient, ASA, ECA, R-Raman, ABS, FL, XAS/XES, NRVS
   Peter Pinski           : DLPNO-MP2, DLPNO-MP2 Gradient
   Christoph Reimann      : Effective Core Potentials
   Marius Retegan         : Local ZFS, SOC
   Christoph Riplinger    : Optimizer, TS searches, QM/MM, DLPNO-CCSD(T), (RO)-DLPNO pert. Triples
   Tobias Risthaus        : Range-separated hybrids, TD-DFT gradient, RPA, STAB
   Michael Roemelt        : Original ROCIS implementation
   Masaaki Saitow         : Open-shell DLPNO-CCSD energy and density
   Barbara Sandhoefer     : DKH picture change effects
   Avijit Sen             : IP-ROCIS
   Kantharuban Sivalingam : CASSCF convergence, NEVPT2, FIC-MRCI
   Bernardo de Souza      : ESD, SOC TD-DFT
   Georgi Stoychev        : AutoAux, RI-MP2 NMR, DLPNO-MP2 response
   Willem Van den Heuvel  : Paramagnetic NMR
   Boris Wezisla          : Elementary symmetry handling
   Frank Wennmohs         : Technical directorship


 We gratefully acknowledge several colleagues who have allowed us to
 interface, adapt or use parts of their codes:
   Stefan Grimme, W. Hujo, H. Kruse, P. Pracht,  : VdW corrections, initial TS optimization,
                  C. Bannwarth, S. Ehlert          DFT functionals, gCP, sTDA/sTD-DF
   Ed Valeev, F. Pavosevic, A. Kumar             : LibInt (2-el integral package), F12 methods
   Garnet Chan, S. Sharma, J. Yang, R. Olivares  : DMRG
   Ulf Ekstrom                                   : XCFun DFT Library
   Mihaly Kallay                                 : mrcc  (arbitrary order and MRCC methods)
   Jiri Pittner, Ondrej Demel                    : Mk-CCSD
   Frank Weinhold                                : gennbo (NPA and NBO analysis)
   Christopher J. Cramer and Donald G. Truhlar   : smd solvation model
   Lars Goerigk                                  : TD-DFT with DH, B97 family of functionals
   V. Asgeirsson, H. Jonsson                     : NEB implementation
   FAccTs GmbH                                   : IRC, NEB, NEB-TS, DLPNO-Multilevel, CI-OPT
                                                   MM, QMMM, 2- and 3-layer-ONIOM, Crystal-QMMM,
                                                   LR-CPCM, SF, NACMEs, symmetry and pop. for TD-DFT,
                                                   nearIR, NL-DFT gradient (VV10), updates on ESD,
                                                   ML-optimized integration grids
   S Lehtola, MJT Oliveira, MAL Marques          : LibXC Library
   Liviu Ungur et al                             : ANISO software


 Your calculation uses the libint2 library for the computation of 2-el integrals
 For citations please refer to: http://libint.valeyev.net

 Your ORCA version has been built with support for libXC version: 5.1.0
 For citations please refer to: https://tddft.org/programs/libxc/

 This ORCA versions uses:
   CBLAS   interface :  Fast vector & matrix operations
   LAPACKE interface :  Fast linear algebra routines
   SCALAPACK package :  Parallel linear algebra routines
   Shared memory     :  Shared parallel matrices
   BLAS/LAPACK       :  OpenBLAS 0.3.15  USE64BITINT DYNAMIC_ARCH NO_AFFINITY Haswell SINGLE_THREADED
        Core in use  :  Haswell
   Copyright (c) 2011-2014, The OpenBLAS Project




***************************************
The coordinates will be read from file: 43A.xyz
***************************************


Your calculation utilizes the geometrical counterpoise correction gCP
Please cite in your paper:
H.Kruse, S. Grimme J.Chem.Phys., 136, (2012), 154101 
   

Your calculation utilizes the atom-pairwise dispersion correction
with the Becke-Johnson damping scheme (D3BJ)
Cite in your paper:
S.Grimme, S.Ehrlich, L.Goerigk, J Comput Chem, (2011), 32, 1456–1465 
S.Grimme, J.Antony, S.Ehrlich and H.Krieg, J.Chem.Phys., 132, (2010), 154104 
   

Your calculation employs the composite approach PBEh-3c.
Please cite in your paper:
S. Grimme, J. G. Brandenburg, C. Bannwarth, A. Hansen J.Chem.Phys., 143, (2015), 054107 
   

================================================================================

----- Orbital basis set information -----
Your calculation utilizes the basis: def2-mSVP

----- AuxJ basis set information -----
Your calculation utilizes the auxiliary basis: def2/J
   F. Weigend, Phys. Chem. Chem. Phys. 8, 1057 (2006).

================================================================================
                                        WARNINGS
                       Please study these warnings very carefully!
================================================================================


INFO   : the flag for use of the SHARK integral package has been found!

================================================================================
                                       INPUT FILE
================================================================================
NAME = pbeh-3c.inp
|  1> ! PBEh-3c def2/J TightSCF DefGrid3
|  2> 
|  3> %maxcore 60000
|  4> 
|  5> %pal
|  6> nprocs 4
|  7> end
|  8> 
|  9> *xyzfile 0 1 43A.xyz
| 10> 
| 11>                          ****END OF INPUT****
================================================================================

                       ****************************
                       * Single Point Calculation *
                       ****************************

---------------------------------
CARTESIAN COORDINATES (ANGSTROEM)
---------------------------------
  N     -0.289881   -1.271395    0.000000
  H     -0.509136   -2.257958    0.000000
  C     -1.385630   -0.397857    0.000000
  O     -2.523857   -0.833828    0.000000
  C     -1.004208    1.003704    0.000000
  H     -1.778392    1.751291    0.000000
  C      0.301619    1.341004    0.000000
  H      0.635636    2.367897    0.000000
  N      1.293576    0.397557    0.000000
  H      2.264339    0.661452    0.000000
  C      1.054009   -0.966266    0.000000
  O      1.941926   -1.795601    0.000000

----------------------------
CARTESIAN COORDINATES (A.U.)
----------------------------
  NO LB      ZA    FRAG     MASS         X           Y           Z
   0 N     7.0000    0    14.007   -0.547796   -2.402588    0.000000
   1 H     1.0000    0     1.008   -0.962128   -4.266923    0.000000
   2 C     6.0000    0    12.011   -2.618461   -0.751840    0.000000
   3 O     8.0000    0    15.999   -4.769399   -1.575707    0.000000
   4 C     6.0000    0    12.011   -1.897679    1.896725    0.000000
   5 H     1.0000    0     1.008   -3.360673    3.309461    0.000000
   6 C     6.0000    0    12.011    0.569977    2.534130    0.000000
   7 H     1.0000    0     1.008    1.201177    4.474677    0.000000
   8 N     7.0000    0    14.007    2.444505    0.751274    0.000000
   9 H     1.0000    0     1.008    4.278981    1.249964    0.000000
  10 C     6.0000    0    12.011    1.991788   -1.825978    0.000000
  11 O     8.0000    0    15.999    3.669708   -3.393194    0.000000

--------------------------------
INTERNAL COORDINATES (ANGSTROEM)
--------------------------------
 N      0   0   0     0.000000000000     0.00000000     0.00000000
 H      1   0   0     1.010633805680     0.00000000     0.00000000
 C      1   2   0     1.401333102443   116.03224043     0.00000000
 O      3   1   2     1.218865501891   120.47972909     0.00000000
 C      3   1   2     1.452533285963   113.33823925   180.00000000
 H      5   3   1     1.076218914157   118.77491885   180.00000085
 C      5   3   1     1.348686490710   119.70698881     0.00000000
 H      7   5   3     1.079850707194   122.50126399   180.00000000
 N      7   5   3     1.368967480411   121.95268019     0.00000000
 H      9   7   5     1.005992764853   121.22785685   180.00000000
 C      1   2   3     1.378094217601   115.32189528   180.00000000
 O     11   1   2     1.214986397000   124.16176654     0.00000000

---------------------------
INTERNAL COORDINATES (A.U.)
---------------------------
 N      0   0   0     0.000000000000     0.00000000     0.00000000
 H      1   0   0     1.909821114417     0.00000000     0.00000000
 C      1   2   0     2.648135786016   116.03224043     0.00000000
 O      3   1   2     2.303321992659   120.47972909     0.00000000
 C      3   1   2     2.744890110875   113.33823925   180.00000000
 H      5   3   1     2.033759007904   118.77491885   180.00000085
 C      5   3   1     2.548648107961   119.70698881     0.00000000
 H      7   5   3     2.040622102118   122.50126399   180.00000000
 N      7   5   3     2.586973624222   121.95268019     0.00000000
 H      9   7   5     1.901050818278   121.22785685   180.00000000
 C      1   2   3     2.604220658007   115.32189528   180.00000000
 O     11   1   2     2.295991546771   124.16176654     0.00000000

---------------------
BASIS SET INFORMATION
---------------------
There are 4 groups of distinct atoms

 Group   1 Type N   : 8s4p1d contracted to 4s2p1d pattern {5111/31/1}
 Group   2 Type H   : 4s contracted to 2s pattern {31}
 Group   3 Type C   : 8s4p1d contracted to 4s2p1d pattern {5111/31/1}
 Group   4 Type O   : 8s4p1d contracted to 4s2p1d pattern {5111/31/1}

Atom   0N    basis set group =>   1
Atom   1H    basis set group =>   2
Atom   2C    basis set group =>   3
Atom   3O    basis set group =>   4
Atom   4C    basis set group =>   3
Atom   5H    basis set group =>   2
Atom   6C    basis set group =>   3
Atom   7H    basis set group =>   2
Atom   8N    basis set group =>   1
Atom   9H    basis set group =>   2
Atom  10C    basis set group =>   3
Atom  11O    basis set group =>   4
---------------------------------
AUXILIARY/J BASIS SET INFORMATION
---------------------------------
There are 4 groups of distinct atoms

 Group   1 Type N   : 12s5p4d2f1g contracted to 6s4p3d1f1g pattern {711111/2111/211/2/1}
 Group   2 Type H   : 5s2p1d contracted to 3s1p1d pattern {311/2/1}
 Group   3 Type C   : 12s5p4d2f1g contracted to 6s4p3d1f1g pattern {711111/2111/211/2/1}
 Group   4 Type O   : 12s5p4d2f1g contracted to 6s4p3d1f1g pattern {711111/2111/211/2/1}

Atom   0N    basis set group =>   1
Atom   1H    basis set group =>   2
Atom   2C    basis set group =>   3
Atom   3O    basis set group =>   4
Atom   4C    basis set group =>   3
Atom   5H    basis set group =>   2
Atom   6C    basis set group =>   3
Atom   7H    basis set group =>   2
Atom   8N    basis set group =>   1
Atom   9H    basis set group =>   2
Atom  10C    basis set group =>   3
Atom  11O    basis set group =>   4


           ************************************************************
           *        Program running with 4 parallel MPI-processes     *
           *              working on a common directory               *
           ************************************************************
------------------------------------------------------------------------------
                           ORCA GTO INTEGRAL CALCULATION
                           -- RI-GTO INTEGRALS CHOSEN --
------------------------------------------------------------------------------
------------------------------------------------------------------------------
                   ___                                                        
                  /   \      - P O W E R E D   B Y -                         
                 /     \                                                     
                 |  |  |   _    _      __       _____    __    __             
                 |  |  |  | |  | |    /  \     |  _  \  |  |  /  |          
                  \  \/   | |  | |   /    \    | | | |  |  | /  /          
                 / \  \   | |__| |  /  /\  \   | |_| |  |  |/  /          
                |  |  |   |  __  | /  /__\  \  |    /   |      \           
                |  |  |   | |  | | |   __   |  |    \   |  |\   \          
                \     /   | |  | | |  |  |  |  | |\  \  |  | \   \       
                 \___/    |_|  |_| |__|  |__|  |_| \__\ |__|  \__/        
                                                                              
                      - O R C A' S   B I G   F R I E N D -                    
                                      &                                       
                       - I N T E G R A L  F E E D E R -                       
                                                                              
 v1 FN, 2020, v2 2021                                                         
------------------------------------------------------------------------------


Reading SHARK input file pbeh-3c.SHARKINP.tmp ... ok
----------------------
SHARK INTEGRAL PACKAGE
----------------------

Number of atoms                             ...     12
Number of basis functions                   ...    128
Number of shells                            ...     64
Maximum angular momentum                    ...      2
Integral batch strategy                     ... SHARK/LIBINT Hybrid
RI-J (if used) integral strategy            ... SPLIT-RIJ (Revised 2003 algorithm where possible)
Printlevel                                  ...      1
Contraction scheme used                     ... SEGMENTED contraction
Coulomb Range Separation                    ... NOT USED
Exchange Range Separation                   ... NOT USED
Finite Nucleus Model                        ... NOT USED
Auxiliary Coulomb fitting basis             ... AVAILABLE
   # of basis functions in Aux-J            ...    436
   # of shells in Aux-J                     ...    140
   Maximum angular momentum in Aux-J        ...      4
Auxiliary J/K fitting basis                 ... NOT available
Auxiliary Correlation fitting basis         ... NOT available
Auxiliary 'external' fitting basis          ... NOT available
Integral threshold                          ...     2.500000e-11
Primitive cut-off                           ...     2.500000e-12
Primitive pair pre-selection threshold      ...     2.500000e-12

Calculating pre-screening integrals         ... done (  0.0 sec) Dimension = 64
Organizing shell pair data                  ... done (  0.2 sec)
Shell pair information
Total number of shell pairs                 ...      2080
Shell pairs after pre-screening             ...      1891
Total number of primitive shell pairs       ...      7376
Primitive shell pairs kept                  ...      4909
          la=0 lb=0:    688 shell pairs
          la=1 lb=0:    615 shell pairs
          la=1 lb=1:    135 shell pairs
          la=2 lb=0:    291 shell pairs
          la=2 lb=1:    126 shell pairs
          la=2 lb=2:     36 shell pairs

Calculating one electron integrals          ... done (  0.0 sec)
Calculating RI/J V-Matrix + Cholesky decomp.... done (  0.8 sec)
Calculating Nuclear repulsion               ... done (  0.2 sec) ENN=    357.170145929825 Eh

SHARK setup successfully completed in   2.2 seconds

Maximum memory used throughout the entire GTOINT-calculation: 10.6 MB


           ************************************************************
           *        Program running with 4 parallel MPI-processes     *
           *              working on a common directory               *
           ************************************************************
-------------------------------------------------------------------------------
                                 ORCA SCF
-------------------------------------------------------------------------------

------------
SCF SETTINGS
------------
Hamiltonian:
 Density Functional     Method          .... DFT(GTOs)
 Exchange Functional    Exchange        .... PBE
   PBE kappa parameter   XKappa         ....  1.024500
   PBE mue parameter    XMuePBE         ....  0.123457
 Correlation Functional Correlation     .... PBE
   PBE beta parameter  CBetaPBE         ....  0.030000
 LDA part of GGA corr.  LDAOpt          .... PW91-LDA
 Gradients option       PostSCFGGA      .... off
 Hybrid DFT is turned on
   Fraction HF Exchange ScalHFX         ....  0.420000
   Scaling of DF-GGA-X  ScalDFX         ....  0.580000
   Scaling of DF-GGA-C  ScalDFC         ....  1.000000
   Scaling of DF-LDA-C  ScalLDAC        ....  1.000000
   Perturbative correction              ....  0.000000
   Density functional embedding theory  .... OFF
 RI-approximation to the Coulomb term is turned on
   Number of AuxJ basis functions       .... 436
   RIJ-ON(X) (HFX calculated with O(N)) .... on
   Number of AuxJ basis functions       .... 436
   RIJ-COSX (HFX calculated with COS-X)).... on


General Settings:
 Integral files         IntName         .... pbeh-3c
 Hartree-Fock type      HFTyp           .... RHF
 Total Charge           Charge          ....    0
 Multiplicity           Mult            ....    1
 Number of Electrons    NEL             ....   58
 Basis Dimension        Dim             ....  128
 Nuclear Repulsion      ENuc            ....    357.1701459298 Eh

Convergence Acceleration:
 DIIS                   CNVDIIS         .... on
   Start iteration      DIISMaxIt       ....    12
   Startup error        DIISStart       ....  0.200000
   # of expansion vecs  DIISMaxEq       ....     5
   Bias factor          DIISBfac        ....   1.050
   Max. coefficient     DIISMaxC        ....  10.000
 Trust-Rad. Augm. Hess. CNVTRAH         .... auto
   Auto Start mean grad. ratio tolernc. ....  1.125000
   Auto Start start iteration           ....    20
   Auto Start num. interpolation iter.  ....    10
   Max. Number of Micro iterations      ....    16
   Max. Number of Macro iterations      .... Maxiter - #DIIS iter
   Number of Davidson start vectors     ....     2
   Converg. threshold I  (grad. norm)   ....   1.000e-05
   Converg. threshold II (energy diff.) ....   1.000e-08
   Grad. Scal. Fac. for Micro threshold ....   0.100
   Minimum threshold for Micro iter.    ....   0.010
   NR start threshold (gradient norm)   ....   0.001
   Initial trust radius                 ....   0.400
   Minimum AH scaling param. (alpha)    ....   1.000
   Maximum AH scaling param. (alpha)    .... 1000.000
   Orbital update algorithm             .... Taylor
   White noise on init. David. guess    .... on
   Maximum white noise                  ....   0.010
   Quad. conv. algorithm                .... NR
   COSX micro iterations for RIJONX calc.... off
 SOSCF                  CNVSOSCF        .... on
   Start iteration      SOSCFMaxIt      ....   150
   Startup grad/error   SOSCFStart      ....  0.003300
 Level Shifting         CNVShift        .... on
   Level shift para.    LevelShift      ....    0.2500
   Turn off err/grad.   ShiftErr        ....    0.0010
 Zerner damping         CNVZerner       .... off
 Static damping         CNVDamp         .... on
   Fraction old density DampFac         ....    0.7000
   Max. Damping (<1)    DampMax         ....    0.9800
   Min. Damping (>=0)   DampMin         ....    0.0000
   Turn off err/grad.   DampErr         ....    0.1000
 Fernandez-Rico         CNVRico         .... off

SCF Procedure:
 Maximum # iterations   MaxIter         ....   125
 SCF integral mode      SCFMode         .... Direct
   Integral package                     .... SHARK and LIBINT hybrid scheme
 Reset frequency        DirectResetFreq ....    20
 Integral Threshold     Thresh          ....  2.500e-11 Eh
 Primitive CutOff       TCut            ....  2.500e-12 Eh

Convergence Tolerance:
 Convergence Check Mode ConvCheckMode   .... Total+1el-Energy
 Convergence forced     ConvForced      .... 0
 Energy Change          TolE            ....  1.000e-08 Eh
 1-El. energy change                    ....  1.000e-05 Eh
 Orbital Gradient       TolG            ....  1.000e-05
 Orbital Rotation angle TolX            ....  1.000e-05
 DIIS Error             TolErr          ....  5.000e-07


Diagonalization of the overlap matrix:
Smallest eigenvalue                        ... 2.051e-03
Time for diagonalization                   ...    0.003 sec
Threshold for overlap eigenvalues          ... 1.000e-08
Number of eigenvalues below threshold      ... 0
Time for construction of square roots      ...    0.117 sec
Total time needed                          ...    0.120 sec

--------------------------------
INITIAL GUESS: MINIMAL BASIS EHT
--------------------------------
The minimal basis has 44 functions
EHT matrix was diagonalized
Basis set overlap was calculated now projecting the orbitals
Using GuessMode=FMatrix for the initial guess
C*T matrix was formed
Effective Fockian was calculated
Effective Fockian was diagonalized
Initial density was built
                      ------------------
                      INITIAL GUESS DONE
                      ------------------
-------------------
DFT GRID GENERATION
-------------------

General Integration Accuracy     IntAcc      ... 4.959
Radial Grid Type                 RadialGrid  ... OptM3 with GC (2021)
Angular Grid (max. ang.)         AngularGrid ... 6 (Lebedev-590)
Angular grid pruning method      GridPruning ... 4 (adaptive)
Weight generation scheme         WeightScheme... Becke
Basis function cutoff            BFCut       ... 1.0000e-11
Integration weight cutoff        WCut        ... 1.0000e-14
Angular grids for H and He will be reduced by one unit
Partially contracted basis set               ... off
Rotationally invariant grid construction     ... off

Total number of grid points                  ...   149831
Total number of batches                      ...     2347
Average number of points per batch           ...       63
Average number of grid points per atom       ...    12486
Time for grid setup =    3.326 sec

--------------------
COSX GRID GENERATION
--------------------

GRIDX 1
-------
General Integration Accuracy     IntAcc      ... 4.020
Radial Grid Type                 RadialGrid  ... OptM3 with GC (2021)
Angular Grid (max. ang.)         AngularGrid ... 2 (Lebedev-110)
Angular grid pruning method      GridPruning ... 4 (adaptive)
Weight generation scheme         WeightScheme... Becke
Basis function cutoff            BFCut       ... 1.0000e-11
Integration weight cutoff        WCut        ... 1.0000e-14
Angular grids for H and He will be reduced by one unit
Partially contracted basis set               ... on
Rotationally invariant grid construction     ... off

Total number of grid points                  ...    17636
Total number of batches                      ...      281
Average number of points per batch           ...       62
Average number of grid points per atom       ...     1470
UseSFitting                                  ... on

GRIDX 2
-------
General Integration Accuracy     IntAcc      ... 4.338
Radial Grid Type                 RadialGrid  ... OptM3 with GC (2021)
Angular Grid (max. ang.)         AngularGrid ... 3 (Lebedev-194)
Angular grid pruning method      GridPruning ... 4 (adaptive)
Weight generation scheme         WeightScheme... Becke
Basis function cutoff            BFCut       ... 1.0000e-11
Integration weight cutoff        WCut        ... 1.0000e-14
Angular grids for H and He will be reduced by one unit
Partially contracted basis set               ... on
Rotationally invariant grid construction     ... off

Total number of grid points                  ...    38917
Total number of batches                      ...      613
Average number of points per batch           ...       63
Average number of grid points per atom       ...     3243
UseSFitting                                  ... on

GRIDX 3
-------
General Integration Accuracy     IntAcc      ... 4.871
Radial Grid Type                 RadialGrid  ... OptM3 with GC (2021)
Angular Grid (max. ang.)         AngularGrid ... 4 (Lebedev-302)
Angular grid pruning method      GridPruning ... 4 (adaptive)
Weight generation scheme         WeightScheme... Becke
Basis function cutoff            BFCut       ... 1.0000e-11
Integration weight cutoff        WCut        ... 1.0000e-14
Angular grids for H and He will be reduced by one unit
Partially contracted basis set               ... on
Rotationally invariant grid construction     ... off

Total number of grid points                  ...    71994
Total number of batches                      ...     1131
Average number of points per batch           ...       63
Average number of grid points per atom       ...     6000
UseSFitting                                  ... on

Time for X-Grid setup             =    3.362 sec

--------------
SCF ITERATIONS
--------------
ITER       Energy         Delta-E        Max-DP      RMS-DP      [F,P]     Damp
               ***  Starting incremental Fock matrix formation  ***
  0   -412.3382741292   0.000000000000 0.26062895  0.00958591  0.5813882 0.7000
  1   -412.9735664725  -0.635292343315 0.15512015  0.00484266  0.2944726 0.7000
  2   -413.2527275980  -0.279161125461 0.07454311  0.00271542  0.2051652 0.7000
                               ***Turning on DIIS***
  3   -413.4566099204  -0.203882322399 0.07171930  0.00198300  0.1443299 0.7000
  4   -413.6051675170  -0.148557596605 0.04997001  0.00142775  0.1016296 0.7000
  5   -413.7096221753  -0.104454658309 0.11064574  0.00341553  0.0710391 0.0000
  6   -413.9572208634  -0.247598688089 0.00805197  0.00020282  0.0058705 0.0000
                      *** Initiating the SOSCF procedure ***
                           *** Shutting down DIIS ***
                      *** Re-Reading the Fockian *** 
                      *** Removing any level shift *** 
ITER      Energy       Delta-E        Grad      Rot      Max-DP    RMS-DP
  7   -413.95740109  -0.0001802232  0.001056  0.001056  0.002385  0.000097
               *** Restarting incremental Fock matrix formation ***
  8   -413.95745288  -0.0000517898  0.000946  0.002963  0.002041  0.000080
  9   -413.95746776  -0.0000148868  0.000365  0.001293  0.002509  0.000079
 10   -413.95746729   0.0000004728  0.000419  0.000443  0.001097  0.000035
 11   -413.95747051  -0.0000032153  0.000034  0.000115  0.000154  0.000005
 12   -413.95747051  -0.0000000091  0.000031  0.000052  0.000078  0.000002
 13   -413.95747055  -0.0000000374  0.000004  0.000013  0.000014  0.000000
 14   -413.95747055   0.0000000013  0.000003  0.000006  0.000007  0.000000
                  ***Gradient check signals convergence***
              ***Rediagonalizing the Fockian in SOSCF/NRSCF***

               *****************************************************
               *                     SUCCESS                       *
               *           SCF CONVERGED AFTER  15 CYCLES          *
               *****************************************************

Old exchange energy                            =    -21.786048831 Eh
New exchange energy                            =    -21.786061006 Eh
Exchange energy change after final integration =     -0.000012175 Eh
Total energy after final integration           =   -413.957482725 Eh
Final COS-X integration done in                =     3.395 sec

----------------
TOTAL SCF ENERGY
----------------

Total Energy       :         -413.95748273 Eh          -11264.35577 eV

Components:
Nuclear Repulsion  :          357.17014593 Eh            9719.09378 eV
Electronic Energy  :         -771.12762866 Eh          -20983.44955 eV
One Electron Energy:        -1271.47644966 Eh          -34598.63316 eV
Two Electron Energy:          500.34882101 Eh           13615.18360 eV
Max COSX asymmetry :            0.00000187 Eh               0.00005 eV

Virial components:
Potential Energy   :         -824.93480047 Eh          -22447.61714 eV
Kinetic Energy     :          410.97731774 Eh           11183.26136 eV
Virial Ratio       :            2.00725141


DFT components:
N(Alpha)           :       29.000003113034 electrons
N(Beta)            :       29.000003113034 electrons
N(Total)           :       58.000006226068 electrons
E(X)               :      -29.020016195539 Eh       
E(C)               :       -2.599411809105 Eh       
E(XC)              :      -31.619428004644 Eh       
DFET-embed. en.    :        0.000000000000 Eh       

---------------
SCF CONVERGENCE
---------------

  Last Energy change         ...    3.8619e-10  Tolerance :   1.0000e-08
  Last MAX-Density change    ...    1.4433e-15  Tolerance :   1.0000e-07
  Last RMS-Density change    ...    4.1088e-17  Tolerance :   5.0000e-09
  Last Orbital Gradient      ...    4.3482e-07  Tolerance :   1.0000e-05
  Last Orbital Rotation      ...    1.0880e-06  Tolerance :   1.0000e-05

             **** THE GBW FILE WAS UPDATED (pbeh-3c.gbw) ****
             **** DENSITY pbeh-3c.scfp WAS UPDATED ****
             **** ENERGY FILE WAS UPDATED (pbeh-3c.en.tmp) ****
             **** THE GBW FILE WAS UPDATED (pbeh-3c.gbw) ****
             **** DENSITY pbeh-3c.scfp WAS UPDATED ****
----------------
ORBITAL ENERGIES
----------------

  NO   OCC          E(Eh)            E(eV) 
   0   2.0000     -19.483831      -530.1820 
   1   2.0000     -19.477068      -529.9980 
   2   2.0000     -14.718212      -400.5029 
   3   2.0000     -14.697743      -399.9459 
   4   2.0000     -10.610073      -288.7148 
   5   2.0000     -10.574354      -287.7428 
   6   2.0000     -10.538890      -286.7778 
   7   2.0000     -10.467675      -284.8399 
   8   2.0000      -1.197853       -32.5952 
   9   2.0000      -1.158913       -31.5356 
  10   2.0000      -1.094371       -29.7793 
  11   2.0000      -1.035595       -28.1800 
  12   2.0000      -0.900127       -24.4937 
  13   2.0000      -0.780611       -21.2415 
  14   2.0000      -0.751295       -20.4438 
  15   2.0000      -0.678714       -18.4688 
  16   2.0000      -0.637251       -17.3405 
  17   2.0000      -0.594411       -16.1748 
  18   2.0000      -0.553493       -15.0613 
  19   2.0000      -0.544991       -14.8300 
  20   2.0000      -0.522922       -14.2294 
  21   2.0000      -0.491449       -13.3730 
  22   2.0000      -0.486361       -13.2346 
  23   2.0000      -0.469335       -12.7713 
  24   2.0000      -0.431288       -11.7359 
  25   2.0000      -0.362196        -9.8558 
  26   2.0000      -0.341834        -9.3018 
  27   2.0000      -0.329223        -8.9586 
  28   2.0000      -0.300689        -8.1822 
  29   0.0000      -0.022659        -0.6166 
  30   0.0000       0.038891         1.0583 
  31   0.0000       0.096238         2.6188 
  32   0.0000       0.153175         4.1681 
  33   0.0000       0.160727         4.3736 
  34   0.0000       0.162086         4.4106 
  35   0.0000       0.206241         5.6121 
  36   0.0000       0.228683         6.2228 
  37   0.0000       0.249005         6.7758 
  38   0.0000       0.271545         7.3891 
  39   0.0000       0.298662         8.1270 
  40   0.0000       0.356583         9.7031 
  41   0.0000       0.378428        10.2976 
  42   0.0000       0.399899        10.8818 
  43   0.0000       0.456057        12.4099 
  44   0.0000       0.458660        12.4808 
  45   0.0000       0.521009        14.1774 
  46   0.0000       0.529084        14.3971 
  47   0.0000       0.548353        14.9214 
  48   0.0000       0.558162        15.1884 
  49   0.0000       0.570175        15.5153 
  50   0.0000       0.581625        15.8268 
  51   0.0000       0.638924        17.3860 
  52   0.0000       0.659271        17.9397 
  53   0.0000       0.673798        18.3350 
  54   0.0000       0.707877        19.2623 
  55   0.0000       0.764953        20.8154 
  56   0.0000       0.819697        22.3051 
  57   0.0000       0.823224        22.4011 
  58   0.0000       0.891756        24.2659 
  59   0.0000       0.898769        24.4568 
  60   0.0000       0.927343        25.2343 
  61   0.0000       0.932452        25.3733 
  62   0.0000       0.963589        26.2206 
  63   0.0000       0.977482        26.5986 
  64   0.0000       1.014601        27.6087 
  65   0.0000       1.026989        27.9458 
  66   0.0000       1.071388        29.1539 
  67   0.0000       1.115612        30.3574 
  68   0.0000       1.122747        30.5515 
  69   0.0000       1.143787        31.1240 
  70   0.0000       1.181576        32.1523 
  71   0.0000       1.185285        32.2532 
  72   0.0000       1.227068        33.3902 
  73   0.0000       1.229383        33.4532 
  74   0.0000       1.304596        35.4999 
  75   0.0000       1.380582        37.5676 
  76   0.0000       1.386856        37.7383 
  77   0.0000       1.430475        38.9252 
  78   0.0000       1.468154        39.9505 
  79   0.0000       1.494522        40.6680 
  80   0.0000       1.501317        40.8529 
  81   0.0000       1.522368        41.4257 
  82   0.0000       1.601310        43.5739 
  83   0.0000       1.651827        44.9485 
  84   0.0000       1.697324        46.1865 
  85   0.0000       1.801287        49.0155 
  86   0.0000       1.845391        50.2156 
  87   0.0000       1.851852        50.3915 
  88   0.0000       1.859324        50.5948 
  89   0.0000       1.877832        51.0984 
  90   0.0000       1.939770        52.7838 
  91   0.0000       1.996084        54.3162 
  92   0.0000       2.010536        54.7095 
  93   0.0000       2.015484        54.8441 
  94   0.0000       2.027634        55.1747 
  95   0.0000       2.068072        56.2751 
  96   0.0000       2.102793        57.2199 
  97   0.0000       2.200608        59.8816 
  98   0.0000       2.218547        60.3697 
  99   0.0000       2.222682        60.4823 
 100   0.0000       2.257577        61.4318 
 101   0.0000       2.314464        62.9798 
 102   0.0000       2.333456        63.4966 
 103   0.0000       2.356655        64.1278 
 104   0.0000       2.368820        64.4589 
 105   0.0000       2.404522        65.4304 
 106   0.0000       2.568788        69.9003 
 107   0.0000       2.641723        71.8849 
 108   0.0000       2.665131        72.5219 
 109   0.0000       2.677127        72.8483 
 110   0.0000       2.713704        73.8436 
 111   0.0000       2.735841        74.4460 
 112   0.0000       2.777671        75.5843 
 113   0.0000       2.837335        77.2078 
 114   0.0000       2.863630        77.9233 
 115   0.0000       2.973201        80.9049 
 116   0.0000       3.017144        82.1007 
 117   0.0000       3.065053        83.4043 
 118   0.0000       3.285665        89.4075 
 119   0.0000       3.485125        94.8351 
 120   0.0000      13.426334       365.3491 
 121   0.0000      13.923230       378.8704 
 122   0.0000      13.940819       379.3490 
 123   0.0000      14.208654       386.6371 
 124   0.0000      19.236409       523.4493 
 125   0.0000      19.354470       526.6619 
 126   0.0000      25.729552       700.1367 
 127   0.0000      25.761130       700.9960 

                    ********************************
                    * MULLIKEN POPULATION ANALYSIS *
                    ********************************

-----------------------
MULLIKEN ATOMIC CHARGES
-----------------------
   0 N :   -0.722923
   1 H :    0.399172
   2 C :    0.566999
   3 O :   -0.391405
   4 C :   -0.453062
   5 H :    0.266743
   6 C :    0.084931
   7 H :    0.272770
   8 N :   -0.679754
   9 H :    0.393155
  10 C :    0.677614
  11 O :   -0.414240
Sum of atomic charges:   -0.0000000

--------------------------------
MULLIKEN REDUCED ORBITAL CHARGES
--------------------------------
  0 N s       :     3.592492  s :     3.592492
      pz      :     1.658078  p :     4.098928
      px      :     1.153915
      py      :     1.286936
      dz2     :     0.004434  d :     0.031503
      dxz     :     0.004783
      dyz     :     0.001308
      dx2y2   :     0.012904
      dxy     :     0.008074
  1 H s       :     0.600828  s :     0.600828
  2 C s       :     2.925280  s :     2.925280
      pz      :     0.783998  p :     2.385778
      px      :     0.757115
      py      :     0.844665
      dz2     :     0.006146  d :     0.121944
      dxz     :     0.025226
      dyz     :     0.009667
      dx2y2   :     0.035016
      dxy     :     0.045889
  3 O s       :     3.758476  s :     3.758476
      pz      :     1.431282  p :     4.602579
      px      :     1.428254
      py      :     1.743044
      dz2     :     0.002766  d :     0.030349
      dxz     :     0.010153
      dyz     :     0.001460
      dx2y2   :     0.008230
      dxy     :     0.007740
  4 C s       :     3.301040  s :     3.301040
      pz      :     1.121818  p :     3.117537
      px      :     0.982638
      py      :     1.013081
      dz2     :     0.004119  d :     0.034484
      dxz     :     0.005190
      dyz     :     0.002069
      dx2y2   :     0.011260
      dxy     :     0.011846
  5 H s       :     0.733257  s :     0.733257
  6 C s       :     3.132133  s :     3.132133
      pz      :     0.921478  p :     2.723304
      px      :     0.890124
      py      :     0.911703
      dz2     :     0.004728  d :     0.059632
      dxz     :     0.014899
      dyz     :     0.004326
      dx2y2   :     0.014279
      dxy     :     0.021400
  7 H s       :     0.727230  s :     0.727230
  8 N s       :     3.572377  s :     3.572377
      pz      :     1.656564  p :     4.072561
      px      :     1.256449
      py      :     1.159549
      dz2     :     0.004322  d :     0.034816
      dxz     :     0.002598
      dyz     :     0.005112
      dx2y2   :     0.014013
      dxy     :     0.008771
  9 H s       :     0.606845  s :     0.606845
 10 C s       :     2.807687  s :     2.807687
      pz      :     0.794077  p :     2.370226
      px      :     0.795281
      py      :     0.780867
      dz2     :     0.006669  d :     0.144474
      dxz     :     0.023700
      dyz     :     0.021136
      dx2y2   :     0.063254
      dxy     :     0.029715
 11 O s       :     3.755817  s :     3.755817
      pz      :     1.489402  p :     4.627402
      px      :     1.554322
      py      :     1.583678
      dz2     :     0.002900  d :     0.031021
      dxz     :     0.006149
      dyz     :     0.005527
      dx2y2   :     0.007179
      dxy     :     0.009266


                     *******************************
                     * LOEWDIN POPULATION ANALYSIS *
                     *******************************

----------------------
LOEWDIN ATOMIC CHARGES
----------------------
   0 N :   -0.204163
   1 H :    0.286561
   2 C :    0.123369
   3 O :   -0.241592
   4 C :   -0.240623
   5 H :    0.163841
   6 C :   -0.013351
   7 H :    0.150028
   8 N :   -0.189811
   9 H :    0.281975
  10 C :    0.145687
  11 O :   -0.261922

-------------------------------
LOEWDIN REDUCED ORBITAL CHARGES
-------------------------------
  0 N s       :     3.118421  s :     3.118421
      pz      :     1.595095  p :     4.010045
      px      :     1.187090
      py      :     1.227860
      dz2     :     0.007723  d :     0.075696
      dxz     :     0.010222
      dyz     :     0.002147
      dx2y2   :     0.032258
      dxy     :     0.023347
  1 H s       :     0.713439  s :     0.713439
  2 C s       :     2.815790  s :     2.815790
      pz      :     0.795744  p :     2.783784
      px      :     0.974767
      py      :     1.013273
      dz2     :     0.014870  d :     0.277057
      dxz     :     0.050508
      dyz     :     0.018807
      dx2y2   :     0.082964
      dxy     :     0.109910
  3 O s       :     3.520287  s :     3.520287
      pz      :     1.424453  p :     4.665046
      px      :     1.497030
      py      :     1.743563
      dz2     :     0.006708  d :     0.056259
      dxz     :     0.013405
      dyz     :     0.001928
      dx2y2   :     0.017420
      dxy     :     0.016797
  4 C s       :     2.908876  s :     2.908876
      pz      :     1.100745  p :     3.250831
      px      :     1.082569
      py      :     1.067516
      dz2     :     0.007413  d :     0.080916
      dxz     :     0.008678
      dyz     :     0.004403
      dx2y2   :     0.030366
      dxy     :     0.030056
  5 H s       :     0.836159  s :     0.836159
  6 C s       :     2.881412  s :     2.881412
      pz      :     0.918732  p :     2.999706
      px      :     1.054559
      py      :     1.026415
      dz2     :     0.008961  d :     0.132233
      dxz     :     0.031153
      dyz     :     0.008148
      dx2y2   :     0.035005
      dxy     :     0.048966
  7 H s       :     0.849972  s :     0.849972
  8 N s       :     3.092822  s :     3.092822
      pz      :     1.601313  p :     4.013468
      px      :     1.211746
      py      :     1.200409
      dz2     :     0.006732  d :     0.083521
      dxz     :     0.004970
      dyz     :     0.011111
      dx2y2   :     0.035717
      dxy     :     0.024991
  9 H s       :     0.718025  s :     0.718025
 10 C s       :     2.780804  s :     2.780804
      pz      :     0.812657  p :     2.749388
      px      :     0.976131
      py      :     0.960600
      dz2     :     0.016675  d :     0.324121
      dxz     :     0.047684
      dyz     :     0.042872
      dx2y2   :     0.149056
      dxy     :     0.067835
 11 O s       :     3.519745  s :     3.519745
      pz      :     1.479528  p :     4.685589
      px      :     1.591538
      py      :     1.614523
      dz2     :     0.006883  d :     0.056588
      dxz     :     0.008308
      dyz     :     0.007389
      dx2y2   :     0.012636
      dxy     :     0.021372


                      *****************************
                      * MAYER POPULATION ANALYSIS *
                      *****************************

  NA   - Mulliken gross atomic population
  ZA   - Total nuclear charge
  QA   - Mulliken gross atomic charge
  VA   - Mayer's total valence
  BVA  - Mayer's bonded valence
  FA   - Mayer's free valence

  ATOM       NA         ZA         QA         VA         BVA        FA
  0 N      7.7229     7.0000    -0.7229     2.9927     2.9927     0.0000
  1 H      0.6008     1.0000     0.3992     0.8309     0.8309    -0.0000
  2 C      5.4330     6.0000     0.5670     4.0729     4.0729    -0.0000
  3 O      8.3914     8.0000    -0.3914     2.2319     2.2319    -0.0000
  4 C      6.4531     6.0000    -0.4531     3.7532     3.7532     0.0000
  5 H      0.7333     1.0000     0.2667     0.9074     0.9074    -0.0000
  6 C      5.9151     6.0000     0.0849     3.6350     3.6350    -0.0000
  7 H      0.7272     1.0000     0.2728     0.8855     0.8855    -0.0000
  8 N      7.6798     7.0000    -0.6798     3.0780     3.0780     0.0000
  9 H      0.6068     1.0000     0.3932     0.8296     0.8296     0.0000
 10 C      5.3224     6.0000     0.6776     4.1421     4.1421     0.0000
 11 O      8.4142     8.0000    -0.4142     2.2263     2.2263    -0.0000

  Mayer bond orders larger than 0.100000
B(  0-N ,  1-H ) :   0.7984 B(  0-N ,  2-C ) :   0.9795 B(  0-N , 10-C ) :   1.0655 
B(  2-C ,  3-O ) :   2.0399 B(  2-C ,  4-C ) :   1.0564 B(  4-C ,  5-H ) :   0.9064 
B(  4-C ,  6-C ) :   1.6439 B(  6-C ,  7-H ) :   0.8991 B(  6-C ,  8-N ) :   1.0763 
B(  8-N ,  9-H ) :   0.8081 B(  8-N , 10-C ) :   1.0238 B( 10-C , 11-O ) :   2.0472 


-------
TIMINGS
-------

Total SCF time: 0 days 0 hours 1 min 26 sec 

Total time                  ....      86.721 sec
Sum of individual times     ....      79.926 sec  ( 92.2%)

Fock matrix formation       ....      68.430 sec  ( 78.9%)
  Split-RI-J                ....       9.409 sec  ( 13.7% of F)
  Chain of spheres X        ....      26.629 sec  ( 38.9% of F)
  XC integration            ....      17.662 sec  ( 25.8% of F)
    Basis function eval.    ....       2.990 sec  ( 16.9% of XC)
    Density eval.           ....       2.157 sec  ( 12.2% of XC)
    XC-Functional eval.     ....       1.693 sec  (  9.6% of XC)
    XC-Potential eval.      ....       1.175 sec  (  6.7% of XC)
Diagonalization             ....       0.610 sec  (  0.7%)
Density matrix formation    ....       0.116 sec  (  0.1%)
Population analysis         ....       0.781 sec  (  0.9%)
Initial guess               ....       0.071 sec  (  0.1%)
Orbital Transformation      ....       0.000 sec  (  0.0%)
Orbital Orthonormalization  ....       0.000 sec  (  0.0%)
DIIS solution               ....       1.437 sec  (  1.7%)
SOSCF solution              ....       1.794 sec  (  2.1%)
Grid generation             ....       6.687 sec  (  7.7%)

Maximum memory used throughout the entire SCF-calculation: 52.6 MB


-------------------------------------------------------------------------------
                          DFT DISPERSION CORRECTION                            
                                                                               
                              DFTD3 V3.1  Rev 1                                
                          USING Becke-Johnson damping                          
-------------------------------------------------------------------------------
The PBEh-3c composite method is recognized
Using three-body term ABC
Active option DFTDOPT                   ...         4   

molecular C6(AA) [au] = 1768.411718 


            DFT-D V3
 parameters
 s6 scaling factor         :     1.0000 
 a1 scaling factor         :     0.4860 
 s8 scaling factor         :     0.0000 
 a2 scaling factor         :     4.5000 
 Damping factor alpha9(ATM):    16.0000 
 ad hoc parameters k1-k3   :    16.0000     1.3333    -4.0000 

 Edisp/kcal,au: -3.914690487607  -0.006238455724 
 E6   /kcal   :  -3.922894468 
 E8   /kcal   :  -0.000000000 
 E6(ABC)      :   0.008203980 
 % E8         :   0.000000000 
 % E6(ABC)    :  -0.209569061 

-------------------------   ----------------
Dispersion correction           -0.006238456
-------------------------   ----------------

------------------   -----------------
gCP correction             0.025302088
------------------   -----------------

-------------------------   --------------------
FINAL SINGLE POINT ENERGY      -413.938419093254
-------------------------   --------------------


                            ***************************************
                            *     ORCA property calculations      *
                            ***************************************

                                    ---------------------
                                    Active property flags
                                    ---------------------
   (+) Dipole Moment


------------------------------------------------------------------------------
                       ORCA ELECTRIC PROPERTIES CALCULATION
------------------------------------------------------------------------------

Dipole Moment Calculation                       ... on
Quadrupole Moment Calculation                   ... off
Polarizability Calculation                      ... off
GBWName                                         ... pbeh-3c.gbw
Electron density                                ... pbeh-3c.scfp
The origin for moment calculation is the CENTER OF MASS  = (-0.118961, -0.674160  0.000000)

-------------
DIPOLE MOMENT
-------------
                                X             Y             Z
Electronic contribution:      0.07687      -2.15051      -0.00000
Nuclear contribution   :      0.81030       3.67628       0.00000
                        -----------------------------------------
Total Dipole Moment    :      0.88716       1.52577      -0.00000
                        -----------------------------------------
Magnitude (a.u.)       :      1.76495
Magnitude (Debye)      :      4.48614



--------------------
Rotational spectrum 
--------------------
 
Rotational constants in cm-1:     0.130255     0.067413     0.044422 
Rotational constants in MHz :  3904.959492  2020.986320  1331.748545 

 Dipole components along the rotational axes: 
x,y,z [a.u.] :    -0.557427     1.674608    -0.000000 
x,y,z [Debye]:    -1.416867     4.256515    -0.000000 

 

Timings for individual modules:

Sum of individual times         ...       89.942 sec (=   1.499 min)
GTO integral calculation        ...        2.667 sec (=   0.044 min)   3.0 %
SCF iterations                  ...       87.275 sec (=   1.455 min)  97.0 %
                             ****ORCA TERMINATED NORMALLY****
TOTAL RUN TIME: 0 days 0 hours 1 minutes 31 seconds 900 msec
