
                                 *****************
                                 * O   R   C   A *
                                 *****************

                                            #,                                       
                                            ###                                      
                                            ####                                     
                                            #####                                    
                                            ######                                   
                                           ########,                                 
                                     ,,################,,,,,                         
                               ,,#################################,,                 
                          ,,##########################################,,             
                       ,#########################################, ''#####,          
                    ,#############################################,,   '####,        
                  ,##################################################,,,,####,       
                ,###########''''           ''''###############################       
              ,#####''   ,,,,##########,,,,          '''####'''          '####       
            ,##' ,,,,###########################,,,                        '##       
           ' ,,###''''                  '''############,,,                           
         ,,##''                                '''############,,,,        ,,,,,,###''
      ,#''                                            '''#######################'''  
     '                                                          ''''####''''         
             ,#######,   #######,   ,#######,      ##                                
            ,#'     '#,  ##    ##  ,#'     '#,    #''#        ######   ,####,        
            ##       ##  ##   ,#'  ##            #'  '#       #        #'  '#        
            ##       ##  #######   ##           ,######,      #####,   #    #        
            '#,     ,#'  ##    ##  '#,     ,#' ,#      #,         ##   #,  ,#        
             '#######'   ##     ##  '#######'  #'      '#     #####' # '####'        



                  #######################################################
                  #                        -***-                        #
                  #          Department of theory and spectroscopy      #
                  #    Directorship and core code : Frank Neese         #
                  #        Max Planck Institute fuer Kohlenforschung    #
                  #                Kaiser Wilhelm Platz 1               #
                  #                 D-45470 Muelheim/Ruhr               #
                  #                      Germany                        #
                  #                                                     #
                  #                  All rights reserved                #
                  #                        -***-                        #
                  #######################################################


                         Program Version 5.0.3 -  RELEASE  -


 With contributions from (in alphabetic order):
   Daniel Aravena         : Magnetic Suceptibility
   Michael Atanasov       : Ab Initio Ligand Field Theory (pilot matlab implementation)
   Alexander A. Auer      : GIAO ZORA, VPT2 properties, NMR spectrum
   Ute Becker             : Parallelization
   Giovanni Bistoni       : ED, misc. LED, open-shell LED, HFLD
   Martin Brehm           : Molecular dynamics
   Dmytro Bykov           : SCF Hessian
   Vijay G. Chilkuri      : MRCI spin determinant printing, contributions to CSF-ICE
   Dipayan Datta          : RHF DLPNO-CCSD density
   Achintya Kumar Dutta   : EOM-CC, STEOM-CC
   Dmitry Ganyushin       : Spin-Orbit,Spin-Spin,Magnetic field MRCI
   Miquel Garcia          : C-PCM and meta-GGA Hessian, CC/C-PCM, Gaussian charge scheme
   Yang Guo               : DLPNO-NEVPT2, F12-NEVPT2, CIM, IAO-localization
   Andreas Hansen         : Spin unrestricted coupled pair/coupled cluster methods
   Benjamin Helmich-Paris : MC-RPA, TRAH-SCF, COSX integrals
   Lee Huntington         : MR-EOM, pCC
   Robert Izsak           : Overlap fitted RIJCOSX, COSX-SCS-MP3, EOM
   Marcus Kettner         : VPT2
   Christian Kollmar      : KDIIS, OOCD, Brueckner-CCSD(T), CCSD density, CASPT2, CASPT2-K
   Simone Kossmann        : Meta GGA functionals, TD-DFT gradient, OOMP2, MP2 Hessian
   Martin Krupicka        : Initial AUTO-CI
   Lucas Lang             : DCDCAS
   Marvin Lechner         : AUTO-CI (C++ implementation), FIC-MRCC
   Dagmar Lenk            : GEPOL surface, SMD
   Dimitrios Liakos       : Extrapolation schemes; Compound Job, initial MDCI parallelization
   Dimitrios Manganas     : Further ROCIS development; embedding schemes
   Dimitrios Pantazis     : SARC Basis sets
   Anastasios Papadopoulos: AUTO-CI, single reference methods and gradients
   Taras Petrenko         : DFT Hessian,TD-DFT gradient, ASA, ECA, R-Raman, ABS, FL, XAS/XES, NRVS
   Peter Pinski           : DLPNO-MP2, DLPNO-MP2 Gradient
   Christoph Reimann      : Effective Core Potentials
   Marius Retegan         : Local ZFS, SOC
   Christoph Riplinger    : Optimizer, TS searches, QM/MM, DLPNO-CCSD(T), (RO)-DLPNO pert. Triples
   Tobias Risthaus        : Range-separated hybrids, TD-DFT gradient, RPA, STAB
   Michael Roemelt        : Original ROCIS implementation
   Masaaki Saitow         : Open-shell DLPNO-CCSD energy and density
   Barbara Sandhoefer     : DKH picture change effects
   Avijit Sen             : IP-ROCIS
   Kantharuban Sivalingam : CASSCF convergence, NEVPT2, FIC-MRCI
   Bernardo de Souza      : ESD, SOC TD-DFT
   Georgi Stoychev        : AutoAux, RI-MP2 NMR, DLPNO-MP2 response
   Willem Van den Heuvel  : Paramagnetic NMR
   Boris Wezisla          : Elementary symmetry handling
   Frank Wennmohs         : Technical directorship


 We gratefully acknowledge several colleagues who have allowed us to
 interface, adapt or use parts of their codes:
   Stefan Grimme, W. Hujo, H. Kruse, P. Pracht,  : VdW corrections, initial TS optimization,
                  C. Bannwarth, S. Ehlert          DFT functionals, gCP, sTDA/sTD-DF
   Ed Valeev, F. Pavosevic, A. Kumar             : LibInt (2-el integral package), F12 methods
   Garnet Chan, S. Sharma, J. Yang, R. Olivares  : DMRG
   Ulf Ekstrom                                   : XCFun DFT Library
   Mihaly Kallay                                 : mrcc  (arbitrary order and MRCC methods)
   Jiri Pittner, Ondrej Demel                    : Mk-CCSD
   Frank Weinhold                                : gennbo (NPA and NBO analysis)
   Christopher J. Cramer and Donald G. Truhlar   : smd solvation model
   Lars Goerigk                                  : TD-DFT with DH, B97 family of functionals
   V. Asgeirsson, H. Jonsson                     : NEB implementation
   FAccTs GmbH                                   : IRC, NEB, NEB-TS, DLPNO-Multilevel, CI-OPT
                                                   MM, QMMM, 2- and 3-layer-ONIOM, Crystal-QMMM,
                                                   LR-CPCM, SF, NACMEs, symmetry and pop. for TD-DFT,
                                                   nearIR, NL-DFT gradient (VV10), updates on ESD,
                                                   ML-optimized integration grids
   S Lehtola, MJT Oliveira, MAL Marques          : LibXC Library
   Liviu Ungur et al                             : ANISO software


 Your calculation uses the libint2 library for the computation of 2-el integrals
 For citations please refer to: http://libint.valeyev.net

 Your ORCA version has been built with support for libXC version: 5.1.0
 For citations please refer to: https://tddft.org/programs/libxc/

 This ORCA versions uses:
   CBLAS   interface :  Fast vector & matrix operations
   LAPACKE interface :  Fast linear algebra routines
   SCALAPACK package :  Parallel linear algebra routines
   Shared memory     :  Shared parallel matrices
   BLAS/LAPACK       :  OpenBLAS 0.3.15  USE64BITINT DYNAMIC_ARCH NO_AFFINITY Haswell SINGLE_THREADED
        Core in use  :  Haswell
   Copyright (c) 2011-2014, The OpenBLAS Project




***************************************
The coordinates will be read from file: H3OpH2O.xyz
***************************************


Your calculation utilizes the geometrical counterpoise correction gCP
Please cite in your paper:
H.Kruse, S. Grimme J.Chem.Phys., 136, (2012), 154101 
   

Your calculation utilizes the atom-pairwise dispersion correction
with the Becke-Johnson damping scheme (D3BJ)
Cite in your paper:
S.Grimme, S.Ehrlich, L.Goerigk, J Comput Chem, (2011), 32, 1456–1465 
S.Grimme, J.Antony, S.Ehrlich and H.Krieg, J.Chem.Phys., 132, (2010), 154104 
   

Your calculation employs the composite approach PBEh-3c.
Please cite in your paper:
S. Grimme, J. G. Brandenburg, C. Bannwarth, A. Hansen J.Chem.Phys., 143, (2015), 054107 
   

================================================================================

----- Orbital basis set information -----
Your calculation utilizes the basis: def2-mSVP

----- AuxJ basis set information -----
Your calculation utilizes the auxiliary basis: def2/J
   F. Weigend, Phys. Chem. Chem. Phys. 8, 1057 (2006).

================================================================================
                                        WARNINGS
                       Please study these warnings very carefully!
================================================================================


INFO   : the flag for use of the SHARK integral package has been found!

================================================================================
                                       INPUT FILE
================================================================================
NAME = pbeh-3c.inp
|  1> ! PBEh-3c def2/J TightSCF DefGrid3
|  2> 
|  3> %maxcore 60000
|  4> 
|  5> %pal
|  6> nprocs 4
|  7> end
|  8> 
|  9> *xyzfile 1 1 H3OpH2O.xyz
| 10> 
| 11>                          ****END OF INPUT****
================================================================================

                       ****************************
                       * Single Point Calculation *
                       ****************************

---------------------------------
CARTESIAN COORDINATES (ANGSTROEM)
---------------------------------
  O     -1.199728    0.029020    0.115747
  H     -1.631424   -0.733320    0.528407
  H     -1.694002    0.295624   -0.672423
  O      1.199728   -0.029020    0.115747
  H      0.000000    0.000000    0.056538
  H      1.694002   -0.295624   -0.672423
  H      1.631424    0.733320    0.528407

----------------------------
CARTESIAN COORDINATES (A.U.)
----------------------------
  NO LB      ZA    FRAG     MASS         X           Y           Z
   0 O     8.0000    0    15.999   -2.267158    0.054840    0.218730
   1 H     1.0000    0     1.008   -3.082945   -1.385774    0.998544
   2 H     1.0000    0     1.008   -3.201199    0.558648   -1.270694
   3 O     8.0000    0    15.999    2.267158   -0.054840    0.218730
   4 H     1.0000    0     1.008    0.000000    0.000000    0.106841
   5 H     1.0000    0     1.008    3.201199   -0.558648   -1.270694
   6 H     1.0000    0     1.008    3.082945    1.385774    0.998544

--------------------------------
INTERNAL COORDINATES (ANGSTROEM)
--------------------------------
 O      0   0   0     0.000000000000     0.00000000     0.00000000
 H      1   0   0     0.968406719801     0.00000000     0.00000000
 H      1   2   0     0.967778372666   109.64711836     0.00000000
 O      1   2   3     2.400158061573   115.25281001   219.13617375
 H      1   2   3     1.201538757517   116.55733308   221.92142729
 H      4   1   2     0.967778372666   121.14745921   100.20873646
 H      4   1   2     0.968406719801   115.25281001   236.21764271

---------------------------
INTERNAL COORDINATES (A.U.)
---------------------------
 O      0   0   0     0.000000000000     0.00000000     0.00000000
 H      1   0   0     1.830023486673     0.00000000     0.00000000
 H      1   2   0     1.828836082670   109.64711836     0.00000000
 O      1   2   3     4.535641414497   115.25281001   219.13617375
 H      1   2   3     2.270579190998   116.55733308   221.92142729
 H      4   1   2     1.828836082670   121.14745921   100.20873646
 H      4   1   2     1.830023486673   115.25281001   236.21764271

---------------------
BASIS SET INFORMATION
---------------------
There are 2 groups of distinct atoms

 Group   1 Type O   : 8s4p1d contracted to 4s2p1d pattern {5111/31/1}
 Group   2 Type H   : 4s contracted to 2s pattern {31}

Atom   0O    basis set group =>   1
Atom   1H    basis set group =>   2
Atom   2H    basis set group =>   2
Atom   3O    basis set group =>   1
Atom   4H    basis set group =>   2
Atom   5H    basis set group =>   2
Atom   6H    basis set group =>   2
---------------------------------
AUXILIARY/J BASIS SET INFORMATION
---------------------------------
There are 2 groups of distinct atoms

 Group   1 Type O   : 12s5p4d2f1g contracted to 6s4p3d1f1g pattern {711111/2111/211/2/1}
 Group   2 Type H   : 5s2p1d contracted to 3s1p1d pattern {311/2/1}

Atom   0O    basis set group =>   1
Atom   1H    basis set group =>   2
Atom   2H    basis set group =>   2
Atom   3O    basis set group =>   1
Atom   4H    basis set group =>   2
Atom   5H    basis set group =>   2
Atom   6H    basis set group =>   2


           ************************************************************
           *        Program running with 4 parallel MPI-processes     *
           *              working on a common directory               *
           ************************************************************
------------------------------------------------------------------------------
                           ORCA GTO INTEGRAL CALCULATION
                           -- RI-GTO INTEGRALS CHOSEN --
------------------------------------------------------------------------------
------------------------------------------------------------------------------
                   ___                                                        
                  /   \      - P O W E R E D   B Y -                         
                 /     \                                                     
                 |  |  |   _    _      __       _____    __    __             
                 |  |  |  | |  | |    /  \     |  _  \  |  |  /  |          
                  \  \/   | |  | |   /    \    | | | |  |  | /  /          
                 / \  \   | |__| |  /  /\  \   | |_| |  |  |/  /          
                |  |  |   |  __  | /  /__\  \  |    /   |      \           
                |  |  |   | |  | | |   __   |  |    \   |  |\   \          
                \     /   | |  | | |  |  |  |  | |\  \  |  | \   \       
                 \___/    |_|  |_| |__|  |__|  |_| \__\ |__|  \__/        
                                                                              
                      - O R C A' S   B I G   F R I E N D -                    
                                      &                                       
                       - I N T E G R A L  F E E D E R -                       
                                                                              
 v1 FN, 2020, v2 2021                                                         
------------------------------------------------------------------------------


Reading SHARK input file pbeh-3c.SHARKINP.tmp ... ok
----------------------
SHARK INTEGRAL PACKAGE
----------------------

Number of atoms                             ...      7
Number of basis functions                   ...     40
Number of shells                            ...     24
Maximum angular momentum                    ...      2
Integral batch strategy                     ... SHARK/LIBINT Hybrid
RI-J (if used) integral strategy            ... SPLIT-RIJ (Revised 2003 algorithm where possible)
Printlevel                                  ...      1
Contraction scheme used                     ... SEGMENTED contraction
Coulomb Range Separation                    ... NOT USED
Exchange Range Separation                   ... NOT USED
Finite Nucleus Model                        ... NOT USED
Auxiliary Coulomb fitting basis             ... AVAILABLE
   # of basis functions in Aux-J            ...    153
   # of shells in Aux-J                     ...     55
   Maximum angular momentum in Aux-J        ...      4
Auxiliary J/K fitting basis                 ... NOT available
Auxiliary Correlation fitting basis         ... NOT available
Auxiliary 'external' fitting basis          ... NOT available
Integral threshold                          ...     2.500000e-11
Primitive cut-off                           ...     2.500000e-12
Primitive pair pre-selection threshold      ...     2.500000e-12

Calculating pre-screening integrals         ... done (  0.1 sec) Dimension = 24
Organizing shell pair data                  ... done (  0.5 sec)
Shell pair information
Total number of shell pairs                 ...       300
Shell pairs after pre-screening             ...       296
Total number of primitive shell pairs       ...      1122
Primitive shell pairs kept                  ...       914
          la=0 lb=0:    167 shell pairs
          la=1 lb=0:     72 shell pairs
          la=1 lb=1:     10 shell pairs
          la=2 lb=0:     36 shell pairs
          la=2 lb=1:      8 shell pairs
          la=2 lb=2:      3 shell pairs

Calculating one electron integrals          ... done (  0.0 sec)
Calculating RI/J V-Matrix + Cholesky decomp.... done (  0.3 sec)
Calculating Nuclear repulsion               ... done (  0.0 sec) ENN=     46.735532027376 Eh

SHARK setup successfully completed in   2.7 seconds

Maximum memory used throughout the entire GTOINT-calculation: 9.0 MB


           ************************************************************
           *        Program running with 4 parallel MPI-processes     *
           *              working on a common directory               *
           ************************************************************
-------------------------------------------------------------------------------
                                 ORCA SCF
-------------------------------------------------------------------------------

------------
SCF SETTINGS
------------
Hamiltonian:
 Density Functional     Method          .... DFT(GTOs)
 Exchange Functional    Exchange        .... PBE
   PBE kappa parameter   XKappa         ....  1.024500
   PBE mue parameter    XMuePBE         ....  0.123457
 Correlation Functional Correlation     .... PBE
   PBE beta parameter  CBetaPBE         ....  0.030000
 LDA part of GGA corr.  LDAOpt          .... PW91-LDA
 Gradients option       PostSCFGGA      .... off
 Hybrid DFT is turned on
   Fraction HF Exchange ScalHFX         ....  0.420000
   Scaling of DF-GGA-X  ScalDFX         ....  0.580000
   Scaling of DF-GGA-C  ScalDFC         ....  1.000000
   Scaling of DF-LDA-C  ScalLDAC        ....  1.000000
   Perturbative correction              ....  0.000000
   Density functional embedding theory  .... OFF
 RI-approximation to the Coulomb term is turned on
   Number of AuxJ basis functions       .... 153
   RIJ-ON(X) (HFX calculated with O(N)) .... on
   Number of AuxJ basis functions       .... 153
   RIJ-COSX (HFX calculated with COS-X)).... on


General Settings:
 Integral files         IntName         .... pbeh-3c
 Hartree-Fock type      HFTyp           .... RHF
 Total Charge           Charge          ....    1
 Multiplicity           Mult            ....    1
 Number of Electrons    NEL             ....   20
 Basis Dimension        Dim             ....   40
 Nuclear Repulsion      ENuc            ....     46.7355320274 Eh

Convergence Acceleration:
 DIIS                   CNVDIIS         .... on
   Start iteration      DIISMaxIt       ....    12
   Startup error        DIISStart       ....  0.200000
   # of expansion vecs  DIISMaxEq       ....     5
   Bias factor          DIISBfac        ....   1.050
   Max. coefficient     DIISMaxC        ....  10.000
 Trust-Rad. Augm. Hess. CNVTRAH         .... auto
   Auto Start mean grad. ratio tolernc. ....  1.125000
   Auto Start start iteration           ....    20
   Auto Start num. interpolation iter.  ....    10
   Max. Number of Micro iterations      ....    16
   Max. Number of Macro iterations      .... Maxiter - #DIIS iter
   Number of Davidson start vectors     ....     2
   Converg. threshold I  (grad. norm)   ....   1.000e-05
   Converg. threshold II (energy diff.) ....   1.000e-08
   Grad. Scal. Fac. for Micro threshold ....   0.100
   Minimum threshold for Micro iter.    ....   0.010
   NR start threshold (gradient norm)   ....   0.001
   Initial trust radius                 ....   0.400
   Minimum AH scaling param. (alpha)    ....   1.000
   Maximum AH scaling param. (alpha)    .... 1000.000
   Orbital update algorithm             .... Taylor
   White noise on init. David. guess    .... on
   Maximum white noise                  ....   0.010
   Quad. conv. algorithm                .... NR
   COSX micro iterations for RIJONX calc.... off
 SOSCF                  CNVSOSCF        .... on
   Start iteration      SOSCFMaxIt      ....   150
   Startup grad/error   SOSCFStart      ....  0.003300
 Level Shifting         CNVShift        .... on
   Level shift para.    LevelShift      ....    0.2500
   Turn off err/grad.   ShiftErr        ....    0.0010
 Zerner damping         CNVZerner       .... off
 Static damping         CNVDamp         .... on
   Fraction old density DampFac         ....    0.7000
   Max. Damping (<1)    DampMax         ....    0.9800
   Min. Damping (>=0)   DampMin         ....    0.0000
   Turn off err/grad.   DampErr         ....    0.1000
 Fernandez-Rico         CNVRico         .... off

SCF Procedure:
 Maximum # iterations   MaxIter         ....   125
 SCF integral mode      SCFMode         .... Direct
   Integral package                     .... SHARK and LIBINT hybrid scheme
 Reset frequency        DirectResetFreq ....    20
 Integral Threshold     Thresh          ....  2.500e-11 Eh
 Primitive CutOff       TCut            ....  2.500e-12 Eh

Convergence Tolerance:
 Convergence Check Mode ConvCheckMode   .... Total+1el-Energy
 Convergence forced     ConvForced      .... 0
 Energy Change          TolE            ....  1.000e-08 Eh
 1-El. energy change                    ....  1.000e-05 Eh
 Orbital Gradient       TolG            ....  1.000e-05
 Orbital Rotation angle TolX            ....  1.000e-05
 DIIS Error             TolErr          ....  5.000e-07


Diagonalization of the overlap matrix:
Smallest eigenvalue                        ... 2.751e-02
Time for diagonalization                   ...    0.001 sec
Threshold for overlap eigenvalues          ... 1.000e-08
Number of eigenvalues below threshold      ... 0
Time for construction of square roots      ...    0.224 sec
Total time needed                          ...    0.240 sec

--------------------------------
INITIAL GUESS: MINIMAL BASIS EHT
--------------------------------
The minimal basis has 15 functions
EHT matrix was diagonalized
Basis set overlap was calculated now projecting the orbitals
Using GuessMode=FMatrix for the initial guess
C*T matrix was formed
Effective Fockian was calculated
Effective Fockian was diagonalized
Initial density was built
                      ------------------
                      INITIAL GUESS DONE
                      ------------------
-------------------
DFT GRID GENERATION
-------------------

General Integration Accuracy     IntAcc      ... 4.959
Radial Grid Type                 RadialGrid  ... OptM3 with GC (2021)
Angular Grid (max. ang.)         AngularGrid ... 6 (Lebedev-590)
Angular grid pruning method      GridPruning ... 4 (adaptive)
Weight generation scheme         WeightScheme... Becke
Basis function cutoff            BFCut       ... 1.0000e-11
Integration weight cutoff        WCut        ... 1.0000e-14
Angular grids for H and He will be reduced by one unit
Partially contracted basis set               ... off
Rotationally invariant grid construction     ... off

Total number of grid points                  ...    74024
Total number of batches                      ...     1161
Average number of points per batch           ...       63
Average number of grid points per atom       ...    10575
Time for grid setup =    2.282 sec

--------------------
COSX GRID GENERATION
--------------------

GRIDX 1
-------
General Integration Accuracy     IntAcc      ... 4.020
Radial Grid Type                 RadialGrid  ... OptM3 with GC (2021)
Angular Grid (max. ang.)         AngularGrid ... 2 (Lebedev-110)
Angular grid pruning method      GridPruning ... 4 (adaptive)
Weight generation scheme         WeightScheme... Becke
Basis function cutoff            BFCut       ... 1.0000e-11
Integration weight cutoff        WCut        ... 1.0000e-14
Angular grids for H and He will be reduced by one unit
Partially contracted basis set               ... on
Rotationally invariant grid construction     ... off

Total number of grid points                  ...     7706
Total number of batches                      ...      123
Average number of points per batch           ...       62
Average number of grid points per atom       ...     1101
UseSFitting                                  ... on

GRIDX 2
-------
General Integration Accuracy     IntAcc      ... 4.338
Radial Grid Type                 RadialGrid  ... OptM3 with GC (2021)
Angular Grid (max. ang.)         AngularGrid ... 3 (Lebedev-194)
Angular grid pruning method      GridPruning ... 4 (adaptive)
Weight generation scheme         WeightScheme... Becke
Basis function cutoff            BFCut       ... 1.0000e-11
Integration weight cutoff        WCut        ... 1.0000e-14
Angular grids for H and He will be reduced by one unit
Partially contracted basis set               ... on
Rotationally invariant grid construction     ... off

Total number of grid points                  ...    16970
Total number of batches                      ...      269
Average number of points per batch           ...       63
Average number of grid points per atom       ...     2424
UseSFitting                                  ... on

GRIDX 3
-------
General Integration Accuracy     IntAcc      ... 4.871
Radial Grid Type                 RadialGrid  ... OptM3 with GC (2021)
Angular Grid (max. ang.)         AngularGrid ... 4 (Lebedev-302)
Angular grid pruning method      GridPruning ... 4 (adaptive)
Weight generation scheme         WeightScheme... Becke
Basis function cutoff            BFCut       ... 1.0000e-11
Integration weight cutoff        WCut        ... 1.0000e-14
Angular grids for H and He will be reduced by one unit
Partially contracted basis set               ... on
Rotationally invariant grid construction     ... off

Total number of grid points                  ...    34668
Total number of batches                      ...      546
Average number of points per batch           ...       63
Average number of grid points per atom       ...     4953
UseSFitting                                  ... on

Time for X-Grid setup             =    2.260 sec

--------------
SCF ITERATIONS
--------------
ITER       Energy         Delta-E        Max-DP      RMS-DP      [F,P]     Damp
               ***  Starting incremental Fock matrix formation  ***
  0   -152.6044785901   0.000000000000 0.08143469  0.00672956  0.2650809 0.7000
  1   -152.6876389898  -0.083160399721 0.04688904  0.00425472  0.1721674 0.7000
                               ***Turning on DIIS***
  2   -152.7405991740  -0.052960184215 0.02747196  0.00275809  0.1132739 0.7000
  3   -152.7778771194  -0.037277945340 0.07407844  0.00645094  0.0765473 0.0000
  4   -152.8694876667  -0.091610547324 0.01161120  0.00102707  0.0133800 0.0000
  5   -152.8700006701  -0.000513003368 0.00260091  0.00027303  0.0061456 0.0000
                      *** Initiating the SOSCF procedure ***
                           *** Shutting down DIIS ***
                      *** Re-Reading the Fockian *** 
                      *** Removing any level shift *** 
ITER      Energy       Delta-E        Grad      Rot      Max-DP    RMS-DP
  6   -152.87011508  -0.0001144100  0.000957  0.000957  0.001254  0.000122
               *** Restarting incremental Fock matrix formation ***
  7   -152.87016424  -0.0000491630  0.000347  0.000624  0.000544  0.000055
  8   -152.87016533  -0.0000010868  0.000077  0.000189  0.000148  0.000016
  9   -152.87016539  -0.0000000606  0.000021  0.000015  0.000035  0.000003
 10   -152.87016539  -0.0000000023  0.000013  0.000010  0.000014  0.000001
                 **** Energy Check signals convergence ****
              ***Rediagonalizing the Fockian in SOSCF/NRSCF***

               *****************************************************
               *                     SUCCESS                       *
               *           SCF CONVERGED AFTER  11 CYCLES          *
               *****************************************************

Old exchange energy                            =     -7.541197617 Eh
New exchange energy                            =     -7.541200225 Eh
Exchange energy change after final integration =     -0.000002608 Eh
Total energy after final integration           =   -152.870168002 Eh
Final COS-X integration done in                =     0.783 sec

----------------
TOTAL SCF ENERGY
----------------

Total Energy       :         -152.87016800 Eh           -4159.80875 eV

Components:
Nuclear Repulsion  :           46.73553203 Eh            1271.73848 eV
Electronic Energy  :         -199.60570003 Eh           -5431.54723 eV
One Electron Energy:         -297.11671585 Eh           -8084.95687 eV
Two Electron Energy:           97.51101582 Eh            2653.40964 eV
Max COSX asymmetry :            0.00000060 Eh               0.00002 eV

Virial components:
Potential Energy   :         -304.79610085 Eh           -8293.92356 eV
Kinetic Energy     :          151.92593284 Eh            4134.11481 eV
Virial Ratio       :            2.00621510


DFT components:
N(Alpha)           :        9.999999866761 electrons
N(Beta)            :        9.999999866761 electrons
N(Total)           :       19.999999733522 electrons
E(X)               :      -10.053447507645 Eh       
E(C)               :       -0.891646922492 Eh       
E(XC)              :      -10.945094430137 Eh       
DFET-embed. en.    :        0.000000000000 Eh       

---------------
SCF CONVERGENCE
---------------

  Last Energy change         ...   -1.0805e-09  Tolerance :   1.0000e-08
  Last MAX-Density change    ...    7.7716e-16  Tolerance :   1.0000e-07
  Last RMS-Density change    ...    5.9966e-17  Tolerance :   5.0000e-09
  Last Orbital Gradient      ...    1.0559e-06  Tolerance :   1.0000e-05
  Last Orbital Rotation      ...    5.4153e-07  Tolerance :   1.0000e-05

             **** THE GBW FILE WAS UPDATED (pbeh-3c.gbw) ****
             **** DENSITY pbeh-3c.scfp WAS UPDATED ****
             **** ENERGY FILE WAS UPDATED (pbeh-3c.en.tmp) ****
             **** THE GBW FILE WAS UPDATED (pbeh-3c.gbw) ****
             **** DENSITY pbeh-3c.scfp WAS UPDATED ****
----------------
ORBITAL ENERGIES
----------------

  NO   OCC          E(Eh)            E(eV) 
   0   2.0000     -19.790407      -538.5243 
   1   2.0000     -19.790297      -538.5214 
   2   2.0000      -1.433453       -39.0062 
   3   2.0000      -1.403450       -38.1898 
   4   2.0000      -0.910706       -24.7816 
   5   2.0000      -0.888434       -24.1755 
   6   2.0000      -0.887515       -24.1505 
   7   2.0000      -0.738997       -20.1091 
   8   2.0000      -0.681466       -18.5436 
   9   2.0000      -0.666374       -18.1330 
  10   0.0000      -0.126212        -3.4344 
  11   0.0000      -0.084886        -2.3099 
  12   0.0000      -0.027750        -0.7551 
  13   0.0000      -0.023924        -0.6510 
  14   0.0000       0.107331         2.9206 
  15   0.0000       0.531061        14.4509 
  16   0.0000       0.564983        15.3740 
  17   0.0000       0.576544        15.6886 
  18   0.0000       0.687356        18.7039 
  19   0.0000       0.696600        18.9554 
  20   0.0000       0.723805        19.6957 
  21   0.0000       0.736747        20.0479 
  22   0.0000       0.886042        24.1104 
  23   0.0000       0.901886        24.5416 
  24   0.0000       0.938289        25.5322 
  25   0.0000       0.966670        26.3044 
  26   0.0000       1.468586        39.9623 
  27   0.0000       1.471747        40.0483 
  28   0.0000       1.473290        40.0903 
  29   0.0000       1.495160        40.6854 
  30   0.0000       1.496613        40.7249 
  31   0.0000       1.613097        43.8946 
  32   0.0000       1.631119        44.3850 
  33   0.0000       2.111014        57.4436 
  34   0.0000       2.155684        58.6591 
  35   0.0000       2.357699        64.1562 
  36   0.0000       2.361135        64.2498 
  37   0.0000       2.650135        72.1138 
  38   0.0000      24.982063       679.7965 
  39   0.0000      25.283344       687.9948 

                    ********************************
                    * MULLIKEN POPULATION ANALYSIS *
                    ********************************

-----------------------
MULLIKEN ATOMIC CHARGES
-----------------------
   0 O :   -0.804727
   1 H :    0.517239
   2 H :    0.514360
   3 O :   -0.804727
   4 H :    0.546258
   5 H :    0.514360
   6 H :    0.517239
Sum of atomic charges:    1.0000000

--------------------------------
MULLIKEN REDUCED ORBITAL CHARGES
--------------------------------
  0 O s       :     3.798589  s :     3.798589
      pz      :     1.639695  p :     4.985728
      px      :     1.638089
      py      :     1.707945
      dz2     :     0.004379  d :     0.020409
      dxz     :     0.006039
      dyz     :     0.002356
      dx2y2   :     0.003123
      dxy     :     0.004513
  1 H s       :     0.482761  s :     0.482761
  2 H s       :     0.485640  s :     0.485640
  3 O s       :     3.798589  s :     3.798589
      pz      :     1.639695  p :     4.985728
      px      :     1.638089
      py      :     1.707945
      dz2     :     0.004379  d :     0.020409
      dxz     :     0.006039
      dyz     :     0.002356
      dx2y2   :     0.003123
      dxy     :     0.004513
  4 H s       :     0.453742  s :     0.453742
  5 H s       :     0.485640  s :     0.485640
  6 H s       :     0.482761  s :     0.482761


                     *******************************
                     * LOEWDIN POPULATION ANALYSIS *
                     *******************************

----------------------
LOEWDIN ATOMIC CHARGES
----------------------
   0 O :   -0.442296
   1 H :    0.377095
   2 H :    0.374339
   3 O :   -0.442296
   4 H :    0.381724
   5 H :    0.374339
   6 H :    0.377095

-------------------------------
LOEWDIN REDUCED ORBITAL CHARGES
-------------------------------
  0 O s       :     3.506066  s :     3.506066
      pz      :     1.617812  p :     4.907824
      px      :     1.599894
      py      :     1.690118
      dz2     :     0.005942  d :     0.028406
      dxz     :     0.008113
      dyz     :     0.002854
      dx2y2   :     0.005665
      dxy     :     0.005833
  1 H s       :     0.622905  s :     0.622905
  2 H s       :     0.625661  s :     0.625661
  3 O s       :     3.506066  s :     3.506066
      pz      :     1.617812  p :     4.907824
      px      :     1.599894
      py      :     1.690118
      dz2     :     0.005942  d :     0.028406
      dxz     :     0.008113
      dyz     :     0.002854
      dx2y2   :     0.005665
      dxy     :     0.005833
  4 H s       :     0.618276  s :     0.618276
  5 H s       :     0.625661  s :     0.625661
  6 H s       :     0.622905  s :     0.622905


                      *****************************
                      * MAYER POPULATION ANALYSIS *
                      *****************************

  NA   - Mulliken gross atomic population
  ZA   - Total nuclear charge
  QA   - Mulliken gross atomic charge
  VA   - Mayer's total valence
  BVA  - Mayer's bonded valence
  FA   - Mayer's free valence

  ATOM       NA         ZA         QA         VA         BVA        FA
  0 O      8.8047     8.0000    -0.8047     1.8080     1.8080    -0.0000
  1 H      0.4828     1.0000     0.5172     0.7213     0.7213    -0.0000
  2 H      0.4856     1.0000     0.5144     0.7242     0.7242    -0.0000
  3 O      8.8047     8.0000    -0.8047     1.8080     1.8080    -0.0000
  4 H      0.4537     1.0000     0.5463     0.7023     0.7023    -0.0000
  5 H      0.4856     1.0000     0.5144     0.7242     0.7242    -0.0000
  6 H      0.4828     1.0000     0.5172     0.7213     0.7213     0.0000

  Mayer bond orders larger than 0.100000
B(  0-O ,  1-H ) :   0.7172 B(  0-O ,  2-H ) :   0.7197 B(  0-O ,  4-H ) :   0.3479 
B(  3-O ,  4-H ) :   0.3479 B(  3-O ,  5-H ) :   0.7197 B(  3-O ,  6-H ) :   0.7172 


-------
TIMINGS
-------

Total SCF time: 0 days 0 hours 0 min 49 sec 

Total time                  ....      49.282 sec
Sum of individual times     ....      43.186 sec  ( 87.6%)

Fock matrix formation       ....      34.424 sec  ( 69.9%)
  Split-RI-J                ....       4.940 sec  ( 14.4% of F)
  Chain of spheres X        ....       5.404 sec  ( 15.7% of F)
  XC integration            ....       8.792 sec  ( 25.5% of F)
    Basis function eval.    ....       0.617 sec  (  7.0% of XC)
    Density eval.           ....       0.346 sec  (  3.9% of XC)
    XC-Functional eval.     ....       0.665 sec  (  7.6% of XC)
    XC-Potential eval.      ....       0.129 sec  (  1.5% of XC)
Diagonalization             ....       0.284 sec  (  0.6%)
Density matrix formation    ....       0.034 sec  (  0.1%)
Population analysis         ....       0.510 sec  (  1.0%)
Initial guess               ....       0.002 sec  (  0.0%)
Orbital Transformation      ....       0.000 sec  (  0.0%)
Orbital Orthonormalization  ....       0.000 sec  (  0.0%)
DIIS solution               ....       3.050 sec  (  6.2%)
SOSCF solution              ....       0.340 sec  (  0.7%)
Grid generation             ....       4.542 sec  (  9.2%)

Maximum memory used throughout the entire SCF-calculation: 45.3 MB


-------------------------------------------------------------------------------
                          DFT DISPERSION CORRECTION                            
                                                                               
                              DFTD3 V3.1  Rev 1                                
                          USING Becke-Johnson damping                          
-------------------------------------------------------------------------------
The PBEh-3c composite method is recognized
Using three-body term ABC
Active option DFTDOPT                   ...         4   

molecular C6(AA) [au] = 226.788806 


            DFT-D V3
 parameters
 s6 scaling factor         :     1.0000 
 a1 scaling factor         :     0.4860 
 s8 scaling factor         :     0.0000 
 a2 scaling factor         :     4.5000 
 Damping factor alpha9(ATM):    16.0000 
 ad hoc parameters k1-k3   :    16.0000     1.3333    -4.0000 

 Edisp/kcal,au: -0.743849877071  -0.001185400107 
 E6   /kcal   :  -0.744155071 
 E8   /kcal   :  -0.000000000 
 E6(ABC)      :   0.000305194 
 % E8         :   0.000000000 
 % E6(ABC)    :  -0.041028939 

-------------------------   ----------------
Dispersion correction           -0.001185400
-------------------------   ----------------

------------------   -----------------
gCP correction             0.009380818
------------------   -----------------

-------------------------   --------------------
FINAL SINGLE POINT ENERGY      -152.861972583827
-------------------------   --------------------


                            ***************************************
                            *     ORCA property calculations      *
                            ***************************************

                                    ---------------------
                                    Active property flags
                                    ---------------------
   (+) Dipole Moment


------------------------------------------------------------------------------
                       ORCA ELECTRIC PROPERTIES CALCULATION
------------------------------------------------------------------------------

Dipole Moment Calculation                       ... on
Quadrupole Moment Calculation                   ... off
Polarizability Calculation                      ... off
GBWName                                         ... pbeh-3c.gbw
Electron density                                ... pbeh-3c.scfp
The origin for moment calculation is the CENTER OF MASS  = ( 0.000000,  0.000000  0.177060)

-------------
DIPOLE MOMENT
-------------
                                X             Y             Z
Electronic contribution:      0.00000      -0.00000      -0.00666
Nuclear contribution   :     -0.00000       0.00000      -0.65605
                        -----------------------------------------
Total Dipole Moment    :      0.00000      -0.00000      -0.66270
                        -----------------------------------------
Magnitude (a.u.)       :      0.66270
Magnitude (Debye)      :      1.68446



--------------------
Rotational spectrum 
--------------------
 
Rotational constants in cm-1:     5.879984     0.288193     0.286744 
Rotational constants in MHz : 176277.487916  8639.797503  8596.382409 

 Dipole components along the rotational axes: 
x,y,z [a.u.] :    -0.000000    -0.662705    -0.000000 
x,y,z [Debye]:    -0.000000    -1.684461    -0.000000 

 

Timings for individual modules:

Sum of individual times         ...       53.561 sec (=   0.893 min)
GTO integral calculation        ...        3.386 sec (=   0.056 min)   6.3 %
SCF iterations                  ...       50.174 sec (=   0.836 min)  93.7 %
                             ****ORCA TERMINATED NORMALLY****
TOTAL RUN TIME: 0 days 0 hours 0 minutes 56 seconds 778 msec
