
                                 *****************
                                 * O   R   C   A *
                                 *****************

                                            #,                                       
                                            ###                                      
                                            ####                                     
                                            #####                                    
                                            ######                                   
                                           ########,                                 
                                     ,,################,,,,,                         
                               ,,#################################,,                 
                          ,,##########################################,,             
                       ,#########################################, ''#####,          
                    ,#############################################,,   '####,        
                  ,##################################################,,,,####,       
                ,###########''''           ''''###############################       
              ,#####''   ,,,,##########,,,,          '''####'''          '####       
            ,##' ,,,,###########################,,,                        '##       
           ' ,,###''''                  '''############,,,                           
         ,,##''                                '''############,,,,        ,,,,,,###''
      ,#''                                            '''#######################'''  
     '                                                          ''''####''''         
             ,#######,   #######,   ,#######,      ##                                
            ,#'     '#,  ##    ##  ,#'     '#,    #''#        ######   ,####,        
            ##       ##  ##   ,#'  ##            #'  '#       #        #'  '#        
            ##       ##  #######   ##           ,######,      #####,   #    #        
            '#,     ,#'  ##    ##  '#,     ,#' ,#      #,         ##   #,  ,#        
             '#######'   ##     ##  '#######'  #'      '#     #####' # '####'        



                  #######################################################
                  #                        -***-                        #
                  #          Department of theory and spectroscopy      #
                  #    Directorship and core code : Frank Neese         #
                  #        Max Planck Institute fuer Kohlenforschung    #
                  #                Kaiser Wilhelm Platz 1               #
                  #                 D-45470 Muelheim/Ruhr               #
                  #                      Germany                        #
                  #                                                     #
                  #                  All rights reserved                #
                  #                        -***-                        #
                  #######################################################


                         Program Version 5.0.3 -  RELEASE  -


 With contributions from (in alphabetic order):
   Daniel Aravena         : Magnetic Suceptibility
   Michael Atanasov       : Ab Initio Ligand Field Theory (pilot matlab implementation)
   Alexander A. Auer      : GIAO ZORA, VPT2 properties, NMR spectrum
   Ute Becker             : Parallelization
   Giovanni Bistoni       : ED, misc. LED, open-shell LED, HFLD
   Martin Brehm           : Molecular dynamics
   Dmytro Bykov           : SCF Hessian
   Vijay G. Chilkuri      : MRCI spin determinant printing, contributions to CSF-ICE
   Dipayan Datta          : RHF DLPNO-CCSD density
   Achintya Kumar Dutta   : EOM-CC, STEOM-CC
   Dmitry Ganyushin       : Spin-Orbit,Spin-Spin,Magnetic field MRCI
   Miquel Garcia          : C-PCM and meta-GGA Hessian, CC/C-PCM, Gaussian charge scheme
   Yang Guo               : DLPNO-NEVPT2, F12-NEVPT2, CIM, IAO-localization
   Andreas Hansen         : Spin unrestricted coupled pair/coupled cluster methods
   Benjamin Helmich-Paris : MC-RPA, TRAH-SCF, COSX integrals
   Lee Huntington         : MR-EOM, pCC
   Robert Izsak           : Overlap fitted RIJCOSX, COSX-SCS-MP3, EOM
   Marcus Kettner         : VPT2
   Christian Kollmar      : KDIIS, OOCD, Brueckner-CCSD(T), CCSD density, CASPT2, CASPT2-K
   Simone Kossmann        : Meta GGA functionals, TD-DFT gradient, OOMP2, MP2 Hessian
   Martin Krupicka        : Initial AUTO-CI
   Lucas Lang             : DCDCAS
   Marvin Lechner         : AUTO-CI (C++ implementation), FIC-MRCC
   Dagmar Lenk            : GEPOL surface, SMD
   Dimitrios Liakos       : Extrapolation schemes; Compound Job, initial MDCI parallelization
   Dimitrios Manganas     : Further ROCIS development; embedding schemes
   Dimitrios Pantazis     : SARC Basis sets
   Anastasios Papadopoulos: AUTO-CI, single reference methods and gradients
   Taras Petrenko         : DFT Hessian,TD-DFT gradient, ASA, ECA, R-Raman, ABS, FL, XAS/XES, NRVS
   Peter Pinski           : DLPNO-MP2, DLPNO-MP2 Gradient
   Christoph Reimann      : Effective Core Potentials
   Marius Retegan         : Local ZFS, SOC
   Christoph Riplinger    : Optimizer, TS searches, QM/MM, DLPNO-CCSD(T), (RO)-DLPNO pert. Triples
   Tobias Risthaus        : Range-separated hybrids, TD-DFT gradient, RPA, STAB
   Michael Roemelt        : Original ROCIS implementation
   Masaaki Saitow         : Open-shell DLPNO-CCSD energy and density
   Barbara Sandhoefer     : DKH picture change effects
   Avijit Sen             : IP-ROCIS
   Kantharuban Sivalingam : CASSCF convergence, NEVPT2, FIC-MRCI
   Bernardo de Souza      : ESD, SOC TD-DFT
   Georgi Stoychev        : AutoAux, RI-MP2 NMR, DLPNO-MP2 response
   Willem Van den Heuvel  : Paramagnetic NMR
   Boris Wezisla          : Elementary symmetry handling
   Frank Wennmohs         : Technical directorship


 We gratefully acknowledge several colleagues who have allowed us to
 interface, adapt or use parts of their codes:
   Stefan Grimme, W. Hujo, H. Kruse, P. Pracht,  : VdW corrections, initial TS optimization,
                  C. Bannwarth, S. Ehlert          DFT functionals, gCP, sTDA/sTD-DF
   Ed Valeev, F. Pavosevic, A. Kumar             : LibInt (2-el integral package), F12 methods
   Garnet Chan, S. Sharma, J. Yang, R. Olivares  : DMRG
   Ulf Ekstrom                                   : XCFun DFT Library
   Mihaly Kallay                                 : mrcc  (arbitrary order and MRCC methods)
   Jiri Pittner, Ondrej Demel                    : Mk-CCSD
   Frank Weinhold                                : gennbo (NPA and NBO analysis)
   Christopher J. Cramer and Donald G. Truhlar   : smd solvation model
   Lars Goerigk                                  : TD-DFT with DH, B97 family of functionals
   V. Asgeirsson, H. Jonsson                     : NEB implementation
   FAccTs GmbH                                   : IRC, NEB, NEB-TS, DLPNO-Multilevel, CI-OPT
                                                   MM, QMMM, 2- and 3-layer-ONIOM, Crystal-QMMM,
                                                   LR-CPCM, SF, NACMEs, symmetry and pop. for TD-DFT,
                                                   nearIR, NL-DFT gradient (VV10), updates on ESD,
                                                   ML-optimized integration grids
   S Lehtola, MJT Oliveira, MAL Marques          : LibXC Library
   Liviu Ungur et al                             : ANISO software


 Your calculation uses the libint2 library for the computation of 2-el integrals
 For citations please refer to: http://libint.valeyev.net

 Your ORCA version has been built with support for libXC version: 5.1.0
 For citations please refer to: https://tddft.org/programs/libxc/

 This ORCA versions uses:
   CBLAS   interface :  Fast vector & matrix operations
   LAPACKE interface :  Fast linear algebra routines
   SCALAPACK package :  Parallel linear algebra routines
   Shared memory     :  Shared parallel matrices
   BLAS/LAPACK       :  OpenBLAS 0.3.15  USE64BITINT DYNAMIC_ARCH NO_AFFINITY Haswell SINGLE_THREADED
        Core in use  :  Haswell
   Copyright (c) 2011-2014, The OpenBLAS Project




***************************************
The coordinates will be read from file: P13.xyz
***************************************


Your calculation utilizes the geometrical counterpoise correction gCP
Please cite in your paper:
H.Kruse, S. Grimme J.Chem.Phys., 136, (2012), 154101 
   

Your calculation utilizes the atom-pairwise dispersion correction
with the Becke-Johnson damping scheme (D3BJ)
Cite in your paper:
S.Grimme, S.Ehrlich, L.Goerigk, J Comput Chem, (2011), 32, 1456–1465 
S.Grimme, J.Antony, S.Ehrlich and H.Krieg, J.Chem.Phys., 132, (2010), 154104 
   

Your calculation employs the composite approach PBEh-3c.
Please cite in your paper:
S. Grimme, J. G. Brandenburg, C. Bannwarth, A. Hansen J.Chem.Phys., 143, (2015), 054107 
   

================================================================================

----- Orbital basis set information -----
Your calculation utilizes the basis: def2-mSVP

----- AuxJ basis set information -----
Your calculation utilizes the auxiliary basis: def2/J
   F. Weigend, Phys. Chem. Chem. Phys. 8, 1057 (2006).

================================================================================
                                        WARNINGS
                       Please study these warnings very carefully!
================================================================================


INFO   : the flag for use of the SHARK integral package has been found!

================================================================================
                                       INPUT FILE
================================================================================
NAME = pbeh-3c.inp
|  1> ! PBEh-3c def2/J TightSCF DefGrid3
|  2> 
|  3> %maxcore 60000
|  4> 
|  5> %pal
|  6> nprocs 4
|  7> end
|  8> 
|  9> *xyzfile 0 1 P13.xyz
| 10> 
| 11>                          ****END OF INPUT****
================================================================================

                       ****************************
                       * Single Point Calculation *
                       ****************************

---------------------------------
CARTESIAN COORDINATES (ANGSTROEM)
---------------------------------
  C     -1.578452   -0.633192    0.373446
  C     -1.578452    0.633192   -0.373446
  C     -0.633192    1.578452   -0.373446
  C      0.633192    1.578452    0.373446
  C      1.578452    0.633192    0.373446
  C      1.578452   -0.633192   -0.373446
  C      0.633192   -1.578452   -0.373446
  C     -0.633192   -1.578452    0.373446
  H     -2.493158   -0.838829    0.925875
  H     -2.493158    0.838829   -0.925875
  H     -0.838829    2.493158   -0.925875
  H      0.838829    2.493158    0.925875
  H      2.493158    0.838829    0.925875
  H      2.493158   -0.838829   -0.925875
  H      0.838829   -2.493158   -0.925875
  H     -0.838829   -2.493158    0.925875

----------------------------
CARTESIAN COORDINATES (A.U.)
----------------------------
  NO LB      ZA    FRAG     MASS         X           Y           Z
   0 C     6.0000    0    12.011   -2.982841   -1.196559    0.705711
   1 C     6.0000    0    12.011   -2.982841    1.196559   -0.705711
   2 C     6.0000    0    12.011   -1.196559    2.982841   -0.705711
   3 C     6.0000    0    12.011    1.196559    2.982841    0.705711
   4 C     6.0000    0    12.011    2.982841    1.196559    0.705711
   5 C     6.0000    0    12.011    2.982841   -1.196559   -0.705711
   6 C     6.0000    0    12.011    1.196559   -2.982841   -0.705711
   7 C     6.0000    0    12.011   -1.196559   -2.982841    0.705711
   8 H     1.0000    0     1.008   -4.711385   -1.585157    1.749651
   9 H     1.0000    0     1.008   -4.711385    1.585157   -1.749651
  10 H     1.0000    0     1.008   -1.585157    4.711385   -1.749651
  11 H     1.0000    0     1.008    1.585157    4.711385    1.749651
  12 H     1.0000    0     1.008    4.711385    1.585157    1.749651
  13 H     1.0000    0     1.008    4.711385   -1.585157   -1.749651
  14 H     1.0000    0     1.008    1.585157   -4.711385   -1.749651
  15 H     1.0000    0     1.008   -1.585157   -4.711385    1.749651

--------------------------------
INTERNAL COORDINATES (ANGSTROEM)
--------------------------------
 C      0   0   0     0.000000000000     0.00000000     0.00000000
 C      1   0   0     1.470230180480     0.00000000     0.00000000
 C      2   1   0     1.336799087705   127.52206598     0.00000000
 C      3   2   1     1.470230180480   127.52206598     0.00000000
 C      4   3   2     1.336799087705   127.52206598    53.86212216
 C      5   4   3     1.470230180480   127.52206598     0.00000000
 C      6   5   4     1.336799087705   127.52206598   306.13787784
 C      1   2   3     1.336799087705   127.52206598   306.13787784
 H      1   2   3     1.088187297233   114.87677016   130.97185683
 H      2   1   3     1.088187297233   114.87677016   184.83397899
 H      3   2   1     1.088187297233   117.43581858   184.94146999
 H      4   3   2     1.088187297233   114.87677016   229.02814317
 H      5   4   3     1.088187297233   117.43581858   175.05853001
 H      6   5   4     1.088187297233   114.87677016   130.97185683
 H      7   6   5     1.088187297233   117.43581858   184.94146999
 H      8   1   2     1.088187297233   117.43581858   184.94146999

---------------------------
INTERNAL COORDINATES (A.U.)
---------------------------
 C      0   0   0     0.000000000000     0.00000000     0.00000000
 C      1   0   0     2.778332394933     0.00000000     0.00000000
 C      2   1   0     2.526184171838   127.52206598     0.00000000
 C      3   2   1     2.778332394933   127.52206598     0.00000000
 C      4   3   2     2.526184171838   127.52206598    53.86212216
 C      5   4   3     2.778332394933   127.52206598     0.00000000
 C      6   5   4     2.526184171838   127.52206598   306.13787784
 C      1   2   3     2.526184171838   127.52206598   306.13787784
 H      1   2   3     2.056375974182   114.87677016   130.97185683
 H      2   1   3     2.056375974182   114.87677016   184.83397899
 H      3   2   1     2.056375974182   117.43581858   184.94146999
 H      4   3   2     2.056375974182   114.87677016   229.02814317
 H      5   4   3     2.056375974182   117.43581858   175.05853001
 H      6   5   4     2.056375974182   114.87677016   130.97185683
 H      7   6   5     2.056375974182   117.43581858   184.94146999
 H      8   1   2     2.056375974182   117.43581858   184.94146999

---------------------
BASIS SET INFORMATION
---------------------
There are 2 groups of distinct atoms

 Group   1 Type C   : 8s4p1d contracted to 4s2p1d pattern {5111/31/1}
 Group   2 Type H   : 4s contracted to 2s pattern {31}

Atom   0C    basis set group =>   1
Atom   1C    basis set group =>   1
Atom   2C    basis set group =>   1
Atom   3C    basis set group =>   1
Atom   4C    basis set group =>   1
Atom   5C    basis set group =>   1
Atom   6C    basis set group =>   1
Atom   7C    basis set group =>   1
Atom   8H    basis set group =>   2
Atom   9H    basis set group =>   2
Atom  10H    basis set group =>   2
Atom  11H    basis set group =>   2
Atom  12H    basis set group =>   2
Atom  13H    basis set group =>   2
Atom  14H    basis set group =>   2
Atom  15H    basis set group =>   2
---------------------------------
AUXILIARY/J BASIS SET INFORMATION
---------------------------------
There are 2 groups of distinct atoms

 Group   1 Type C   : 12s5p4d2f1g contracted to 6s4p3d1f1g pattern {711111/2111/211/2/1}
 Group   2 Type H   : 5s2p1d contracted to 3s1p1d pattern {311/2/1}

Atom   0C    basis set group =>   1
Atom   1C    basis set group =>   1
Atom   2C    basis set group =>   1
Atom   3C    basis set group =>   1
Atom   4C    basis set group =>   1
Atom   5C    basis set group =>   1
Atom   6C    basis set group =>   1
Atom   7C    basis set group =>   1
Atom   8H    basis set group =>   2
Atom   9H    basis set group =>   2
Atom  10H    basis set group =>   2
Atom  11H    basis set group =>   2
Atom  12H    basis set group =>   2
Atom  13H    basis set group =>   2
Atom  14H    basis set group =>   2
Atom  15H    basis set group =>   2


           ************************************************************
           *        Program running with 4 parallel MPI-processes     *
           *              working on a common directory               *
           ************************************************************
------------------------------------------------------------------------------
                           ORCA GTO INTEGRAL CALCULATION
                           -- RI-GTO INTEGRALS CHOSEN --
------------------------------------------------------------------------------
------------------------------------------------------------------------------
                   ___                                                        
                  /   \      - P O W E R E D   B Y -                         
                 /     \                                                     
                 |  |  |   _    _      __       _____    __    __             
                 |  |  |  | |  | |    /  \     |  _  \  |  |  /  |          
                  \  \/   | |  | |   /    \    | | | |  |  | /  /          
                 / \  \   | |__| |  /  /\  \   | |_| |  |  |/  /          
                |  |  |   |  __  | /  /__\  \  |    /   |      \           
                |  |  |   | |  | | |   __   |  |    \   |  |\   \          
                \     /   | |  | | |  |  |  |  | |\  \  |  | \   \       
                 \___/    |_|  |_| |__|  |__|  |_| \__\ |__|  \__/        
                                                                              
                      - O R C A' S   B I G   F R I E N D -                    
                                      &                                       
                       - I N T E G R A L  F E E D E R -                       
                                                                              
 v1 FN, 2020, v2 2021                                                         
------------------------------------------------------------------------------


Reading SHARK input file pbeh-3c.SHARKINP.tmp ... ok
----------------------
SHARK INTEGRAL PACKAGE
----------------------

Number of atoms                             ...     16
Number of basis functions                   ...    136
Number of shells                            ...     72
Maximum angular momentum                    ...      2
Integral batch strategy                     ... SHARK/LIBINT Hybrid
RI-J (if used) integral strategy            ... SPLIT-RIJ (Revised 2003 algorithm where possible)
Printlevel                                  ...      1
Contraction scheme used                     ... SEGMENTED contraction
Coulomb Range Separation                    ... NOT USED
Exchange Range Separation                   ... NOT USED
Finite Nucleus Model                        ... NOT USED
Auxiliary Coulomb fitting basis             ... AVAILABLE
   # of basis functions in Aux-J            ...    480
   # of shells in Aux-J                     ...    160
   Maximum angular momentum in Aux-J        ...      4
Auxiliary J/K fitting basis                 ... NOT available
Auxiliary Correlation fitting basis         ... NOT available
Auxiliary 'external' fitting basis          ... NOT available
Integral threshold                          ...     2.500000e-11
Primitive cut-off                           ...     2.500000e-12
Primitive pair pre-selection threshold      ...     2.500000e-12

Calculating pre-screening integrals         ... done (  0.1 sec) Dimension = 72
Organizing shell pair data                  ... done (  0.5 sec)
Shell pair information
Total number of shell pairs                 ...      2628
Shell pairs after pre-screening             ...      2468
Total number of primitive shell pairs       ...      9444
Primitive shell pairs kept                  ...      6372
          la=0 lb=0:   1024 shell pairs
          la=1 lb=0:    768 shell pairs
          la=1 lb=1:    136 shell pairs
          la=2 lb=0:    376 shell pairs
          la=2 lb=1:    128 shell pairs
          la=2 lb=2:     36 shell pairs

Calculating one electron integrals          ... done (  0.0 sec)
Calculating RI/J V-Matrix + Cholesky decomp.... done (  0.6 sec)
Calculating Nuclear repulsion               ... done (  0.0 sec) ENN=    324.036273575780 Eh

SHARK setup successfully completed in   2.6 seconds

Maximum memory used throughout the entire GTOINT-calculation: 11.1 MB


           ************************************************************
           *        Program running with 4 parallel MPI-processes     *
           *              working on a common directory               *
           ************************************************************
-------------------------------------------------------------------------------
                                 ORCA SCF
-------------------------------------------------------------------------------

------------
SCF SETTINGS
------------
Hamiltonian:
 Density Functional     Method          .... DFT(GTOs)
 Exchange Functional    Exchange        .... PBE
   PBE kappa parameter   XKappa         ....  1.024500
   PBE mue parameter    XMuePBE         ....  0.123457
 Correlation Functional Correlation     .... PBE
   PBE beta parameter  CBetaPBE         ....  0.030000
 LDA part of GGA corr.  LDAOpt          .... PW91-LDA
 Gradients option       PostSCFGGA      .... off
 Hybrid DFT is turned on
   Fraction HF Exchange ScalHFX         ....  0.420000
   Scaling of DF-GGA-X  ScalDFX         ....  0.580000
   Scaling of DF-GGA-C  ScalDFC         ....  1.000000
   Scaling of DF-LDA-C  ScalLDAC        ....  1.000000
   Perturbative correction              ....  0.000000
   Density functional embedding theory  .... OFF
 RI-approximation to the Coulomb term is turned on
   Number of AuxJ basis functions       .... 480
   RIJ-ON(X) (HFX calculated with O(N)) .... on
   Number of AuxJ basis functions       .... 480
   RIJ-COSX (HFX calculated with COS-X)).... on


General Settings:
 Integral files         IntName         .... pbeh-3c
 Hartree-Fock type      HFTyp           .... RHF
 Total Charge           Charge          ....    0
 Multiplicity           Mult            ....    1
 Number of Electrons    NEL             ....   56
 Basis Dimension        Dim             ....  136
 Nuclear Repulsion      ENuc            ....    324.0362735758 Eh

Convergence Acceleration:
 DIIS                   CNVDIIS         .... on
   Start iteration      DIISMaxIt       ....    12
   Startup error        DIISStart       ....  0.200000
   # of expansion vecs  DIISMaxEq       ....     5
   Bias factor          DIISBfac        ....   1.050
   Max. coefficient     DIISMaxC        ....  10.000
 Trust-Rad. Augm. Hess. CNVTRAH         .... auto
   Auto Start mean grad. ratio tolernc. ....  1.125000
   Auto Start start iteration           ....    20
   Auto Start num. interpolation iter.  ....    10
   Max. Number of Micro iterations      ....    16
   Max. Number of Macro iterations      .... Maxiter - #DIIS iter
   Number of Davidson start vectors     ....     2
   Converg. threshold I  (grad. norm)   ....   1.000e-05
   Converg. threshold II (energy diff.) ....   1.000e-08
   Grad. Scal. Fac. for Micro threshold ....   0.100
   Minimum threshold for Micro iter.    ....   0.010
   NR start threshold (gradient norm)   ....   0.001
   Initial trust radius                 ....   0.400
   Minimum AH scaling param. (alpha)    ....   1.000
   Maximum AH scaling param. (alpha)    .... 1000.000
   Orbital update algorithm             .... Taylor
   White noise on init. David. guess    .... on
   Maximum white noise                  ....   0.010
   Quad. conv. algorithm                .... NR
   COSX micro iterations for RIJONX calc.... off
 SOSCF                  CNVSOSCF        .... on
   Start iteration      SOSCFMaxIt      ....   150
   Startup grad/error   SOSCFStart      ....  0.003300
 Level Shifting         CNVShift        .... on
   Level shift para.    LevelShift      ....    0.2500
   Turn off err/grad.   ShiftErr        ....    0.0010
 Zerner damping         CNVZerner       .... off
 Static damping         CNVDamp         .... on
   Fraction old density DampFac         ....    0.7000
   Max. Damping (<1)    DampMax         ....    0.9800
   Min. Damping (>=0)   DampMin         ....    0.0000
   Turn off err/grad.   DampErr         ....    0.1000
 Fernandez-Rico         CNVRico         .... off

SCF Procedure:
 Maximum # iterations   MaxIter         ....   125
 SCF integral mode      SCFMode         .... Direct
   Integral package                     .... SHARK and LIBINT hybrid scheme
 Reset frequency        DirectResetFreq ....    20
 Integral Threshold     Thresh          ....  2.500e-11 Eh
 Primitive CutOff       TCut            ....  2.500e-12 Eh

Convergence Tolerance:
 Convergence Check Mode ConvCheckMode   .... Total+1el-Energy
 Convergence forced     ConvForced      .... 0
 Energy Change          TolE            ....  1.000e-08 Eh
 1-El. energy change                    ....  1.000e-05 Eh
 Orbital Gradient       TolG            ....  1.000e-05
 Orbital Rotation angle TolX            ....  1.000e-05
 DIIS Error             TolErr          ....  5.000e-07


Diagonalization of the overlap matrix:
Smallest eigenvalue                        ... 8.836e-04
Time for diagonalization                   ...    0.003 sec
Threshold for overlap eigenvalues          ... 1.000e-08
Number of eigenvalues below threshold      ... 0
Time for construction of square roots      ...    0.017 sec
Total time needed                          ...    0.020 sec

--------------------------------
INITIAL GUESS: MINIMAL BASIS EHT
--------------------------------
The minimal basis has 48 functions
EHT matrix was diagonalized
Basis set overlap was calculated now projecting the orbitals
Using GuessMode=FMatrix for the initial guess
C*T matrix was formed
Effective Fockian was calculated
Effective Fockian was diagonalized
Initial density was built
                      ------------------
                      INITIAL GUESS DONE
                      ------------------
-------------------
DFT GRID GENERATION
-------------------

General Integration Accuracy     IntAcc      ... 4.959
Radial Grid Type                 RadialGrid  ... OptM3 with GC (2021)
Angular Grid (max. ang.)         AngularGrid ... 6 (Lebedev-590)
Angular grid pruning method      GridPruning ... 4 (adaptive)
Weight generation scheme         WeightScheme... Becke
Basis function cutoff            BFCut       ... 1.0000e-11
Integration weight cutoff        WCut        ... 1.0000e-14
Angular grids for H and He will be reduced by one unit
Partially contracted basis set               ... off
Rotationally invariant grid construction     ... off

Total number of grid points                  ...   184312
Total number of batches                      ...     2888
Average number of points per batch           ...       63
Average number of grid points per atom       ...    11520
Time for grid setup =    4.280 sec

--------------------
COSX GRID GENERATION
--------------------

GRIDX 1
-------
General Integration Accuracy     IntAcc      ... 4.020
Radial Grid Type                 RadialGrid  ... OptM3 with GC (2021)
Angular Grid (max. ang.)         AngularGrid ... 2 (Lebedev-110)
Angular grid pruning method      GridPruning ... 4 (adaptive)
Weight generation scheme         WeightScheme... Becke
Basis function cutoff            BFCut       ... 1.0000e-11
Integration weight cutoff        WCut        ... 1.0000e-14
Angular grids for H and He will be reduced by one unit
Partially contracted basis set               ... on
Rotationally invariant grid construction     ... off

Total number of grid points                  ...    20496
Total number of batches                      ...      328
Average number of points per batch           ...       62
Average number of grid points per atom       ...     1281
UseSFitting                                  ... on

GRIDX 2
-------
General Integration Accuracy     IntAcc      ... 4.338
Radial Grid Type                 RadialGrid  ... OptM3 with GC (2021)
Angular Grid (max. ang.)         AngularGrid ... 3 (Lebedev-194)
Angular grid pruning method      GridPruning ... 4 (adaptive)
Weight generation scheme         WeightScheme... Becke
Basis function cutoff            BFCut       ... 1.0000e-11
Integration weight cutoff        WCut        ... 1.0000e-14
Angular grids for H and He will be reduced by one unit
Partially contracted basis set               ... on
Rotationally invariant grid construction     ... off

Total number of grid points                  ...    45024
Total number of batches                      ...      712
Average number of points per batch           ...       63
Average number of grid points per atom       ...     2814
UseSFitting                                  ... on

GRIDX 3
-------
General Integration Accuracy     IntAcc      ... 4.871
Radial Grid Type                 RadialGrid  ... OptM3 with GC (2021)
Angular Grid (max. ang.)         AngularGrid ... 4 (Lebedev-302)
Angular grid pruning method      GridPruning ... 4 (adaptive)
Weight generation scheme         WeightScheme... Becke
Basis function cutoff            BFCut       ... 1.0000e-11
Integration weight cutoff        WCut        ... 1.0000e-14
Angular grids for H and He will be reduced by one unit
Partially contracted basis set               ... on
Rotationally invariant grid construction     ... off

Total number of grid points                  ...    86064
Total number of batches                      ...     1352
Average number of points per batch           ...       63
Average number of grid points per atom       ...     5379
UseSFitting                                  ... on

Time for X-Grid setup             =    4.483 sec

--------------
SCF ITERATIONS
--------------
ITER       Energy         Delta-E        Max-DP      RMS-DP      [F,P]     Damp
               ***  Starting incremental Fock matrix formation  ***
  0   -308.1165620361   0.000000000000 0.03672750  0.00308295  0.4058014 0.7000
  1   -308.3398559218  -0.223293885765 0.02580233  0.00230534  0.2861653 0.7000
  2   -308.5014675602  -0.161611638423 0.01880131  0.00170666  0.2007103 0.7000
                               ***Turning on DIIS***
  3   -308.6172188010  -0.115751240714 0.01391065  0.00125989  0.1407949 0.7000
  4   -308.6997161056  -0.082497304615 0.03699998  0.00328837  0.0987788 0.0000
  5   -308.8982334875  -0.198517381896 0.00268313  0.00021859  0.0024481 0.0000
                      *** Initiating the SOSCF procedure ***
                           *** Shutting down DIIS ***
                      *** Re-Reading the Fockian *** 
                      *** Removing any level shift *** 
ITER      Energy       Delta-E        Grad      Rot      Max-DP    RMS-DP
  6   -308.89856180  -0.0003283117  0.001620  0.001620  0.001386  0.000104
               *** Restarting incremental Fock matrix formation ***
  7   -308.89858777  -0.0000259661  0.000087  0.000192  0.000122  0.000011
  8   -308.89858809  -0.0000003251  0.000025  0.000078  0.000047  0.000004
  9   -308.89858811  -0.0000000238  0.000016  0.000015  0.000016  0.000001
                  ***Gradient check signals convergence***
              ***Rediagonalizing the Fockian in SOSCF/NRSCF***

               *****************************************************
               *                     SUCCESS                       *
               *           SCF CONVERGED AFTER  10 CYCLES          *
               *****************************************************

Old exchange energy                            =    -18.574952781 Eh
New exchange energy                            =    -18.574982299 Eh
Exchange energy change after final integration =     -0.000029518 Eh
Total energy after final integration           =   -308.898617633 Eh
Final COS-X integration done in                =     4.312 sec

----------------
TOTAL SCF ENERGY
----------------

Total Energy       :         -308.89861763 Eh           -8405.55872 eV

Components:
Nuclear Repulsion  :          324.03627358 Eh            8817.47528 eV
Electronic Energy  :         -632.93489121 Eh          -17223.03399 eV
One Electron Energy:        -1057.43135807 Eh          -28774.17010 eV
Two Electron Energy:          424.49646686 Eh           11551.13611 eV
Max COSX asymmetry :            0.00000149 Eh               0.00004 eV

Virial components:
Potential Energy   :         -615.22830239 Eh          -16741.21321 eV
Kinetic Energy     :          306.32968475 Eh            8335.65450 eV
Virial Ratio       :            2.00838617


DFT components:
N(Alpha)           :       27.999999654074 electrons
N(Beta)            :       27.999999654074 electrons
N(Total)           :       55.999999308148 electrons
E(X)               :      -24.654927027332 Eh       
E(C)               :       -2.400522010780 Eh       
E(XC)              :      -27.055449038112 Eh       
DFET-embed. en.    :        0.000000000000 Eh       

---------------
SCF CONVERGENCE
---------------

  Last Energy change         ...   -1.0609e-09  Tolerance :   1.0000e-08
  Last MAX-Density change    ...    7.7716e-16  Tolerance :   1.0000e-07
  Last RMS-Density change    ...    3.2407e-17  Tolerance :   5.0000e-09
  Last Orbital Gradient      ...    2.4481e-06  Tolerance :   1.0000e-05
  Last Orbital Rotation      ...    3.1433e-06  Tolerance :   1.0000e-05

             **** THE GBW FILE WAS UPDATED (pbeh-3c.gbw) ****
             **** DENSITY pbeh-3c.scfp WAS UPDATED ****
             **** ENERGY FILE WAS UPDATED (pbeh-3c.en.tmp) ****
             **** THE GBW FILE WAS UPDATED (pbeh-3c.gbw) ****
             **** DENSITY pbeh-3c.scfp WAS UPDATED ****
----------------
ORBITAL ENERGIES
----------------

  NO   OCC          E(Eh)            E(eV) 
   0   2.0000     -10.450356      -284.3686 
   1   2.0000     -10.450338      -284.3682 
   2   2.0000     -10.450338      -284.3682 
   3   2.0000     -10.450124      -284.3623 
   4   2.0000     -10.449583      -284.3476 
   5   2.0000     -10.449310      -284.3402 
   6   2.0000     -10.449310      -284.3402 
   7   2.0000     -10.449210      -284.3375 
   8   2.0000      -0.931297       -25.3419 
   9   2.0000      -0.872956       -23.7543 
  10   2.0000      -0.872956       -23.7543 
  11   2.0000      -0.783465       -21.3192 
  12   2.0000      -0.740023       -20.1371 
  13   2.0000      -0.638387       -17.3714 
  14   2.0000      -0.638387       -17.3714 
  15   2.0000      -0.573326       -15.6010 
  16   2.0000      -0.517059       -14.0699 
  17   2.0000      -0.517059       -14.0699 
  18   2.0000      -0.516528       -14.0554 
  19   2.0000      -0.511962       -13.9312 
  20   2.0000      -0.482296       -13.1240 
  21   2.0000      -0.416185       -11.3250 
  22   2.0000      -0.416185       -11.3250 
  23   2.0000      -0.384534       -10.4637 
  24   2.0000      -0.363010        -9.8780 
  25   2.0000      -0.315687        -8.5903 
  26   2.0000      -0.315687        -8.5903 
  27   2.0000      -0.249320        -6.7843 
  28   0.0000      -0.027505        -0.7485 
  29   0.0000       0.055980         1.5233 
  30   0.0000       0.055980         1.5233 
  31   0.0000       0.125441         3.4134 
  32   0.0000       0.145826         3.9681 
  33   0.0000       0.182938         4.9780 
  34   0.0000       0.182938         4.9780 
  35   0.0000       0.213545         5.8109 
  36   0.0000       0.236419         6.4333 
  37   0.0000       0.236419         6.4333 
  38   0.0000       0.243001         6.6124 
  39   0.0000       0.243583         6.6282 
  40   0.0000       0.254583         6.9276 
  41   0.0000       0.353590         9.6217 
  42   0.0000       0.353590         9.6217 
  43   0.0000       0.389399        10.5961 
  44   0.0000       0.389399        10.5961 
  45   0.0000       0.396177        10.7805 
  46   0.0000       0.466820        12.7028 
  47   0.0000       0.497226        13.5302 
  48   0.0000       0.500787        13.6271 
  49   0.0000       0.533460        14.5162 
  50   0.0000       0.568579        15.4718 
  51   0.0000       0.568579        15.4718 
  52   0.0000       0.581992        15.8368 
  53   0.0000       0.589648        16.0451 
  54   0.0000       0.589648        16.0451 
  55   0.0000       0.592297        16.1172 
  56   0.0000       0.599103        16.3024 
  57   0.0000       0.665932        18.1209 
  58   0.0000       0.667747        18.1703 
  59   0.0000       0.667747        18.1703 
  60   0.0000       0.690543        18.7906 
  61   0.0000       0.708133        19.2693 
  62   0.0000       0.720467        19.6049 
  63   0.0000       0.720467        19.6049 
  64   0.0000       0.723240        19.6804 
  65   0.0000       0.789628        21.4869 
  66   0.0000       0.813559        22.1381 
  67   0.0000       0.874321        23.7915 
  68   0.0000       0.874321        23.7915 
  69   0.0000       0.947428        25.7808 
  70   0.0000       0.947429        25.7808 
  71   0.0000       0.988578        26.9006 
  72   0.0000       0.995938        27.1009 
  73   0.0000       1.001280        27.2462 
  74   0.0000       1.004255        27.3272 
  75   0.0000       1.011412        27.5219 
  76   0.0000       1.011413        27.5219 
  77   0.0000       1.033914        28.1342 
  78   0.0000       1.079240        29.3676 
  79   0.0000       1.079240        29.3676 
  80   0.0000       1.156137        31.4601 
  81   0.0000       1.161556        31.6075 
  82   0.0000       1.161556        31.6075 
  83   0.0000       1.173978        31.9456 
  84   0.0000       1.173978        31.9456 
  85   0.0000       1.187029        32.3007 
  86   0.0000       1.401517        38.1372 
  87   0.0000       1.456078        39.6219 
  88   0.0000       1.507824        41.0300 
  89   0.0000       1.508501        41.0484 
  90   0.0000       1.575135        42.8616 
  91   0.0000       1.575135        42.8616 
  92   0.0000       1.576010        42.8854 
  93   0.0000       1.651578        44.9417 
  94   0.0000       1.651578        44.9417 
  95   0.0000       1.702262        46.3209 
  96   0.0000       1.782044        48.4919 
  97   0.0000       1.883663        51.2571 
  98   0.0000       1.883663        51.2571 
  99   0.0000       1.901066        51.7306 
 100   0.0000       1.996371        54.3240 
 101   0.0000       2.039980        55.5107 
 102   0.0000       2.039980        55.5107 
 103   0.0000       2.064804        56.1862 
 104   0.0000       2.082116        56.6573 
 105   0.0000       2.104377        57.2630 
 106   0.0000       2.104377        57.2630 
 107   0.0000       2.184111        59.4327 
 108   0.0000       2.230439        60.6933 
 109   0.0000       2.230439        60.6933 
 110   0.0000       2.243344        61.0445 
 111   0.0000       2.373593        64.5887 
 112   0.0000       2.403708        65.4082 
 113   0.0000       2.427187        66.0471 
 114   0.0000       2.453707        66.7688 
 115   0.0000       2.564129        69.7735 
 116   0.0000       2.564129        69.7735 
 117   0.0000       2.617360        71.2220 
 118   0.0000       2.617360        71.2220 
 119   0.0000       2.687700        73.1360 
 120   0.0000       2.737303        74.4858 
 121   0.0000       2.807998        76.4095 
 122   0.0000       2.807998        76.4095 
 123   0.0000       2.902642        78.9849 
 124   0.0000       3.019214        82.1570 
 125   0.0000       3.041628        82.7669 
 126   0.0000       3.041628        82.7669 
 127   0.0000       3.433668        93.4349 
 128   0.0000      13.213526       359.5583 
 129   0.0000      13.546761       368.6261 
 130   0.0000      13.546761       368.6261 
 131   0.0000      13.698689       372.7603 
 132   0.0000      14.152874       385.1193 
 133   0.0000      14.193358       386.2209 
 134   0.0000      14.193358       386.2209 
 135   0.0000      14.428590       392.6219 

                    ********************************
                    * MULLIKEN POPULATION ANALYSIS *
                    ********************************

-----------------------
MULLIKEN ATOMIC CHARGES
-----------------------
   0 C :   -0.221542
   1 C :   -0.221542
   2 C :   -0.221542
   3 C :   -0.221542
   4 C :   -0.221542
   5 C :   -0.221542
   6 C :   -0.221542
   7 C :   -0.221542
   8 H :    0.221542
   9 H :    0.221542
  10 H :    0.221542
  11 H :    0.221542
  12 H :    0.221542
  13 H :    0.221542
  14 H :    0.221542
  15 H :    0.221542
Sum of atomic charges:    0.0000000

--------------------------------
MULLIKEN REDUCED ORBITAL CHARGES
--------------------------------
  0 C s       :     3.246999  s :     3.246999
      pz      :     0.980493  p :     2.934281
      px      :     1.034187
      py      :     0.919601
      dz2     :     0.003283  d :     0.040261
      dxz     :     0.008013
      dyz     :     0.007920
      dx2y2   :     0.012894
      dxy     :     0.008152
  1 C s       :     3.247000  s :     3.247000
      pz      :     0.980493  p :     2.934281
      px      :     1.034187
      py      :     0.919601
      dz2     :     0.003283  d :     0.040261
      dxz     :     0.008013
      dyz     :     0.007920
      dx2y2   :     0.012894
      dxy     :     0.008152
  2 C s       :     3.246999  s :     3.246999
      pz      :     0.980493  p :     2.934281
      px      :     0.919601
      py      :     1.034187
      dz2     :     0.003283  d :     0.040261
      dxz     :     0.007920
      dyz     :     0.008013
      dx2y2   :     0.012894
      dxy     :     0.008152
  3 C s       :     3.247000  s :     3.247000
      pz      :     0.980493  p :     2.934281
      px      :     0.919601
      py      :     1.034187
      dz2     :     0.003283  d :     0.040261
      dxz     :     0.007920
      dyz     :     0.008013
      dx2y2   :     0.012894
      dxy     :     0.008152
  4 C s       :     3.246999  s :     3.246999
      pz      :     0.980493  p :     2.934281
      px      :     1.034187
      py      :     0.919601
      dz2     :     0.003283  d :     0.040261
      dxz     :     0.008013
      dyz     :     0.007920
      dx2y2   :     0.012894
      dxy     :     0.008152
  5 C s       :     3.247000  s :     3.247000
      pz      :     0.980493  p :     2.934281
      px      :     1.034187
      py      :     0.919601
      dz2     :     0.003283  d :     0.040261
      dxz     :     0.008013
      dyz     :     0.007920
      dx2y2   :     0.012894
      dxy     :     0.008152
  6 C s       :     3.247000  s :     3.247000
      pz      :     0.980493  p :     2.934281
      px      :     0.919601
      py      :     1.034187
      dz2     :     0.003283  d :     0.040261
      dxz     :     0.007920
      dyz     :     0.008013
      dx2y2   :     0.012894
      dxy     :     0.008152
  7 C s       :     3.247000  s :     3.247000
      pz      :     0.980493  p :     2.934281
      px      :     0.919601
      py      :     1.034188
      dz2     :     0.003283  d :     0.040261
      dxz     :     0.007920
      dyz     :     0.008013
      dx2y2   :     0.012894
      dxy     :     0.008152
  8 H s       :     0.778458  s :     0.778458
  9 H s       :     0.778458  s :     0.778458
 10 H s       :     0.778458  s :     0.778458
 11 H s       :     0.778458  s :     0.778458
 12 H s       :     0.778458  s :     0.778458
 13 H s       :     0.778458  s :     0.778458
 14 H s       :     0.778458  s :     0.778458
 15 H s       :     0.778458  s :     0.778458


                     *******************************
                     * LOEWDIN POPULATION ANALYSIS *
                     *******************************

----------------------
LOEWDIN ATOMIC CHARGES
----------------------
   0 C :   -0.137713
   1 C :   -0.137713
   2 C :   -0.137713
   3 C :   -0.137713
   4 C :   -0.137713
   5 C :   -0.137713
   6 C :   -0.137713
   7 C :   -0.137713
   8 H :    0.137713
   9 H :    0.137713
  10 H :    0.137713
  11 H :    0.137713
  12 H :    0.137713
  13 H :    0.137713
  14 H :    0.137713
  15 H :    0.137713

-------------------------------
LOEWDIN REDUCED ORBITAL CHARGES
-------------------------------
  0 C s       :     2.900758  s :     2.900758
      pz      :     1.011176  p :     3.146370
      px      :     1.077466
      py      :     1.057728
      dz2     :     0.007591  d :     0.090585
      dxz     :     0.014959
      dyz     :     0.017339
      dx2y2   :     0.029428
      dxy     :     0.021268
  1 C s       :     2.900758  s :     2.900758
      pz      :     1.011176  p :     3.146370
      px      :     1.077466
      py      :     1.057728
      dz2     :     0.007591  d :     0.090585
      dxz     :     0.014959
      dyz     :     0.017339
      dx2y2   :     0.029428
      dxy     :     0.021268
  2 C s       :     2.900758  s :     2.900758
      pz      :     1.011176  p :     3.146370
      px      :     1.057728
      py      :     1.077466
      dz2     :     0.007591  d :     0.090585
      dxz     :     0.017339
      dyz     :     0.014959
      dx2y2   :     0.029428
      dxy     :     0.021268
  3 C s       :     2.900758  s :     2.900758
      pz      :     1.011176  p :     3.146370
      px      :     1.057728
      py      :     1.077466
      dz2     :     0.007591  d :     0.090585
      dxz     :     0.017339
      dyz     :     0.014959
      dx2y2   :     0.029428
      dxy     :     0.021268
  4 C s       :     2.900758  s :     2.900758
      pz      :     1.011176  p :     3.146370
      px      :     1.077466
      py      :     1.057728
      dz2     :     0.007591  d :     0.090585
      dxz     :     0.014959
      dyz     :     0.017339
      dx2y2   :     0.029428
      dxy     :     0.021268
  5 C s       :     2.900758  s :     2.900758
      pz      :     1.011176  p :     3.146370
      px      :     1.077466
      py      :     1.057728
      dz2     :     0.007591  d :     0.090585
      dxz     :     0.014959
      dyz     :     0.017339
      dx2y2   :     0.029428
      dxy     :     0.021268
  6 C s       :     2.900758  s :     2.900758
      pz      :     1.011176  p :     3.146370
      px      :     1.057728
      py      :     1.077466
      dz2     :     0.007591  d :     0.090585
      dxz     :     0.017339
      dyz     :     0.014959
      dx2y2   :     0.029428
      dxy     :     0.021268
  7 C s       :     2.900758  s :     2.900758
      pz      :     1.011176  p :     3.146370
      px      :     1.057728
      py      :     1.077466
      dz2     :     0.007591  d :     0.090585
      dxz     :     0.017339
      dyz     :     0.014959
      dx2y2   :     0.029428
      dxy     :     0.021268
  8 H s       :     0.862287  s :     0.862287
  9 H s       :     0.862287  s :     0.862287
 10 H s       :     0.862287  s :     0.862287
 11 H s       :     0.862287  s :     0.862287
 12 H s       :     0.862287  s :     0.862287
 13 H s       :     0.862287  s :     0.862287
 14 H s       :     0.862287  s :     0.862287
 15 H s       :     0.862287  s :     0.862287


                      *****************************
                      * MAYER POPULATION ANALYSIS *
                      *****************************

  NA   - Mulliken gross atomic population
  ZA   - Total nuclear charge
  QA   - Mulliken gross atomic charge
  VA   - Mayer's total valence
  BVA  - Mayer's bonded valence
  FA   - Mayer's free valence

  ATOM       NA         ZA         QA         VA         BVA        FA
  0 C      6.2215     6.0000    -0.2215     3.8091     3.8091     0.0000
  1 C      6.2215     6.0000    -0.2215     3.8091     3.8091     0.0000
  2 C      6.2215     6.0000    -0.2215     3.8091     3.8091     0.0000
  3 C      6.2215     6.0000    -0.2215     3.8091     3.8091     0.0000
  4 C      6.2215     6.0000    -0.2215     3.8091     3.8091     0.0000
  5 C      6.2215     6.0000    -0.2215     3.8091     3.8091     0.0000
  6 C      6.2215     6.0000    -0.2215     3.8091     3.8091     0.0000
  7 C      6.2215     6.0000    -0.2215     3.8091     3.8091     0.0000
  8 H      0.7785     1.0000     0.2215     0.9104     0.9104     0.0000
  9 H      0.7785     1.0000     0.2215     0.9104     0.9104    -0.0000
 10 H      0.7785     1.0000     0.2215     0.9104     0.9104     0.0000
 11 H      0.7785     1.0000     0.2215     0.9104     0.9104     0.0000
 12 H      0.7785     1.0000     0.2215     0.9104     0.9104    -0.0000
 13 H      0.7785     1.0000     0.2215     0.9104     0.9104     0.0000
 14 H      0.7785     1.0000     0.2215     0.9104     0.9104    -0.0000
 15 H      0.7785     1.0000     0.2215     0.9104     0.9104    -0.0000

  Mayer bond orders larger than 0.100000
B(  0-C ,  1-C ) :   1.0499 B(  0-C ,  7-C ) :   1.8493 B(  0-C ,  8-H ) :   0.9121 
B(  1-C ,  2-C ) :   1.8493 B(  1-C ,  9-H ) :   0.9121 B(  2-C ,  3-C ) :   1.0499 
B(  2-C , 10-H ) :   0.9121 B(  3-C ,  4-C ) :   1.8493 B(  3-C , 11-H ) :   0.9121 
B(  4-C ,  5-C ) :   1.0499 B(  4-C , 12-H ) :   0.9121 B(  5-C ,  6-C ) :   1.8493 
B(  5-C , 13-H ) :   0.9121 B(  6-C ,  7-C ) :   1.0499 B(  6-C , 14-H ) :   0.9121 
B(  7-C , 15-H ) :   0.9121 

-------
TIMINGS
-------

Total SCF time: 0 days 0 hours 1 min 14 sec 

Total time                  ....      74.402 sec
Sum of individual times     ....      68.803 sec  ( 92.5%)

Fock matrix formation       ....      55.705 sec  ( 74.9%)
  Split-RI-J                ....       5.298 sec  (  9.5% of F)
  Chain of spheres X        ....      25.048 sec  ( 45.0% of F)
  XC integration            ....      13.769 sec  ( 24.7% of F)
    Basis function eval.    ....       2.905 sec  ( 21.1% of XC)
    Density eval.           ....       1.740 sec  ( 12.6% of XC)
    XC-Functional eval.     ....       1.169 sec  (  8.5% of XC)
    XC-Potential eval.      ....       1.276 sec  (  9.3% of XC)
Diagonalization             ....       0.498 sec  (  0.7%)
Density matrix formation    ....       0.104 sec  (  0.1%)
Population analysis         ....       0.511 sec  (  0.7%)
Initial guess               ....       0.160 sec  (  0.2%)
Orbital Transformation      ....       0.000 sec  (  0.0%)
Orbital Orthonormalization  ....       0.000 sec  (  0.0%)
DIIS solution               ....       1.177 sec  (  1.6%)
SOSCF solution              ....       1.883 sec  (  2.5%)
Grid generation             ....       8.763 sec  ( 11.8%)

Maximum memory used throughout the entire SCF-calculation: 55.2 MB


-------------------------------------------------------------------------------
                          DFT DISPERSION CORRECTION                            
                                                                               
                              DFTD3 V3.1  Rev 1                                
                          USING Becke-Johnson damping                          
-------------------------------------------------------------------------------
The PBEh-3c composite method is recognized
Using three-body term ABC
Active option DFTDOPT                   ...         4   

molecular C6(AA) [au] = 2964.009706 


            DFT-D V3
 parameters
 s6 scaling factor         :     1.0000 
 a1 scaling factor         :     0.4860 
 s8 scaling factor         :     0.0000 
 a2 scaling factor         :     4.5000 
 Damping factor alpha9(ATM):    16.0000 
 ad hoc parameters k1-k3   :    16.0000     1.3333    -4.0000 

 Edisp/kcal,au: -5.770426855851  -0.009195759552 
 E6   /kcal   :  -5.800222623 
 E8   /kcal   :  -0.000000000 
 E6(ABC)      :   0.029795767 
 % E8         :   0.000000000 
 % E6(ABC)    :  -0.516352906 

-------------------------   ----------------
Dispersion correction           -0.009195760
-------------------------   ----------------

------------------   -----------------
gCP correction             0.020412359
------------------   -----------------

-------------------------   --------------------
FINAL SINGLE POINT ENERGY      -308.887401033207
-------------------------   --------------------


                            ***************************************
                            *     ORCA property calculations      *
                            ***************************************

                                    ---------------------
                                    Active property flags
                                    ---------------------
   (+) Dipole Moment


------------------------------------------------------------------------------
                       ORCA ELECTRIC PROPERTIES CALCULATION
------------------------------------------------------------------------------

Dipole Moment Calculation                       ... on
Quadrupole Moment Calculation                   ... off
Polarizability Calculation                      ... off
GBWName                                         ... pbeh-3c.gbw
Electron density                                ... pbeh-3c.scfp
The origin for moment calculation is the CENTER OF MASS  = ( 0.000000,  0.000000  0.000000)

-------------
DIPOLE MOMENT
-------------
                                X             Y             Z
Electronic contribution:     -0.00000       0.00000      -0.00000
Nuclear contribution   :      0.00000       0.00000       0.00000
                        -----------------------------------------
Total Dipole Moment    :     -0.00000       0.00000      -0.00000
                        -----------------------------------------
Magnitude (a.u.)       :      0.00000
Magnitude (Debye)      :      0.00000



--------------------
Rotational spectrum 
--------------------
 
Rotational constants in cm-1:     0.090062     0.090062     0.050513 
Rotational constants in MHz :  2700.005159  2700.005159  1514.347678 

 Dipole components along the rotational axes: 
x,y,z [a.u.] :    -0.000000    -0.000000    -0.000000 
x,y,z [Debye]:    -0.000000    -0.000000    -0.000000 

 

Timings for individual modules:

Sum of individual times         ...       78.003 sec (=   1.300 min)
GTO integral calculation        ...        3.086 sec (=   0.051 min)   4.0 %
SCF iterations                  ...       74.917 sec (=   1.249 min)  96.0 %
                             ****ORCA TERMINATED NORMALLY****
TOTAL RUN TIME: 0 days 0 hours 1 minutes 20 seconds 532 msec
