
                                 *****************
                                 * O   R   C   A *
                                 *****************

                                            #,                                       
                                            ###                                      
                                            ####                                     
                                            #####                                    
                                            ######                                   
                                           ########,                                 
                                     ,,################,,,,,                         
                               ,,#################################,,                 
                          ,,##########################################,,             
                       ,#########################################, ''#####,          
                    ,#############################################,,   '####,        
                  ,##################################################,,,,####,       
                ,###########''''           ''''###############################       
              ,#####''   ,,,,##########,,,,          '''####'''          '####       
            ,##' ,,,,###########################,,,                        '##       
           ' ,,###''''                  '''############,,,                           
         ,,##''                                '''############,,,,        ,,,,,,###''
      ,#''                                            '''#######################'''  
     '                                                          ''''####''''         
             ,#######,   #######,   ,#######,      ##                                
            ,#'     '#,  ##    ##  ,#'     '#,    #''#        ######   ,####,        
            ##       ##  ##   ,#'  ##            #'  '#       #        #'  '#        
            ##       ##  #######   ##           ,######,      #####,   #    #        
            '#,     ,#'  ##    ##  '#,     ,#' ,#      #,         ##   #,  ,#        
             '#######'   ##     ##  '#######'  #'      '#     #####' # '####'        



                  #######################################################
                  #                        -***-                        #
                  #          Department of theory and spectroscopy      #
                  #    Directorship and core code : Frank Neese         #
                  #        Max Planck Institute fuer Kohlenforschung    #
                  #                Kaiser Wilhelm Platz 1               #
                  #                 D-45470 Muelheim/Ruhr               #
                  #                      Germany                        #
                  #                                                     #
                  #                  All rights reserved                #
                  #                        -***-                        #
                  #######################################################


                         Program Version 5.0.3 -  RELEASE  -


 With contributions from (in alphabetic order):
   Daniel Aravena         : Magnetic Suceptibility
   Michael Atanasov       : Ab Initio Ligand Field Theory (pilot matlab implementation)
   Alexander A. Auer      : GIAO ZORA, VPT2 properties, NMR spectrum
   Ute Becker             : Parallelization
   Giovanni Bistoni       : ED, misc. LED, open-shell LED, HFLD
   Martin Brehm           : Molecular dynamics
   Dmytro Bykov           : SCF Hessian
   Vijay G. Chilkuri      : MRCI spin determinant printing, contributions to CSF-ICE
   Dipayan Datta          : RHF DLPNO-CCSD density
   Achintya Kumar Dutta   : EOM-CC, STEOM-CC
   Dmitry Ganyushin       : Spin-Orbit,Spin-Spin,Magnetic field MRCI
   Miquel Garcia          : C-PCM and meta-GGA Hessian, CC/C-PCM, Gaussian charge scheme
   Yang Guo               : DLPNO-NEVPT2, F12-NEVPT2, CIM, IAO-localization
   Andreas Hansen         : Spin unrestricted coupled pair/coupled cluster methods
   Benjamin Helmich-Paris : MC-RPA, TRAH-SCF, COSX integrals
   Lee Huntington         : MR-EOM, pCC
   Robert Izsak           : Overlap fitted RIJCOSX, COSX-SCS-MP3, EOM
   Marcus Kettner         : VPT2
   Christian Kollmar      : KDIIS, OOCD, Brueckner-CCSD(T), CCSD density, CASPT2, CASPT2-K
   Simone Kossmann        : Meta GGA functionals, TD-DFT gradient, OOMP2, MP2 Hessian
   Martin Krupicka        : Initial AUTO-CI
   Lucas Lang             : DCDCAS
   Marvin Lechner         : AUTO-CI (C++ implementation), FIC-MRCC
   Dagmar Lenk            : GEPOL surface, SMD
   Dimitrios Liakos       : Extrapolation schemes; Compound Job, initial MDCI parallelization
   Dimitrios Manganas     : Further ROCIS development; embedding schemes
   Dimitrios Pantazis     : SARC Basis sets
   Anastasios Papadopoulos: AUTO-CI, single reference methods and gradients
   Taras Petrenko         : DFT Hessian,TD-DFT gradient, ASA, ECA, R-Raman, ABS, FL, XAS/XES, NRVS
   Peter Pinski           : DLPNO-MP2, DLPNO-MP2 Gradient
   Christoph Reimann      : Effective Core Potentials
   Marius Retegan         : Local ZFS, SOC
   Christoph Riplinger    : Optimizer, TS searches, QM/MM, DLPNO-CCSD(T), (RO)-DLPNO pert. Triples
   Tobias Risthaus        : Range-separated hybrids, TD-DFT gradient, RPA, STAB
   Michael Roemelt        : Original ROCIS implementation
   Masaaki Saitow         : Open-shell DLPNO-CCSD energy and density
   Barbara Sandhoefer     : DKH picture change effects
   Avijit Sen             : IP-ROCIS
   Kantharuban Sivalingam : CASSCF convergence, NEVPT2, FIC-MRCI
   Bernardo de Souza      : ESD, SOC TD-DFT
   Georgi Stoychev        : AutoAux, RI-MP2 NMR, DLPNO-MP2 response
   Willem Van den Heuvel  : Paramagnetic NMR
   Boris Wezisla          : Elementary symmetry handling
   Frank Wennmohs         : Technical directorship


 We gratefully acknowledge several colleagues who have allowed us to
 interface, adapt or use parts of their codes:
   Stefan Grimme, W. Hujo, H. Kruse, P. Pracht,  : VdW corrections, initial TS optimization,
                  C. Bannwarth, S. Ehlert          DFT functionals, gCP, sTDA/sTD-DF
   Ed Valeev, F. Pavosevic, A. Kumar             : LibInt (2-el integral package), F12 methods
   Garnet Chan, S. Sharma, J. Yang, R. Olivares  : DMRG
   Ulf Ekstrom                                   : XCFun DFT Library
   Mihaly Kallay                                 : mrcc  (arbitrary order and MRCC methods)
   Jiri Pittner, Ondrej Demel                    : Mk-CCSD
   Frank Weinhold                                : gennbo (NPA and NBO analysis)
   Christopher J. Cramer and Donald G. Truhlar   : smd solvation model
   Lars Goerigk                                  : TD-DFT with DH, B97 family of functionals
   V. Asgeirsson, H. Jonsson                     : NEB implementation
   FAccTs GmbH                                   : IRC, NEB, NEB-TS, DLPNO-Multilevel, CI-OPT
                                                   MM, QMMM, 2- and 3-layer-ONIOM, Crystal-QMMM,
                                                   LR-CPCM, SF, NACMEs, symmetry and pop. for TD-DFT,
                                                   nearIR, NL-DFT gradient (VV10), updates on ESD,
                                                   ML-optimized integration grids
   S Lehtola, MJT Oliveira, MAL Marques          : LibXC Library
   Liviu Ungur et al                             : ANISO software


 Your calculation uses the libint2 library for the computation of 2-el integrals
 For citations please refer to: http://libint.valeyev.net

 Your ORCA version has been built with support for libXC version: 5.1.0
 For citations please refer to: https://tddft.org/programs/libxc/

 This ORCA versions uses:
   CBLAS   interface :  Fast vector & matrix operations
   LAPACKE interface :  Fast linear algebra routines
   SCALAPACK package :  Parallel linear algebra routines
   Shared memory     :  Shared parallel matrices
   BLAS/LAPACK       :  OpenBLAS 0.3.15  USE64BITINT DYNAMIC_ARCH NO_AFFINITY Haswell SINGLE_THREADED
        Core in use  :  Haswell
   Copyright (c) 2011-2014, The OpenBLAS Project




***************************************
The coordinates will be read from file: RKT18.xyz
***************************************


Your calculation utilizes the geometrical counterpoise correction gCP
Please cite in your paper:
H.Kruse, S. Grimme J.Chem.Phys., 136, (2012), 154101 
   

Your calculation utilizes the atom-pairwise dispersion correction
with the Becke-Johnson damping scheme (D3BJ)
Cite in your paper:
S.Grimme, S.Ehrlich, L.Goerigk, J Comput Chem, (2011), 32, 1456–1465 
S.Grimme, J.Antony, S.Ehrlich and H.Krieg, J.Chem.Phys., 132, (2010), 154104 
   

Your calculation employs the composite approach PBEh-3c.
Please cite in your paper:
S. Grimme, J. G. Brandenburg, C. Bannwarth, A. Hansen J.Chem.Phys., 143, (2015), 054107 
   

================================================================================

----- Orbital basis set information -----
Your calculation utilizes the basis: def2-mSVP

----- AuxJ basis set information -----
Your calculation utilizes the auxiliary basis: def2/J
   F. Weigend, Phys. Chem. Chem. Phys. 8, 1057 (2006).

================================================================================
                                        WARNINGS
                       Please study these warnings very carefully!
================================================================================


WARNING: your system is open-shell and RHF/RKS was chosen
  ===> : WILL SWITCH to UHF/UKS


INFO   : the flag for use of the SHARK integral package has been found!

================================================================================
                                       INPUT FILE
================================================================================
NAME = pbeh-3c.inp
|  1> ! PBEh-3c def2/J TightSCF DefGrid3
|  2> 
|  3> %maxcore 60000
|  4> 
|  5> %pal
|  6> nprocs 4
|  7> end
|  8> 
|  9> *xyzfile 0 3 RKT18.xyz
| 10> 
| 11>                          ****END OF INPUT****
================================================================================

                       ****************************
                       * Single Point Calculation *
                       ****************************

---------------------------------
CARTESIAN COORDINATES (ANGSTROEM)
---------------------------------
  C     -0.855804    0.092238   -0.000039
  N      1.744488    0.233226    0.000006
  H     -1.082890   -0.409568    0.933047
  H     -1.076138   -0.488018   -0.888153
  H     -1.176464    1.126168   -0.045792
  H      0.532698    0.230260    0.000992
  H      1.914110   -0.784305   -0.000062

----------------------------
CARTESIAN COORDINATES (A.U.)
----------------------------
  NO LB      ZA    FRAG     MASS         X           Y           Z
   0 C     6.0000    0    12.011   -1.617236    0.174304   -0.000073
   1 N     7.0000    0    14.007    3.296604    0.440733    0.000012
   2 H     1.0000    0     1.008   -2.046366   -0.773972    1.763203
   3 H     1.0000    0     1.008   -2.033606   -0.922221   -1.678367
   4 H     1.0000    0     1.008   -2.223196    2.128149   -0.086534
   5 H     1.0000    0     1.008    1.006654    0.435128    0.001875
   6 H     1.0000    0     1.008    3.617144   -1.482121   -0.000117

--------------------------------
INTERNAL COORDINATES (ANGSTROEM)
--------------------------------
 C      0   0   0     0.000000000000     0.00000000     0.00000000
 N      1   0   0     2.604111495287     0.00000000     0.00000000
 H      1   2   0     1.083524956962   103.55225679     0.00000000
 H      1   2   3     1.083508846061   103.41849401   240.22401018
 H      1   2   3     1.083479660761   104.11423947   120.14198218
 H      2   1   3     1.211793831198     2.96368566   243.27420285
 H      2   1   3     1.031571672527    96.36064320    62.35726456

---------------------------
INTERNAL COORDINATES (A.U.)
---------------------------
 C      0   0   0     0.000000000000     0.00000000     0.00000000
 N      1   0   0     4.921057548289     0.00000000     0.00000000
 H      1   2   0     2.047565427927   103.55225679     0.00000000
 H      1   2   3     2.047534982735   103.41849401   240.22401018
 H      1   2   3     2.047479830511   104.11423947   120.14198218
 H      2   1   3     2.289958471739     2.96368566   243.27420285
 H      2   1   3     1.949387948587    96.36064320    62.35726456

---------------------
BASIS SET INFORMATION
---------------------
There are 3 groups of distinct atoms

 Group   1 Type C   : 8s4p1d contracted to 4s2p1d pattern {5111/31/1}
 Group   2 Type N   : 8s4p1d contracted to 4s2p1d pattern {5111/31/1}
 Group   3 Type H   : 4s contracted to 2s pattern {31}

Atom   0C    basis set group =>   1
Atom   1N    basis set group =>   2
Atom   2H    basis set group =>   3
Atom   3H    basis set group =>   3
Atom   4H    basis set group =>   3
Atom   5H    basis set group =>   3
Atom   6H    basis set group =>   3
---------------------------------
AUXILIARY/J BASIS SET INFORMATION
---------------------------------
There are 3 groups of distinct atoms

 Group   1 Type C   : 12s5p4d2f1g contracted to 6s4p3d1f1g pattern {711111/2111/211/2/1}
 Group   2 Type N   : 12s5p4d2f1g contracted to 6s4p3d1f1g pattern {711111/2111/211/2/1}
 Group   3 Type H   : 5s2p1d contracted to 3s1p1d pattern {311/2/1}

Atom   0C    basis set group =>   1
Atom   1N    basis set group =>   2
Atom   2H    basis set group =>   3
Atom   3H    basis set group =>   3
Atom   4H    basis set group =>   3
Atom   5H    basis set group =>   3
Atom   6H    basis set group =>   3


           ************************************************************
           *        Program running with 4 parallel MPI-processes     *
           *              working on a common directory               *
           ************************************************************
------------------------------------------------------------------------------
                           ORCA GTO INTEGRAL CALCULATION
                           -- RI-GTO INTEGRALS CHOSEN --
------------------------------------------------------------------------------
------------------------------------------------------------------------------
                   ___                                                        
                  /   \      - P O W E R E D   B Y -                         
                 /     \                                                     
                 |  |  |   _    _      __       _____    __    __             
                 |  |  |  | |  | |    /  \     |  _  \  |  |  /  |          
                  \  \/   | |  | |   /    \    | | | |  |  | /  /          
                 / \  \   | |__| |  /  /\  \   | |_| |  |  |/  /          
                |  |  |   |  __  | /  /__\  \  |    /   |      \           
                |  |  |   | |  | | |   __   |  |    \   |  |\   \          
                \     /   | |  | | |  |  |  |  | |\  \  |  | \   \       
                 \___/    |_|  |_| |__|  |__|  |_| \__\ |__|  \__/        
                                                                              
                      - O R C A' S   B I G   F R I E N D -                    
                                      &                                       
                       - I N T E G R A L  F E E D E R -                       
                                                                              
 v1 FN, 2020, v2 2021                                                         
------------------------------------------------------------------------------


Reading SHARK input file pbeh-3c.SHARKINP.tmp ... ok
----------------------
SHARK INTEGRAL PACKAGE
----------------------

Number of atoms                             ...      7
Number of basis functions                   ...     40
Number of shells                            ...     24
Maximum angular momentum                    ...      2
Integral batch strategy                     ... SHARK/LIBINT Hybrid
RI-J (if used) integral strategy            ... SPLIT-RIJ (Revised 2003 algorithm where possible)
Printlevel                                  ...      1
Contraction scheme used                     ... SEGMENTED contraction
Coulomb Range Separation                    ... NOT USED
Exchange Range Separation                   ... NOT USED
Finite Nucleus Model                        ... NOT USED
Auxiliary Coulomb fitting basis             ... AVAILABLE
   # of basis functions in Aux-J            ...    153
   # of shells in Aux-J                     ...     55
   Maximum angular momentum in Aux-J        ...      4
Auxiliary J/K fitting basis                 ... NOT available
Auxiliary Correlation fitting basis         ... NOT available
Auxiliary 'external' fitting basis          ... NOT available
Integral threshold                          ...     2.500000e-11
Primitive cut-off                           ...     2.500000e-12
Primitive pair pre-selection threshold      ...     2.500000e-12

Calculating pre-screening integrals         ... done (  0.1 sec) Dimension = 24
Organizing shell pair data                  ... done (  0.1 sec)
Shell pair information
Total number of shell pairs                 ...       300
Shell pairs after pre-screening             ...       296
Total number of primitive shell pairs       ...      1122
Primitive shell pairs kept                  ...       929
          la=0 lb=0:    167 shell pairs
          la=1 lb=0:     72 shell pairs
          la=1 lb=1:     10 shell pairs
          la=2 lb=0:     36 shell pairs
          la=2 lb=1:      8 shell pairs
          la=2 lb=2:      3 shell pairs

Calculating one electron integrals          ... done (  0.0 sec)
Calculating RI/J V-Matrix + Cholesky decomp.... done (  0.5 sec)
Calculating Nuclear repulsion               ... done (  0.0 sec) ENN=     33.459545242864 Eh

SHARK setup successfully completed in   1.5 seconds

Maximum memory used throughout the entire GTOINT-calculation: 9.0 MB


           ************************************************************
           *        Program running with 4 parallel MPI-processes     *
           *              working on a common directory               *
           ************************************************************
-------------------------------------------------------------------------------
                                 ORCA SCF
-------------------------------------------------------------------------------

------------
SCF SETTINGS
------------
Hamiltonian:
 Density Functional     Method          .... DFT(GTOs)
 Exchange Functional    Exchange        .... PBE
   PBE kappa parameter   XKappa         ....  1.024500
   PBE mue parameter    XMuePBE         ....  0.123457
 Correlation Functional Correlation     .... PBE
   PBE beta parameter  CBetaPBE         ....  0.030000
 LDA part of GGA corr.  LDAOpt          .... PW91-LDA
 Gradients option       PostSCFGGA      .... off
 Hybrid DFT is turned on
   Fraction HF Exchange ScalHFX         ....  0.420000
   Scaling of DF-GGA-X  ScalDFX         ....  0.580000
   Scaling of DF-GGA-C  ScalDFC         ....  1.000000
   Scaling of DF-LDA-C  ScalLDAC        ....  1.000000
   Perturbative correction              ....  0.000000
   Density functional embedding theory  .... OFF
 RI-approximation to the Coulomb term is turned on
   Number of AuxJ basis functions       .... 153
   RIJ-ON(X) (HFX calculated with O(N)) .... on
   Number of AuxJ basis functions       .... 153
   RIJ-COSX (HFX calculated with COS-X)).... on


General Settings:
 Integral files         IntName         .... pbeh-3c
 Hartree-Fock type      HFTyp           .... UHF
 Total Charge           Charge          ....    0
 Multiplicity           Mult            ....    3
 Number of Electrons    NEL             ....   18
 Basis Dimension        Dim             ....   40
 Nuclear Repulsion      ENuc            ....     33.4595452429 Eh

Convergence Acceleration:
 DIIS                   CNVDIIS         .... on
   Start iteration      DIISMaxIt       ....    12
   Startup error        DIISStart       ....  0.200000
   # of expansion vecs  DIISMaxEq       ....     5
   Bias factor          DIISBfac        ....   1.050
   Max. coefficient     DIISMaxC        ....  10.000
 Trust-Rad. Augm. Hess. CNVTRAH         .... auto
   Auto Start mean grad. ratio tolernc. ....  1.125000
   Auto Start start iteration           ....    20
   Auto Start num. interpolation iter.  ....    10
   Max. Number of Micro iterations      ....    16
   Max. Number of Macro iterations      .... Maxiter - #DIIS iter
   Number of Davidson start vectors     ....     2
   Converg. threshold I  (grad. norm)   ....   1.000e-05
   Converg. threshold II (energy diff.) ....   1.000e-08
   Grad. Scal. Fac. for Micro threshold ....   0.100
   Minimum threshold for Micro iter.    ....   0.010
   NR start threshold (gradient norm)   ....   0.001
   Initial trust radius                 ....   0.400
   Minimum AH scaling param. (alpha)    ....   1.000
   Maximum AH scaling param. (alpha)    .... 1000.000
   Orbital update algorithm             .... Taylor
   White noise on init. David. guess    .... on
   Maximum white noise                  ....   0.010
   Quad. conv. algorithm                .... NR
   COSX micro iterations for RIJONX calc.... off
 SOSCF                  CNVSOSCF        .... off
 Level Shifting         CNVShift        .... on
   Level shift para.    LevelShift      ....    0.2500
   Turn off err/grad.   ShiftErr        ....    0.0010
 Zerner damping         CNVZerner       .... off
 Static damping         CNVDamp         .... on
   Fraction old density DampFac         ....    0.7000
   Max. Damping (<1)    DampMax         ....    0.9800
   Min. Damping (>=0)   DampMin         ....    0.0000
   Turn off err/grad.   DampErr         ....    0.1000
 Fernandez-Rico         CNVRico         .... off

SCF Procedure:
 Maximum # iterations   MaxIter         ....   125
 SCF integral mode      SCFMode         .... Direct
   Integral package                     .... SHARK and LIBINT hybrid scheme
 Reset frequency        DirectResetFreq ....    20
 Integral Threshold     Thresh          ....  2.500e-11 Eh
 Primitive CutOff       TCut            ....  2.500e-12 Eh

Convergence Tolerance:
 Convergence Check Mode ConvCheckMode   .... Total+1el-Energy
 Convergence forced     ConvForced      .... 0
 Energy Change          TolE            ....  1.000e-08 Eh
 1-El. energy change                    ....  1.000e-05 Eh
 DIIS Error             TolErr          ....  5.000e-07


Diagonalization of the overlap matrix:
Smallest eigenvalue                        ... 1.079e-02
Time for diagonalization                   ...    0.001 sec
Threshold for overlap eigenvalues          ... 1.000e-08
Number of eigenvalues below threshold      ... 0
Time for construction of square roots      ...    0.137 sec
Total time needed                          ...    0.139 sec

--------------------------------
INITIAL GUESS: MINIMAL BASIS EHT
--------------------------------
The minimal basis has 15 functions
EHT matrix was diagonalized
Basis set overlap was calculated now projecting the orbitals
Using GuessMode=FMatrix for the initial guess
C*T matrix was formed
Effective Fockian was calculated
Effective Fockian was diagonalized
Initial density was built
                      ------------------
                      INITIAL GUESS DONE
                      ------------------
-------------------
DFT GRID GENERATION
-------------------

General Integration Accuracy     IntAcc      ... 4.959
Radial Grid Type                 RadialGrid  ... OptM3 with GC (2021)
Angular Grid (max. ang.)         AngularGrid ... 6 (Lebedev-590)
Angular grid pruning method      GridPruning ... 4 (adaptive)
Weight generation scheme         WeightScheme... Becke
Basis function cutoff            BFCut       ... 1.0000e-11
Integration weight cutoff        WCut        ... 1.0000e-14
Angular grids for H and He will be reduced by one unit
Partially contracted basis set               ... off
Rotationally invariant grid construction     ... off

Total number of grid points                  ...    73858
Total number of batches                      ...     1158
Average number of points per batch           ...       63
Average number of grid points per atom       ...    10551
Time for grid setup =    1.459 sec

--------------------
COSX GRID GENERATION
--------------------

GRIDX 1
-------
General Integration Accuracy     IntAcc      ... 4.020
Radial Grid Type                 RadialGrid  ... OptM3 with GC (2021)
Angular Grid (max. ang.)         AngularGrid ... 2 (Lebedev-110)
Angular grid pruning method      GridPruning ... 4 (adaptive)
Weight generation scheme         WeightScheme... Becke
Basis function cutoff            BFCut       ... 1.0000e-11
Integration weight cutoff        WCut        ... 1.0000e-14
Angular grids for H and He will be reduced by one unit
Partially contracted basis set               ... on
Rotationally invariant grid construction     ... off

Total number of grid points                  ...     7703
Total number of batches                      ...      124
Average number of points per batch           ...       62
Average number of grid points per atom       ...     1100
UseSFitting                                  ... on

GRIDX 2
-------
General Integration Accuracy     IntAcc      ... 4.338
Radial Grid Type                 RadialGrid  ... OptM3 with GC (2021)
Angular Grid (max. ang.)         AngularGrid ... 3 (Lebedev-194)
Angular grid pruning method      GridPruning ... 4 (adaptive)
Weight generation scheme         WeightScheme... Becke
Basis function cutoff            BFCut       ... 1.0000e-11
Integration weight cutoff        WCut        ... 1.0000e-14
Angular grids for H and He will be reduced by one unit
Partially contracted basis set               ... on
Rotationally invariant grid construction     ... off

Total number of grid points                  ...    16915
Total number of batches                      ...      267
Average number of points per batch           ...       63
Average number of grid points per atom       ...     2416
UseSFitting                                  ... on

GRIDX 3
-------
General Integration Accuracy     IntAcc      ... 4.871
Radial Grid Type                 RadialGrid  ... OptM3 with GC (2021)
Angular Grid (max. ang.)         AngularGrid ... 4 (Lebedev-302)
Angular grid pruning method      GridPruning ... 4 (adaptive)
Weight generation scheme         WeightScheme... Becke
Basis function cutoff            BFCut       ... 1.0000e-11
Integration weight cutoff        WCut        ... 1.0000e-14
Angular grids for H and He will be reduced by one unit
Partially contracted basis set               ... on
Rotationally invariant grid construction     ... off

Total number of grid points                  ...    34548
Total number of batches                      ...      543
Average number of points per batch           ...       63
Average number of grid points per atom       ...     4935
UseSFitting                                  ... on

Time for X-Grid setup             =    2.297 sec

--------------
SCF ITERATIONS
--------------
ITER       Energy         Delta-E        Max-DP      RMS-DP      [F,P]     Damp
               ***  Starting incremental Fock matrix formation  ***
  0    -95.1808547918   0.000000000000 0.07978026  0.00455577  0.1847995 0.7000
  1    -95.2865637231  -0.105708931226 0.04483980  0.00306606  0.1305043 0.7000
                               ***Turning on DIIS***
  2    -95.3484288398  -0.061865116753 0.09289166  0.00645190  0.0923631 0.0000
  3    -95.4817317018  -0.133302861938 0.04527398  0.00249716  0.0420478 0.0000
  4    -95.4910774253  -0.009345723535 0.01710296  0.00078948  0.0209642 0.0000
  5    -95.4931438774  -0.002066452067 0.00765141  0.00046624  0.0077976 0.0000
  6    -95.4936631618  -0.000519284479 0.00522723  0.00036354  0.0045462 0.0000
  7    -95.4939204326  -0.000257270707 0.00340774  0.00022555  0.0026578 0.0000
  8    -95.4940138421  -0.000093409506 0.00201574  0.00014117  0.0016273 0.0000
  9    -95.4940494055  -0.000035563433 0.00175770  0.00015020  0.0008179 0.0000
               *** Restarting incremental Fock matrix formation ***
                                   *** Resetting DIIS ***
 10    -95.4940601539  -0.000010748443 0.00017719  0.00001413  0.0001591 0.0000
 11    -95.4940605127  -0.000000358745 0.00010235  0.00000755  0.0000844 0.0000
 12    -95.4940606086  -0.000000095943 0.00009959  0.00000705  0.0000604 0.0000
 13    -95.4940606728  -0.000000064186 0.00002800  0.00000186  0.0000127 0.0000
 14    -95.4940606767  -0.000000003840 0.00000854  0.00000046  0.0000052 0.0000
 15    -95.4940606771  -0.000000000442 0.00000423  0.00000025  0.0000023 0.0000
                 **** Energy Check signals convergence ****

               *****************************************************
               *                     SUCCESS                       *
               *           SCF CONVERGED AFTER  16 CYCLES          *
               *****************************************************

Old exchange energy                            =     -5.653083780 Eh
New exchange energy                            =     -5.653085724 Eh
Exchange energy change after final integration =     -0.000001944 Eh
Total energy after final integration           =    -95.494062621 Eh
Final COS-X integration done in                =     0.976 sec

----------------
TOTAL SCF ENERGY
----------------

Total Energy       :          -95.49406262 Eh           -2598.52555 eV

Components:
Nuclear Repulsion  :           33.45954524 Eh             910.48051 eV
Electronic Energy  :         -128.95360786 Eh           -3509.00606 eV
One Electron Energy:         -194.25783419 Eh           -5286.02440 eV
Two Electron Energy:           65.30422633 Eh            1777.01834 eV
Max COSX asymmetry :            0.00000027 Eh               0.00001 eV

Virial components:
Potential Energy   :         -190.34783868 Eh           -5179.62802 eV
Kinetic Energy     :           94.85377606 Eh            2581.10247 eV
Virial Ratio       :            2.00675025


DFT components:
N(Alpha)           :        9.999999463536 electrons
N(Beta)            :        7.999999604086 electrons
N(Total)           :       17.999999067621 electrons
E(X)               :       -7.500093387999 Eh       
E(C)               :       -0.727289112818 Eh       
E(XC)              :       -8.227382500817 Eh       
DFET-embed. en.    :        0.000000000000 Eh       

---------------
SCF CONVERGENCE
---------------

  Last Energy change         ...   -5.8137e-11  Tolerance :   1.0000e-08
  Last MAX-Density change    ...    0.0000e+00  Tolerance :   1.0000e-07
  Last RMS-Density change    ...    0.0000e+00  Tolerance :   5.0000e-09
  Last DIIS Error            ...    8.0836e-07  Tolerance :   5.0000e-07

             **** THE GBW FILE WAS UPDATED (pbeh-3c.gbw) ****
             **** DENSITY pbeh-3c.scfp WAS UPDATED ****
             **** ENERGY FILE WAS UPDATED (pbeh-3c.en.tmp) ****
----------------------
UHF SPIN CONTAMINATION
----------------------

Warning: in a DFT calculation there is little theoretical justification to 
         calculate <S**2> as in Hartree-Fock theory. We will do it anyways
         but you should keep in mind that the values have only limited relevance

Expectation value of <S**2>     :     2.018151
Ideal value S*(S+1) for S=1.0   :     2.000000
Deviation                       :     0.018151

             **** THE GBW FILE WAS UPDATED (pbeh-3c.gbw) ****
             **** DENSITY pbeh-3c.scfp WAS UPDATED ****
----------------
ORBITAL ENERGIES
----------------
                 SPIN UP ORBITALS
  NO   OCC          E(Eh)            E(eV) 
   0   1.0000     -14.673861      -399.2961 
   1   1.0000     -10.447494      -284.2908 
   2   1.0000      -0.946783       -25.7633 
   3   1.0000      -0.784830       -21.3563 
   4   1.0000      -0.527035       -14.3413 
   5   1.0000      -0.475947       -12.9512 
   6   1.0000      -0.474787       -12.9196 
   7   1.0000      -0.418683       -11.3929 
   8   1.0000      -0.380461       -10.3529 
   9   1.0000      -0.285196        -7.7606 
  10   0.0000       0.146086         3.9752 
  11   0.0000       0.178604         4.8601 
  12   0.0000       0.211514         5.7556 
  13   0.0000       0.212920         5.7938 
  14   0.0000       0.297727         8.1016 
  15   0.0000       0.481732        13.1086 
  16   0.0000       0.482187        13.1210 
  17   0.0000       0.531286        14.4570 
  18   0.0000       0.762631        20.7522 
  19   0.0000       0.783628        21.3236 
  20   0.0000       0.804147        21.8819 
  21   0.0000       0.937780        25.5183 
  22   0.0000       1.014442        27.6044 
  23   0.0000       1.034838        28.1594 
  24   0.0000       1.037361        28.2280 
  25   0.0000       1.085341        29.5336 
  26   0.0000       1.172512        31.9057 
  27   0.0000       1.529254        41.6131 
  28   0.0000       1.691825        46.0369 
  29   0.0000       1.698624        46.2219 
  30   0.0000       1.721121        46.8341 
  31   0.0000       1.735536        47.2263 
  32   0.0000       1.735923        47.2369 
  33   0.0000       1.914129        52.0861 
  34   0.0000       2.260046        61.4990 
  35   0.0000       2.279838        62.0375 
  36   0.0000       2.297996        62.5317 
  37   0.0000       2.448465        66.6261 
  38   0.0000      13.708995       373.0407 
  39   0.0000      18.967209       516.1240 

                 SPIN DOWN ORBITALS
  NO   OCC          E(Eh)            E(eV) 
   0   1.0000     -14.639620      -398.3643 
   1   1.0000     -10.435556      -283.9659 
   2   1.0000      -0.843195       -22.9445 
   3   1.0000      -0.746683       -20.3183 
   4   1.0000      -0.478107       -13.0100 
   5   1.0000      -0.466481       -12.6936 
   6   1.0000      -0.462225       -12.5778 
   7   1.0000      -0.348378        -9.4798 
   8   0.0000      -0.051628        -1.4049 
   9   0.0000      -0.034596        -0.9414 
  10   0.0000       0.159873         4.3504 
  11   0.0000       0.192152         5.2287 
  12   0.0000       0.219735         5.9793 
  13   0.0000       0.220290         5.9944 
  14   0.0000       0.331791         9.0285 
  15   0.0000       0.488961        13.3053 
  16   0.0000       0.495743        13.4899 
  17   0.0000       0.598251        16.2792 
  18   0.0000       0.820361        22.3232 
  19   0.0000       0.843008        22.9394 
  20   0.0000       0.877477        23.8774 
  21   0.0000       0.951744        25.8983 
  22   0.0000       1.036089        28.1934 
  23   0.0000       1.042366        28.3642 
  24   0.0000       1.047819        28.5126 
  25   0.0000       1.106593        30.1119 
  26   0.0000       1.203684        32.7539 
  27   0.0000       1.578058        42.9411 
  28   0.0000       1.732548        47.1450 
  29   0.0000       1.740245        47.3545 
  30   0.0000       1.791533        48.7501 
  31   0.0000       1.803685        49.0808 
  32   0.0000       1.846550        50.2472 
  33   0.0000       1.980490        53.8919 
  34   0.0000       2.288356        62.2693 
  35   0.0000       2.294527        62.4373 
  36   0.0000       2.346612        63.8546 
  37   0.0000       2.489512        67.7431 
  38   0.0000      13.725007       373.4764 
  39   0.0000      19.013997       517.3972 

                    ********************************
                    * MULLIKEN POPULATION ANALYSIS *
                    ********************************

--------------------------------------------
MULLIKEN ATOMIC CHARGES AND SPIN POPULATIONS
--------------------------------------------
   0 C :   -0.836999    0.695171
   1 N :   -0.488970    1.585064
   2 H :    0.236880   -0.026033
   3 H :    0.236177   -0.026293
   4 H :    0.248781   -0.024827
   5 H :    0.299635   -0.146063
   6 H :    0.304497   -0.057019
Sum of atomic charges         :   -0.0000000
Sum of atomic spin populations:    2.0000000

-----------------------------------------------------
MULLIKEN REDUCED ORBITAL CHARGES AND SPIN POPULATIONS
-----------------------------------------------------
CHARGE
  0 C s       :     3.478906  s :     3.478906
      pz      :     1.135194  p :     3.332636
      px      :     1.049792
      py      :     1.147650
      dz2     :     0.007214  d :     0.025458
      dxz     :     0.001612
      dyz     :     0.008217
      dx2y2   :     0.005760
      dxy     :     0.002655
  1 N s       :     3.876704  s :     3.876704
      pz      :     0.997691  p :     3.589852
      px      :     1.214878
      py      :     1.377283
      dz2     :     0.005126  d :     0.022415
      dxz     :     0.000235
      dyz     :     0.000799
      dx2y2   :     0.014990
      dxy     :     0.001264
  2 H s       :     0.763120  s :     0.763120
  3 H s       :     0.763823  s :     0.763823
  4 H s       :     0.751219  s :     0.751219
  5 H s       :     0.700365  s :     0.700365
  6 H s       :     0.695503  s :     0.695503

SPIN
  0 C s       :     0.072008  s :     0.072008
      pz      :     0.025323  p :     0.625401
      px      :     0.574046
      py      :     0.026033
      dz2     :    -0.000396  d :    -0.002238
      dxz     :    -0.000291
      dyz     :    -0.000159
      dx2y2   :    -0.000936
      dxy     :    -0.000456
  1 N s       :     0.039774  s :     0.039774
      pz      :     0.996223  p :     1.545413
      px      :     0.509239
      py      :     0.039950
      dz2     :    -0.000894  d :    -0.000122
      dxz     :     0.000196
      dyz     :     0.000797
      dx2y2   :    -0.000568
      dxy     :     0.000346
  2 H s       :    -0.026033  s :    -0.026033
  3 H s       :    -0.026293  s :    -0.026293
  4 H s       :    -0.024827  s :    -0.024827
  5 H s       :    -0.146063  s :    -0.146063
  6 H s       :    -0.057019  s :    -0.057019


                     *******************************
                     * LOEWDIN POPULATION ANALYSIS *
                     *******************************

-------------------------------------------
LOEWDIN ATOMIC CHARGES AND SPIN POPULATIONS
-------------------------------------------
   0 C :   -0.486135    0.613790
   1 N :   -0.337080    1.536532
   2 H :    0.136263   -0.014099
   3 H :    0.135859   -0.014274
   4 H :    0.142365   -0.013997
   5 H :    0.206437   -0.069526
   6 H :    0.202290   -0.038427

----------------------------------------------------
LOEWDIN REDUCED ORBITAL CHARGES AND SPIN POPULATIONS
----------------------------------------------------
CHARGE
  0 C s       :     3.067070  s :     3.067070
      pz      :     1.151697  p :     3.377818
      px      :     1.068758
      py      :     1.157363
      dz2     :     0.011850  d :     0.041248
      dxz     :     0.002481
      dyz     :     0.013262
      dx2y2   :     0.009539
      dxy     :     0.004116
  1 N s       :     3.645850  s :     3.645850
      pz      :     0.998018  p :     3.659822
      px      :     1.244403
      py      :     1.417401
      dz2     :     0.006503  d :     0.031407
      dxz     :     0.000237
      dyz     :     0.000798
      dx2y2   :     0.022255
      dxy     :     0.001614
  2 H s       :     0.863737  s :     0.863737
  3 H s       :     0.864141  s :     0.864141
  4 H s       :     0.857635  s :     0.857635
  5 H s       :     0.793563  s :     0.793563
  6 H s       :     0.797710  s :     0.797710

SPIN
  0 C s       :     0.051291  s :     0.051291
      pz      :     0.016395  p :     0.566758
      px      :     0.533209
      py      :     0.017154
      dz2     :    -0.001030  d :    -0.004259
      dxz     :    -0.000271
      dyz     :    -0.000469
      dx2y2   :    -0.001958
      dxy     :    -0.000531
  1 N s       :     0.027740  s :     0.027740
      pz      :     0.996448  p :     1.510269
      px      :     0.485569
      py      :     0.028252
      dz2     :    -0.000698  d :    -0.001477
      dxz     :     0.000198
      dyz     :     0.000797
      dx2y2   :    -0.002114
      dxy     :     0.000340
  2 H s       :    -0.014099  s :    -0.014099
  3 H s       :    -0.014274  s :    -0.014274
  4 H s       :    -0.013997  s :    -0.013997
  5 H s       :    -0.069526  s :    -0.069526
  6 H s       :    -0.038427  s :    -0.038427


                      *****************************
                      * MAYER POPULATION ANALYSIS *
                      *****************************

  NA   - Mulliken gross atomic population
  ZA   - Total nuclear charge
  QA   - Mulliken gross atomic charge
  VA   - Mayer's total valence
  BVA  - Mayer's bonded valence
  FA   - Mayer's free valence

  ATOM       NA         ZA         QA         VA         BVA        FA
  0 C      6.8370     6.0000    -0.8370     3.7038     3.3285     0.3754
  1 N      7.4890     7.0000    -0.4890     2.8334     1.5572     1.2762
  2 H      0.7631     1.0000     0.2369     0.9097     0.9091     0.0006
  3 H      0.7638     1.0000     0.2362     0.9099     0.9092     0.0007
  4 H      0.7512     1.0000     0.2488     0.9080     0.9074     0.0006
  5 H      0.7004     1.0000     0.2996     0.8772     0.8560     0.0212
  6 H      0.6955     1.0000     0.3045     0.8671     0.8637     0.0034

  Mayer bond orders larger than 0.100000
B(  0-C ,  1-N ) :   0.1886 B(  0-C ,  2-H ) :   0.9175 B(  0-C ,  3-H ) :   0.9177 
B(  0-C ,  4-H ) :   0.9172 B(  0-C ,  5-H ) :   0.3837 B(  1-N ,  5-H ) :   0.4908 
B(  1-N ,  6-H ) :   0.8668 

-------
TIMINGS
-------

Total SCF time: 0 days 0 hours 2 min 10 sec 

Total time                  ....     130.178 sec
Sum of individual times     ....     119.325 sec  ( 91.7%)

Fock matrix formation       ....      96.628 sec  ( 74.2%)
  Split-RI-J                ....      10.827 sec  ( 11.2% of F)
  Chain of spheres X        ....       8.285 sec  (  8.6% of F)
  XC integration            ....      30.057 sec  ( 31.1% of F)
    Basis function eval.    ....       0.969 sec  (  3.2% of XC)
    Density eval.           ....       1.257 sec  (  4.2% of XC)
    XC-Functional eval.     ....       1.283 sec  (  4.3% of XC)
    XC-Potential eval.      ....       0.285 sec  (  0.9% of XC)
Diagonalization             ....       4.893 sec  (  3.8%)
Density matrix formation    ....       0.301 sec  (  0.2%)
Population analysis         ....       1.679 sec  (  1.3%)
Initial guess               ....       0.002 sec  (  0.0%)
Orbital Transformation      ....       0.000 sec  (  0.0%)
Orbital Orthonormalization  ....       0.000 sec  (  0.0%)
DIIS solution               ....      12.067 sec  (  9.3%)
Grid generation             ....       3.756 sec  (  2.9%)

Maximum memory used throughout the entire SCF-calculation: 45.4 MB


-------------------------------------------------------------------------------
                          DFT DISPERSION CORRECTION                            
                                                                               
                              DFTD3 V3.1  Rev 1                                
                          USING Becke-Johnson damping                          
-------------------------------------------------------------------------------
The PBEh-3c composite method is recognized
Using three-body term ABC
Active option DFTDOPT                   ...         4   

molecular C6(AA) [au] = 313.588120 


            DFT-D V3
 parameters
 s6 scaling factor         :     1.0000 
 a1 scaling factor         :     0.4860 
 s8 scaling factor         :     0.0000 
 a2 scaling factor         :     4.5000 
 Damping factor alpha9(ATM):    16.0000 
 ad hoc parameters k1-k3   :    16.0000     1.3333    -4.0000 

 Edisp/kcal,au: -0.931780045927  -0.001484885862 
 E6   /kcal   :  -0.932231759 
 E8   /kcal   :  -0.000000000 
 E6(ABC)      :   0.000451713 
 % E8         :   0.000000000 
 % E6(ABC)    :  -0.048478525 

-------------------------   ----------------
Dispersion correction           -0.001484886
-------------------------   ----------------

------------------   -----------------
gCP correction             0.003549932
------------------   -----------------

-------------------------   --------------------
FINAL SINGLE POINT ENERGY       -95.491997575044
-------------------------   --------------------


                            ***************************************
                            *     ORCA property calculations      *
                            ***************************************

                                    ---------------------
                                    Active property flags
                                    ---------------------
   (+) Dipole Moment


------------------------------------------------------------------------------
                       ORCA ELECTRIC PROPERTIES CALCULATION
------------------------------------------------------------------------------

Dipole Moment Calculation                       ... on
Quadrupole Moment Calculation                   ... off
Polarizability Calculation                      ... off
GBWName                                         ... pbeh-3c.gbw
Electron density                                ... pbeh-3c.scfp
The origin for moment calculation is the CENTER OF MASS  = ( 0.806817,  0.246215 -0.000021)

-------------
DIPOLE MOMENT
-------------
                                X             Y             Z
Electronic contribution:      2.44280       0.31982       0.00004
Nuclear contribution   :     -2.82925      -0.91596       0.00008
                        -----------------------------------------
Total Dipole Moment    :     -0.38646      -0.59614       0.00013
                        -----------------------------------------
Magnitude (a.u.)       :      0.71044
Magnitude (Debye)      :      1.80580



--------------------
Rotational spectrum 
--------------------
 
Rotational constants in cm-1:     3.883597     0.305434     0.300045 
Rotational constants in MHz : 116427.299250  9156.670204  8995.132797 

 Dipole components along the rotational axes: 
x,y,z [a.u.] :    -0.401281     0.586261     0.000135 
x,y,z [Debye]:    -1.019975     1.490157     0.000343 

 

Timings for individual modules:

Sum of individual times         ...      133.716 sec (=   2.229 min)
GTO integral calculation        ...        2.161 sec (=   0.036 min)   1.6 %
SCF iterations                  ...      131.555 sec (=   2.193 min)  98.4 %
                             ****ORCA TERMINATED NORMALLY****
TOTAL RUN TIME: 0 days 0 hours 2 minutes 21 seconds 627 msec
