
                                 *****************
                                 * O   R   C   A *
                                 *****************

                                            #,                                       
                                            ###                                      
                                            ####                                     
                                            #####                                    
                                            ######                                   
                                           ########,                                 
                                     ,,################,,,,,                         
                               ,,#################################,,                 
                          ,,##########################################,,             
                       ,#########################################, ''#####,          
                    ,#############################################,,   '####,        
                  ,##################################################,,,,####,       
                ,###########''''           ''''###############################       
              ,#####''   ,,,,##########,,,,          '''####'''          '####       
            ,##' ,,,,###########################,,,                        '##       
           ' ,,###''''                  '''############,,,                           
         ,,##''                                '''############,,,,        ,,,,,,###''
      ,#''                                            '''#######################'''  
     '                                                          ''''####''''         
             ,#######,   #######,   ,#######,      ##                                
            ,#'     '#,  ##    ##  ,#'     '#,    #''#        ######   ,####,        
            ##       ##  ##   ,#'  ##            #'  '#       #        #'  '#        
            ##       ##  #######   ##           ,######,      #####,   #    #        
            '#,     ,#'  ##    ##  '#,     ,#' ,#      #,         ##   #,  ,#        
             '#######'   ##     ##  '#######'  #'      '#     #####' # '####'        



                  #######################################################
                  #                        -***-                        #
                  #          Department of theory and spectroscopy      #
                  #    Directorship and core code : Frank Neese         #
                  #        Max Planck Institute fuer Kohlenforschung    #
                  #                Kaiser Wilhelm Platz 1               #
                  #                 D-45470 Muelheim/Ruhr               #
                  #                      Germany                        #
                  #                                                     #
                  #                  All rights reserved                #
                  #                        -***-                        #
                  #######################################################


                         Program Version 5.0.3 -  RELEASE  -


 With contributions from (in alphabetic order):
   Daniel Aravena         : Magnetic Suceptibility
   Michael Atanasov       : Ab Initio Ligand Field Theory (pilot matlab implementation)
   Alexander A. Auer      : GIAO ZORA, VPT2 properties, NMR spectrum
   Ute Becker             : Parallelization
   Giovanni Bistoni       : ED, misc. LED, open-shell LED, HFLD
   Martin Brehm           : Molecular dynamics
   Dmytro Bykov           : SCF Hessian
   Vijay G. Chilkuri      : MRCI spin determinant printing, contributions to CSF-ICE
   Dipayan Datta          : RHF DLPNO-CCSD density
   Achintya Kumar Dutta   : EOM-CC, STEOM-CC
   Dmitry Ganyushin       : Spin-Orbit,Spin-Spin,Magnetic field MRCI
   Miquel Garcia          : C-PCM and meta-GGA Hessian, CC/C-PCM, Gaussian charge scheme
   Yang Guo               : DLPNO-NEVPT2, F12-NEVPT2, CIM, IAO-localization
   Andreas Hansen         : Spin unrestricted coupled pair/coupled cluster methods
   Benjamin Helmich-Paris : MC-RPA, TRAH-SCF, COSX integrals
   Lee Huntington         : MR-EOM, pCC
   Robert Izsak           : Overlap fitted RIJCOSX, COSX-SCS-MP3, EOM
   Marcus Kettner         : VPT2
   Christian Kollmar      : KDIIS, OOCD, Brueckner-CCSD(T), CCSD density, CASPT2, CASPT2-K
   Simone Kossmann        : Meta GGA functionals, TD-DFT gradient, OOMP2, MP2 Hessian
   Martin Krupicka        : Initial AUTO-CI
   Lucas Lang             : DCDCAS
   Marvin Lechner         : AUTO-CI (C++ implementation), FIC-MRCC
   Dagmar Lenk            : GEPOL surface, SMD
   Dimitrios Liakos       : Extrapolation schemes; Compound Job, initial MDCI parallelization
   Dimitrios Manganas     : Further ROCIS development; embedding schemes
   Dimitrios Pantazis     : SARC Basis sets
   Anastasios Papadopoulos: AUTO-CI, single reference methods and gradients
   Taras Petrenko         : DFT Hessian,TD-DFT gradient, ASA, ECA, R-Raman, ABS, FL, XAS/XES, NRVS
   Peter Pinski           : DLPNO-MP2, DLPNO-MP2 Gradient
   Christoph Reimann      : Effective Core Potentials
   Marius Retegan         : Local ZFS, SOC
   Christoph Riplinger    : Optimizer, TS searches, QM/MM, DLPNO-CCSD(T), (RO)-DLPNO pert. Triples
   Tobias Risthaus        : Range-separated hybrids, TD-DFT gradient, RPA, STAB
   Michael Roemelt        : Original ROCIS implementation
   Masaaki Saitow         : Open-shell DLPNO-CCSD energy and density
   Barbara Sandhoefer     : DKH picture change effects
   Avijit Sen             : IP-ROCIS
   Kantharuban Sivalingam : CASSCF convergence, NEVPT2, FIC-MRCI
   Bernardo de Souza      : ESD, SOC TD-DFT
   Georgi Stoychev        : AutoAux, RI-MP2 NMR, DLPNO-MP2 response
   Willem Van den Heuvel  : Paramagnetic NMR
   Boris Wezisla          : Elementary symmetry handling
   Frank Wennmohs         : Technical directorship


 We gratefully acknowledge several colleagues who have allowed us to
 interface, adapt or use parts of their codes:
   Stefan Grimme, W. Hujo, H. Kruse, P. Pracht,  : VdW corrections, initial TS optimization,
                  C. Bannwarth, S. Ehlert          DFT functionals, gCP, sTDA/sTD-DF
   Ed Valeev, F. Pavosevic, A. Kumar             : LibInt (2-el integral package), F12 methods
   Garnet Chan, S. Sharma, J. Yang, R. Olivares  : DMRG
   Ulf Ekstrom                                   : XCFun DFT Library
   Mihaly Kallay                                 : mrcc  (arbitrary order and MRCC methods)
   Jiri Pittner, Ondrej Demel                    : Mk-CCSD
   Frank Weinhold                                : gennbo (NPA and NBO analysis)
   Christopher J. Cramer and Donald G. Truhlar   : smd solvation model
   Lars Goerigk                                  : TD-DFT with DH, B97 family of functionals
   V. Asgeirsson, H. Jonsson                     : NEB implementation
   FAccTs GmbH                                   : IRC, NEB, NEB-TS, DLPNO-Multilevel, CI-OPT
                                                   MM, QMMM, 2- and 3-layer-ONIOM, Crystal-QMMM,
                                                   LR-CPCM, SF, NACMEs, symmetry and pop. for TD-DFT,
                                                   nearIR, NL-DFT gradient (VV10), updates on ESD,
                                                   ML-optimized integration grids
   S Lehtola, MJT Oliveira, MAL Marques          : LibXC Library
   Liviu Ungur et al                             : ANISO software


 Your calculation uses the libint2 library for the computation of 2-el integrals
 For citations please refer to: http://libint.valeyev.net

 Your ORCA version has been built with support for libXC version: 5.1.0
 For citations please refer to: https://tddft.org/programs/libxc/

 This ORCA versions uses:
   CBLAS   interface :  Fast vector & matrix operations
   LAPACKE interface :  Fast linear algebra routines
   SCALAPACK package :  Parallel linear algebra routines
   Shared memory     :  Shared parallel matrices
   BLAS/LAPACK       :  OpenBLAS 0.3.15  USE64BITINT DYNAMIC_ARCH NO_AFFINITY Haswell SINGLE_THREADED
        Core in use  :  Haswell
   Copyright (c) 2011-2014, The OpenBLAS Project




***************************************
The coordinates will be read from file: 38A.xyz
***************************************


Your calculation utilizes the geometrical counterpoise correction gCP
Please cite in your paper:
H.Kruse, S. Grimme J.Chem.Phys., 136, (2012), 154101 
   

Your calculation utilizes the atom-pairwise dispersion correction
with the Becke-Johnson damping scheme (D3BJ)
Cite in your paper:
S.Grimme, S.Ehrlich, L.Goerigk, J Comput Chem, (2011), 32, 1456–1465 
S.Grimme, J.Antony, S.Ehrlich and H.Krieg, J.Chem.Phys., 132, (2010), 154104 
   

Your calculation employs the composite approach PBEh-3c.
Please cite in your paper:
S. Grimme, J. G. Brandenburg, C. Bannwarth, A. Hansen J.Chem.Phys., 143, (2015), 054107 
   

================================================================================

----- Orbital basis set information -----
Your calculation utilizes the basis: def2-mSVP

----- AuxJ basis set information -----
Your calculation utilizes the auxiliary basis: def2/J
   F. Weigend, Phys. Chem. Chem. Phys. 8, 1057 (2006).

================================================================================
                                        WARNINGS
                       Please study these warnings very carefully!
================================================================================


INFO   : the flag for use of the SHARK integral package has been found!

================================================================================
                                       INPUT FILE
================================================================================
NAME = pbeh-3c.inp
|  1> ! PBEh-3c def2/J TightSCF DefGrid3
|  2> 
|  3> %maxcore 60000
|  4> 
|  5> %pal
|  6> nprocs 4
|  7> end
|  8> 
|  9> *xyzfile 0 1 38A.xyz
| 10> 
| 11>                          ****END OF INPUT****
================================================================================

                       ****************************
                       * Single Point Calculation *
                       ****************************

---------------------------------
CARTESIAN COORDINATES (ANGSTROEM)
---------------------------------
  C      0.999439   -0.799325    0.176099
  H      1.547125   -1.185837   -0.682431
  H      1.463943   -1.222257    1.065174
  C      1.033508    0.751029    0.179653
  H      1.553153    1.115617   -0.705903
  H      1.558817    1.152338    1.044686
  C     -0.436893    1.194839    0.138028
  H     -0.573710    2.157397   -0.352284
  H     -0.832183    1.281592    1.152219
  C     -1.139548    0.039724   -0.572505
  H     -0.906323    0.065690   -1.639655
  H     -2.223105    0.058956   -0.464577
  C     -0.488101   -1.182369    0.073459
  H     -0.647832   -2.104500   -0.482859
  H     -0.908290   -1.322892    1.070897

----------------------------
CARTESIAN COORDINATES (A.U.)
----------------------------
  NO LB      ZA    FRAG     MASS         X           Y           Z
   0 C     6.0000    0    12.011    1.888666   -1.510506    0.332779
   1 H     1.0000    0     1.008    2.923642   -2.240908   -1.289607
   2 H     1.0000    0     1.008    2.766452   -2.309732    2.012888
   3 C     6.0000    0    12.011    1.953047    1.419238    0.339495
   4 H     1.0000    0     1.008    2.935034    2.108210   -1.333964
   5 H     1.0000    0     1.008    2.945737    2.177604    1.974170
   6 C     6.0000    0    12.011   -0.825608    2.257918    0.260835
   7 H     1.0000    0     1.008   -1.084154    4.076890   -0.665720
   8 H     1.0000    0     1.008   -1.572599    2.421857    2.177377
   9 C     6.0000    0    12.011   -2.153433    0.075067   -1.081878
  10 H     1.0000    0     1.008   -1.712703    0.124136   -3.098500
  11 H     1.0000    0     1.008   -4.201061    0.111410   -0.877923
  12 C     6.0000    0    12.011   -0.922377   -2.234354    0.138817
  13 H     1.0000    0     1.008   -1.224224   -3.976930   -0.912471
  14 H     1.0000    0     1.008   -1.716420   -2.499903    2.023701

--------------------------------
INTERNAL COORDINATES (ANGSTROEM)
--------------------------------
 C      0   0   0     0.000000000000     0.00000000     0.00000000
 H      1   0   0     1.089231147330     0.00000000     0.00000000
 H      1   2   0     1.088618787501   106.93660590     0.00000000
 C      1   2   3     1.550732264167   110.21362111   122.15848772
 H      4   1   2     1.089570860803   110.06890308     2.96890300
 H      4   1   2     1.088706183977   112.39211652   243.81814490
 C      4   1   2     1.536483084788   105.52690164   121.30848540
 H      7   4   1     1.088872361024   112.81675817   209.07680550
 H      7   4   1     1.091953543254   110.13419808    88.82557396
 C      7   4   1     1.527374231173   103.55679392   332.39229825
 H     10   7   4     1.092647073436   109.76579242   285.87280587
 H     10   7   4     1.089089565251   113.46872568   164.96476658
 C     10   7   4     1.528124128028   102.24273578    42.52715274
 H     13  10   7     1.088728322755   113.50411033   196.06454780
 H     13  10   7     1.091415963032   108.97530749    76.25316932

---------------------------
INTERNAL COORDINATES (A.U.)
---------------------------
 C      0   0   0     0.000000000000     0.00000000     0.00000000
 H      1   0   0     2.058348564991     0.00000000     0.00000000
 H      1   2   0     2.057191372618   106.93660590     0.00000000
 C      1   2   3     2.930459286311   110.21362111   122.15848772
 H      4   1   2     2.058990530419   110.06890308     2.96890300
 H      4   1   2     2.057356528022   112.39211652   243.81814490
 C      4   1   2     2.903532239652   105.52690164   121.30848540
 H      7   4   1     2.057670557132   112.81675817   209.07680550
 H      7   4   1     2.063493147715   110.13419808    88.82557396
 C      7   4   1     2.886319000925   103.55679392   332.39229825
 H     10   7   4     2.064803729824   109.76579242   285.87280587
 H     10   7   4     2.058081013636   113.46872568   164.96476658
 C     10   7   4     2.887736100610   102.24273578    42.52715274
 H     13  10   7     2.057398364251   113.50411033   196.06454780
 H     13  10   7     2.062477268321   108.97530749    76.25316932

---------------------
BASIS SET INFORMATION
---------------------
There are 2 groups of distinct atoms

 Group   1 Type C   : 8s4p1d contracted to 4s2p1d pattern {5111/31/1}
 Group   2 Type H   : 4s contracted to 2s pattern {31}

Atom   0C    basis set group =>   1
Atom   1H    basis set group =>   2
Atom   2H    basis set group =>   2
Atom   3C    basis set group =>   1
Atom   4H    basis set group =>   2
Atom   5H    basis set group =>   2
Atom   6C    basis set group =>   1
Atom   7H    basis set group =>   2
Atom   8H    basis set group =>   2
Atom   9C    basis set group =>   1
Atom  10H    basis set group =>   2
Atom  11H    basis set group =>   2
Atom  12C    basis set group =>   1
Atom  13H    basis set group =>   2
Atom  14H    basis set group =>   2
---------------------------------
AUXILIARY/J BASIS SET INFORMATION
---------------------------------
There are 2 groups of distinct atoms

 Group   1 Type C   : 12s5p4d2f1g contracted to 6s4p3d1f1g pattern {711111/2111/211/2/1}
 Group   2 Type H   : 5s2p1d contracted to 3s1p1d pattern {311/2/1}

Atom   0C    basis set group =>   1
Atom   1H    basis set group =>   2
Atom   2H    basis set group =>   2
Atom   3C    basis set group =>   1
Atom   4H    basis set group =>   2
Atom   5H    basis set group =>   2
Atom   6C    basis set group =>   1
Atom   7H    basis set group =>   2
Atom   8H    basis set group =>   2
Atom   9C    basis set group =>   1
Atom  10H    basis set group =>   2
Atom  11H    basis set group =>   2
Atom  12C    basis set group =>   1
Atom  13H    basis set group =>   2
Atom  14H    basis set group =>   2


           ************************************************************
           *        Program running with 4 parallel MPI-processes     *
           *              working on a common directory               *
           ************************************************************
------------------------------------------------------------------------------
                           ORCA GTO INTEGRAL CALCULATION
                           -- RI-GTO INTEGRALS CHOSEN --
------------------------------------------------------------------------------
------------------------------------------------------------------------------
                   ___                                                        
                  /   \      - P O W E R E D   B Y -                         
                 /     \                                                     
                 |  |  |   _    _      __       _____    __    __             
                 |  |  |  | |  | |    /  \     |  _  \  |  |  /  |          
                  \  \/   | |  | |   /    \    | | | |  |  | /  /          
                 / \  \   | |__| |  /  /\  \   | |_| |  |  |/  /          
                |  |  |   |  __  | /  /__\  \  |    /   |      \           
                |  |  |   | |  | | |   __   |  |    \   |  |\   \          
                \     /   | |  | | |  |  |  |  | |\  \  |  | \   \       
                 \___/    |_|  |_| |__|  |__|  |_| \__\ |__|  \__/        
                                                                              
                      - O R C A' S   B I G   F R I E N D -                    
                                      &                                       
                       - I N T E G R A L  F E E D E R -                       
                                                                              
 v1 FN, 2020, v2 2021                                                         
------------------------------------------------------------------------------


Reading SHARK input file pbeh-3c.SHARKINP.tmp ... ok
----------------------
SHARK INTEGRAL PACKAGE
----------------------

Number of atoms                             ...     15
Number of basis functions                   ...     95
Number of shells                            ...     55
Maximum angular momentum                    ...      2
Integral batch strategy                     ... SHARK/LIBINT Hybrid
RI-J (if used) integral strategy            ... SPLIT-RIJ (Revised 2003 algorithm where possible)
Printlevel                                  ...      1
Contraction scheme used                     ... SEGMENTED contraction
Coulomb Range Separation                    ... NOT USED
Exchange Range Separation                   ... NOT USED
Finite Nucleus Model                        ... NOT USED
Auxiliary Coulomb fitting basis             ... AVAILABLE
   # of basis functions in Aux-J            ...    355
   # of shells in Aux-J                     ...    125
   Maximum angular momentum in Aux-J        ...      4
Auxiliary J/K fitting basis                 ... NOT available
Auxiliary Correlation fitting basis         ... NOT available
Auxiliary 'external' fitting basis          ... NOT available
Integral threshold                          ...     2.500000e-11
Primitive cut-off                           ...     2.500000e-12
Primitive pair pre-selection threshold      ...     2.500000e-12

Calculating pre-screening integrals         ... done (  0.1 sec) Dimension = 55
Organizing shell pair data                  ... done (  0.4 sec)
Shell pair information
Total number of shell pairs                 ...      1540
Shell pairs after pre-screening             ...      1515
Total number of primitive shell pairs       ...      5660
Primitive shell pairs kept                  ...      4276
          la=0 lb=0:    795 shell pairs
          la=1 lb=0:    400 shell pairs
          la=1 lb=1:     55 shell pairs
          la=2 lb=0:    200 shell pairs
          la=2 lb=1:     50 shell pairs
          la=2 lb=2:     15 shell pairs

Calculating one electron integrals          ... done (  0.0 sec)
Calculating RI/J V-Matrix + Cholesky decomp.... done (  0.1 sec)
Calculating Nuclear repulsion               ... done (  0.0 sec) ENN=    188.383600427165 Eh

SHARK setup successfully completed in   1.7 seconds

Maximum memory used throughout the entire GTOINT-calculation: 10.2 MB


           ************************************************************
           *        Program running with 4 parallel MPI-processes     *
           *              working on a common directory               *
           ************************************************************
-------------------------------------------------------------------------------
                                 ORCA SCF
-------------------------------------------------------------------------------

------------
SCF SETTINGS
------------
Hamiltonian:
 Density Functional     Method          .... DFT(GTOs)
 Exchange Functional    Exchange        .... PBE
   PBE kappa parameter   XKappa         ....  1.024500
   PBE mue parameter    XMuePBE         ....  0.123457
 Correlation Functional Correlation     .... PBE
   PBE beta parameter  CBetaPBE         ....  0.030000
 LDA part of GGA corr.  LDAOpt          .... PW91-LDA
 Gradients option       PostSCFGGA      .... off
 Hybrid DFT is turned on
   Fraction HF Exchange ScalHFX         ....  0.420000
   Scaling of DF-GGA-X  ScalDFX         ....  0.580000
   Scaling of DF-GGA-C  ScalDFC         ....  1.000000
   Scaling of DF-LDA-C  ScalLDAC        ....  1.000000
   Perturbative correction              ....  0.000000
   Density functional embedding theory  .... OFF
 RI-approximation to the Coulomb term is turned on
   Number of AuxJ basis functions       .... 355
   RIJ-ON(X) (HFX calculated with O(N)) .... on
   Number of AuxJ basis functions       .... 355
   RIJ-COSX (HFX calculated with COS-X)).... on


General Settings:
 Integral files         IntName         .... pbeh-3c
 Hartree-Fock type      HFTyp           .... RHF
 Total Charge           Charge          ....    0
 Multiplicity           Mult            ....    1
 Number of Electrons    NEL             ....   40
 Basis Dimension        Dim             ....   95
 Nuclear Repulsion      ENuc            ....    188.3836004272 Eh

Convergence Acceleration:
 DIIS                   CNVDIIS         .... on
   Start iteration      DIISMaxIt       ....    12
   Startup error        DIISStart       ....  0.200000
   # of expansion vecs  DIISMaxEq       ....     5
   Bias factor          DIISBfac        ....   1.050
   Max. coefficient     DIISMaxC        ....  10.000
 Trust-Rad. Augm. Hess. CNVTRAH         .... auto
   Auto Start mean grad. ratio tolernc. ....  1.125000
   Auto Start start iteration           ....    20
   Auto Start num. interpolation iter.  ....    10
   Max. Number of Micro iterations      ....    16
   Max. Number of Macro iterations      .... Maxiter - #DIIS iter
   Number of Davidson start vectors     ....     2
   Converg. threshold I  (grad. norm)   ....   1.000e-05
   Converg. threshold II (energy diff.) ....   1.000e-08
   Grad. Scal. Fac. for Micro threshold ....   0.100
   Minimum threshold for Micro iter.    ....   0.010
   NR start threshold (gradient norm)   ....   0.001
   Initial trust radius                 ....   0.400
   Minimum AH scaling param. (alpha)    ....   1.000
   Maximum AH scaling param. (alpha)    .... 1000.000
   Orbital update algorithm             .... Taylor
   White noise on init. David. guess    .... on
   Maximum white noise                  ....   0.010
   Quad. conv. algorithm                .... NR
   COSX micro iterations for RIJONX calc.... off
 SOSCF                  CNVSOSCF        .... on
   Start iteration      SOSCFMaxIt      ....   150
   Startup grad/error   SOSCFStart      ....  0.003300
 Level Shifting         CNVShift        .... on
   Level shift para.    LevelShift      ....    0.2500
   Turn off err/grad.   ShiftErr        ....    0.0010
 Zerner damping         CNVZerner       .... off
 Static damping         CNVDamp         .... on
   Fraction old density DampFac         ....    0.7000
   Max. Damping (<1)    DampMax         ....    0.9800
   Min. Damping (>=0)   DampMin         ....    0.0000
   Turn off err/grad.   DampErr         ....    0.1000
 Fernandez-Rico         CNVRico         .... off

SCF Procedure:
 Maximum # iterations   MaxIter         ....   125
 SCF integral mode      SCFMode         .... Direct
   Integral package                     .... SHARK and LIBINT hybrid scheme
 Reset frequency        DirectResetFreq ....    20
 Integral Threshold     Thresh          ....  2.500e-11 Eh
 Primitive CutOff       TCut            ....  2.500e-12 Eh

Convergence Tolerance:
 Convergence Check Mode ConvCheckMode   .... Total+1el-Energy
 Convergence forced     ConvForced      .... 0
 Energy Change          TolE            ....  1.000e-08 Eh
 1-El. energy change                    ....  1.000e-05 Eh
 Orbital Gradient       TolG            ....  1.000e-05
 Orbital Rotation angle TolX            ....  1.000e-05
 DIIS Error             TolErr          ....  5.000e-07


Diagonalization of the overlap matrix:
Smallest eigenvalue                        ... 5.362e-03
Time for diagonalization                   ...    0.002 sec
Threshold for overlap eigenvalues          ... 1.000e-08
Number of eigenvalues below threshold      ... 0
Time for construction of square roots      ...    0.099 sec
Total time needed                          ...    0.101 sec

--------------------------------
INITIAL GUESS: MINIMAL BASIS EHT
--------------------------------
The minimal basis has 35 functions
EHT matrix was diagonalized
Basis set overlap was calculated now projecting the orbitals
Using GuessMode=FMatrix for the initial guess
C*T matrix was formed
Effective Fockian was calculated
Effective Fockian was diagonalized
Initial density was built
                      ------------------
                      INITIAL GUESS DONE
                      ------------------
-------------------
DFT GRID GENERATION
-------------------

General Integration Accuracy     IntAcc      ... 4.959
Radial Grid Type                 RadialGrid  ... OptM3 with GC (2021)
Angular Grid (max. ang.)         AngularGrid ... 6 (Lebedev-590)
Angular grid pruning method      GridPruning ... 4 (adaptive)
Weight generation scheme         WeightScheme... Becke
Basis function cutoff            BFCut       ... 1.0000e-11
Integration weight cutoff        WCut        ... 1.0000e-14
Angular grids for H and He will be reduced by one unit
Partially contracted basis set               ... off
Rotationally invariant grid construction     ... off

Total number of grid points                  ...   157946
Total number of batches                      ...     2476
Average number of points per batch           ...       63
Average number of grid points per atom       ...    10530
Time for grid setup =    3.339 sec

--------------------
COSX GRID GENERATION
--------------------

GRIDX 1
-------
General Integration Accuracy     IntAcc      ... 4.020
Radial Grid Type                 RadialGrid  ... OptM3 with GC (2021)
Angular Grid (max. ang.)         AngularGrid ... 2 (Lebedev-110)
Angular grid pruning method      GridPruning ... 4 (adaptive)
Weight generation scheme         WeightScheme... Becke
Basis function cutoff            BFCut       ... 1.0000e-11
Integration weight cutoff        WCut        ... 1.0000e-14
Angular grids for H and He will be reduced by one unit
Partially contracted basis set               ... on
Rotationally invariant grid construction     ... off

Total number of grid points                  ...    16564
Total number of batches                      ...      266
Average number of points per batch           ...       62
Average number of grid points per atom       ...     1104
UseSFitting                                  ... on

GRIDX 2
-------
General Integration Accuracy     IntAcc      ... 4.338
Radial Grid Type                 RadialGrid  ... OptM3 with GC (2021)
Angular Grid (max. ang.)         AngularGrid ... 3 (Lebedev-194)
Angular grid pruning method      GridPruning ... 4 (adaptive)
Weight generation scheme         WeightScheme... Becke
Basis function cutoff            BFCut       ... 1.0000e-11
Integration weight cutoff        WCut        ... 1.0000e-14
Angular grids for H and He will be reduced by one unit
Partially contracted basis set               ... on
Rotationally invariant grid construction     ... off

Total number of grid points                  ...    36132
Total number of batches                      ...      571
Average number of points per batch           ...       63
Average number of grid points per atom       ...     2409
UseSFitting                                  ... on

GRIDX 3
-------
General Integration Accuracy     IntAcc      ... 4.871
Radial Grid Type                 RadialGrid  ... OptM3 with GC (2021)
Angular Grid (max. ang.)         AngularGrid ... 4 (Lebedev-302)
Angular grid pruning method      GridPruning ... 4 (adaptive)
Weight generation scheme         WeightScheme... Becke
Basis function cutoff            BFCut       ... 1.0000e-11
Integration weight cutoff        WCut        ... 1.0000e-14
Angular grids for H and He will be reduced by one unit
Partially contracted basis set               ... on
Rotationally invariant grid construction     ... off

Total number of grid points                  ...    72049
Total number of batches                      ...     1134
Average number of points per batch           ...       63
Average number of grid points per atom       ...     4803
UseSFitting                                  ... on

Time for X-Grid setup             =    3.403 sec

--------------
SCF ITERATIONS
--------------
ITER       Energy         Delta-E        Max-DP      RMS-DP      [F,P]     Damp
               ***  Starting incremental Fock matrix formation  ***
  0   -195.7828924823   0.000000000000 0.02538174  0.00236339  0.3956408 0.7000
  1   -195.8874520107  -0.104559528396 0.01892664  0.00179620  0.2800133 0.7000
                               ***Turning on DIIS***
  2   -195.9623400896  -0.074888078849 0.01411944  0.00134014  0.1971697 0.7000
  3   -196.0154423154  -0.053102225798 0.01102681  0.00104391  0.1387135 0.7000
  4   -196.0530076159  -0.037565300552 0.02752249  0.00260076  0.0971584 0.0000
                      *** Initiating the SOSCF procedure ***
                           *** Shutting down DIIS ***
                      *** Re-Reading the Fockian *** 
                      *** Removing any level shift *** 
ITER      Energy       Delta-E        Grad      Rot      Max-DP    RMS-DP
  5   -196.14215521  -0.0891475973  0.000943  0.000943  0.001209  0.000112
               *** Restarting incremental Fock matrix formation ***
  6   -196.14217367  -0.0000184606  0.000327  0.000653  0.000739  0.000075
  7   -196.14217652  -0.0000028485  0.000225  0.000263  0.000322  0.000024
  8   -196.14217744  -0.0000009187  0.000059  0.000074  0.000112  0.000009
                  ***Gradient check signals convergence***
              ***Rediagonalizing the Fockian in SOSCF/NRSCF***

               *****************************************************
               *                     SUCCESS                       *
               *           SCF CONVERGED AFTER   9 CYCLES          *
               *****************************************************

Old exchange energy                            =    -12.398649743 Eh
New exchange energy                            =    -12.398654656 Eh
Exchange energy change after final integration =     -0.000004913 Eh
Total energy after final integration           =   -196.142182409 Eh
Final COS-X integration done in                =     2.311 sec

----------------
TOTAL SCF ENERGY
----------------

Total Energy       :         -196.14218241 Eh           -5337.30013 eV

Components:
Nuclear Repulsion  :          188.38360043 Eh            5126.17838 eV
Electronic Energy  :         -384.52578284 Eh          -10463.47850 eV
One Electron Energy:         -635.95720294 Eh          -17305.27528 eV
Two Electron Energy:          251.43142010 Eh            6841.79677 eV
Max COSX asymmetry :            0.00000070 Eh               0.00002 eV

Virial components:
Potential Energy   :         -390.64820607 Eh          -10630.07811 eV
Kinetic Energy     :          194.50602366 Eh            5292.77798 eV
Virial Ratio       :            2.00841187


DFT components:
N(Alpha)           :       20.000002737288 electrons
N(Beta)            :       20.000002737288 electrons
N(Total)           :       40.000005474575 electrons
E(X)               :      -16.422829349458 Eh       
E(C)               :       -1.699163934689 Eh       
E(XC)              :      -18.121993284147 Eh       
DFET-embed. en.    :        0.000000000000 Eh       

---------------
SCF CONVERGENCE
---------------

  Last Energy change         ...   -5.4865e-08  Tolerance :   1.0000e-08
  Last MAX-Density change    ...    1.5543e-15  Tolerance :   1.0000e-07
  Last RMS-Density change    ...    6.0737e-17  Tolerance :   5.0000e-09
  Last Orbital Gradient      ...    2.4580e-06  Tolerance :   1.0000e-05
  Last Orbital Rotation      ...    5.1682e-06  Tolerance :   1.0000e-05

             **** THE GBW FILE WAS UPDATED (pbeh-3c.gbw) ****
             **** DENSITY pbeh-3c.scfp WAS UPDATED ****
             **** ENERGY FILE WAS UPDATED (pbeh-3c.en.tmp) ****
             **** THE GBW FILE WAS UPDATED (pbeh-3c.gbw) ****
             **** DENSITY pbeh-3c.scfp WAS UPDATED ****
----------------
ORBITAL ENERGIES
----------------

  NO   OCC          E(Eh)            E(eV) 
   0   2.0000     -10.424551      -283.6664 
   1   2.0000     -10.424475      -283.6644 
   2   2.0000     -10.424453      -283.6638 
   3   2.0000     -10.424239      -283.6580 
   4   2.0000     -10.424148      -283.6555 
   5   2.0000      -0.924705       -25.1625 
   6   2.0000      -0.786381       -21.3985 
   7   2.0000      -0.785678       -21.3794 
   8   2.0000      -0.636576       -17.3221 
   9   2.0000      -0.627210       -17.0672 
  10   2.0000      -0.538853       -14.6629 
  11   2.0000      -0.535664       -14.5762 
  12   2.0000      -0.467041       -12.7088 
  13   2.0000      -0.465377       -12.6636 
  14   2.0000      -0.384825       -10.4716 
  15   2.0000      -0.383861       -10.4454 
  16   2.0000      -0.379377       -10.3234 
  17   2.0000      -0.375171       -10.2089 
  18   2.0000      -0.369128       -10.0445 
  19   2.0000      -0.358690        -9.7604 
  20   0.0000       0.131894         3.5890 
  21   0.0000       0.146963         3.9991 
  22   0.0000       0.191700         5.2164 
  23   0.0000       0.192086         5.2269 
  24   0.0000       0.220853         6.0097 
  25   0.0000       0.222176         6.0457 
  26   0.0000       0.223577         6.0838 
  27   0.0000       0.229012         6.2317 
  28   0.0000       0.232706         6.3322 
  29   0.0000       0.243410         6.6235 
  30   0.0000       0.259466         7.0604 
  31   0.0000       0.269121         7.3231 
  32   0.0000       0.305504         8.3132 
  33   0.0000       0.328165         8.9298 
  34   0.0000       0.349071         9.4987 
  35   0.0000       0.513556        13.9746 
  36   0.0000       0.526931        14.3385 
  37   0.0000       0.539446        14.6791 
  38   0.0000       0.542919        14.7736 
  39   0.0000       0.553776        15.0690 
  40   0.0000       0.574033        15.6202 
  41   0.0000       0.663512        18.0551 
  42   0.0000       0.674297        18.3486 
  43   0.0000       0.681911        18.5557 
  44   0.0000       0.683268        18.5927 
  45   0.0000       0.686487        18.6802 
  46   0.0000       0.735893        20.0247 
  47   0.0000       0.791958        21.5503 
  48   0.0000       0.806713        21.9518 
  49   0.0000       0.944568        25.7030 
  50   0.0000       0.953596        25.9487 
  51   0.0000       0.985827        26.8257 
  52   0.0000       1.006199        27.3801 
  53   0.0000       1.020005        27.7558 
  54   0.0000       1.040752        28.3203 
  55   0.0000       1.062468        28.9112 
  56   0.0000       1.068282        29.0694 
  57   0.0000       1.074242        29.2316 
  58   0.0000       1.088081        29.6082 
  59   0.0000       1.091961        29.7138 
  60   0.0000       1.176047        32.0019 
  61   0.0000       1.310709        35.6662 
  62   0.0000       1.340644        36.4808 
  63   0.0000       1.391918        37.8760 
  64   0.0000       1.513179        41.1757 
  65   0.0000       1.614459        43.9317 
  66   0.0000       1.682773        45.7906 
  67   0.0000       1.743287        47.4373 
  68   0.0000       1.837893        50.0116 
  69   0.0000       1.868187        50.8360 
  70   0.0000       1.875973        51.0478 
  71   0.0000       1.911893        52.0253 
  72   0.0000       2.027417        55.1688 
  73   0.0000       2.046236        55.6809 
  74   0.0000       2.067565        56.2613 
  75   0.0000       2.103123        57.2289 
  76   0.0000       2.124460        57.8095 
  77   0.0000       2.147587        58.4388 
  78   0.0000       2.231004        60.7087 
  79   0.0000       2.310603        62.8747 
  80   0.0000       2.312597        62.9290 
  81   0.0000       2.422674        65.9243 
  82   0.0000       2.458881        66.9096 
  83   0.0000       2.518347        68.5277 
  84   0.0000       2.605481        70.8988 
  85   0.0000       2.615872        71.1815 
  86   0.0000       2.650546        72.1250 
  87   0.0000       2.657155        72.3049 
  88   0.0000       2.735627        74.4402 
  89   0.0000       2.883839        78.4733 
  90   0.0000      13.542495       368.5100 
  91   0.0000      13.873484       377.5167 
  92   0.0000      13.874117       377.5339 
  93   0.0000      14.059783       382.5862 
  94   0.0000      14.115573       384.1043 

                    ********************************
                    * MULLIKEN POPULATION ANALYSIS *
                    ********************************

-----------------------
MULLIKEN ATOMIC CHARGES
-----------------------
   0 C :   -0.432687
   1 H :    0.216527
   2 H :    0.219449
   3 C :   -0.434093
   4 H :    0.215683
   5 H :    0.219999
   6 C :   -0.430830
   7 H :    0.220426
   8 H :    0.208723
   9 C :   -0.428460
  10 H :    0.206988
  11 H :    0.220168
  12 C :   -0.432361
  13 H :    0.220624
  14 H :    0.209846
Sum of atomic charges:    0.0000000

--------------------------------
MULLIKEN REDUCED ORBITAL CHARGES
--------------------------------
  0 C s       :     3.320822  s :     3.320822
      pz      :     1.140842  p :     3.070009
      px      :     0.977399
      py      :     0.951767
      dz2     :     0.006784  d :     0.041857
      dxz     :     0.010176
      dyz     :     0.007589
      dx2y2   :     0.009918
      dxy     :     0.007389
  1 H s       :     0.783473  s :     0.783473
  2 H s       :     0.780551  s :     0.780551
  3 C s       :     3.321579  s :     3.321579
      pz      :     1.142234  p :     3.070469
      px      :     0.981256
      py      :     0.946978
      dz2     :     0.006931  d :     0.042046
      dxz     :     0.010594
      dyz     :     0.007125
      dx2y2   :     0.009849
      dxy     :     0.007547
  4 H s       :     0.784317  s :     0.784317
  5 H s       :     0.780001  s :     0.780001
  6 C s       :     3.325309  s :     3.325309
      pz      :     1.089322  p :     3.062073
      px      :     0.931632
      py      :     1.041119
      dz2     :     0.009931  d :     0.043449
      dxz     :     0.007457
      dyz     :     0.007413
      dx2y2   :     0.011428
      dxy     :     0.007220
  7 H s       :     0.779574  s :     0.779574
  8 H s       :     0.791277  s :     0.791277
  9 C s       :     3.326289  s :     3.326289
      pz      :     1.052990  p :     3.058280
      px      :     1.090494
      py      :     0.914796
      dz2     :     0.013818  d :     0.043892
      dxz     :     0.003703
      dyz     :     0.006898
      dx2y2   :     0.012270
      dxy     :     0.007203
 10 H s       :     0.793012  s :     0.793012
 11 H s       :     0.779832  s :     0.779832
 12 C s       :     3.324959  s :     3.324959
      pz      :     1.098179  p :     3.064159
      px      :     0.934511
      py      :     1.031469
      dz2     :     0.008947  d :     0.043244
      dxz     :     0.007562
      dyz     :     0.008430
      dx2y2   :     0.011185
      dxy     :     0.007120
 13 H s       :     0.779376  s :     0.779376
 14 H s       :     0.790154  s :     0.790154


                     *******************************
                     * LOEWDIN POPULATION ANALYSIS *
                     *******************************

----------------------
LOEWDIN ATOMIC CHARGES
----------------------
   0 C :   -0.247202
   1 H :    0.123592
   2 H :    0.124362
   3 C :   -0.246856
   4 H :    0.123167
   5 H :    0.124316
   6 C :   -0.244447
   7 H :    0.123592
   8 H :    0.120382
   9 C :   -0.244305
  10 H :    0.120102
  11 H :    0.123505
  12 C :   -0.244667
  13 H :    0.123718
  14 H :    0.120741

-------------------------------
LOEWDIN REDUCED ORBITAL CHARGES
-------------------------------
  0 C s       :     2.918409  s :     2.918409
      pz      :     1.120353  p :     3.244320
      px      :     1.066550
      py      :     1.057417
      dz2     :     0.012300  d :     0.084473
      dxz     :     0.018503
      dyz     :     0.014057
      dx2y2   :     0.024242
      dxy     :     0.015371
  1 H s       :     0.876408  s :     0.876408
  2 H s       :     0.875638  s :     0.875638
  3 C s       :     2.918113  s :     2.918113
      pz      :     1.119876  p :     3.243762
      px      :     1.067712
      py      :     1.056175
      dz2     :     0.012576  d :     0.084981
      dxz     :     0.019233
      dyz     :     0.013291
      dx2y2   :     0.023999
      dxy     :     0.015883
  4 H s       :     0.876833  s :     0.876833
  5 H s       :     0.875684  s :     0.875684
  6 C s       :     2.915913  s :     2.915913
      pz      :     1.103957  p :     3.239900
      px      :     1.056155
      py      :     1.079789
      dz2     :     0.018373  d :     0.088634
      dxz     :     0.015058
      dyz     :     0.014417
      dx2y2   :     0.024171
      dxy     :     0.016615
  7 H s       :     0.876408  s :     0.876408
  8 H s       :     0.879618  s :     0.879618
  9 C s       :     2.915262  s :     2.915262
      pz      :     1.096915  p :     3.239340
      px      :     1.090719
      py      :     1.051706
      dz2     :     0.025841  d :     0.089702
      dxz     :     0.006498
      dyz     :     0.016489
      dx2y2   :     0.023794
      dxy     :     0.017081
 10 H s       :     0.879898  s :     0.879898
 11 H s       :     0.876495  s :     0.876495
 12 C s       :     2.916229  s :     2.916229
      pz      :     1.106147  p :     3.240328
      px      :     1.056380
      py      :     1.077802
      dz2     :     0.016466  d :     0.088110
      dxz     :     0.015015
      dyz     :     0.016228
      dx2y2   :     0.024223
      dxy     :     0.016177
 13 H s       :     0.876282  s :     0.876282
 14 H s       :     0.879259  s :     0.879259


                      *****************************
                      * MAYER POPULATION ANALYSIS *
                      *****************************

  NA   - Mulliken gross atomic population
  ZA   - Total nuclear charge
  QA   - Mulliken gross atomic charge
  VA   - Mayer's total valence
  BVA  - Mayer's bonded valence
  FA   - Mayer's free valence

  ATOM       NA         ZA         QA         VA         BVA        FA
  0 C      6.4327     6.0000    -0.4327     3.7134     3.7134    -0.0000
  1 H      0.7835     1.0000     0.2165     0.9101     0.9101    -0.0000
  2 H      0.7806     1.0000     0.2194     0.9132     0.9132    -0.0000
  3 C      6.4341     6.0000    -0.4341     3.7158     3.7158     0.0000
  4 H      0.7843     1.0000     0.2157     0.9095     0.9095    -0.0000
  5 H      0.7800     1.0000     0.2200     0.9136     0.9136    -0.0000
  6 C      6.4308     6.0000    -0.4308     3.7269     3.7269     0.0000
  7 H      0.7796     1.0000     0.2204     0.9140     0.9140    -0.0000
  8 H      0.7913     1.0000     0.2087     0.9091     0.9091    -0.0000
  9 C      6.4285     6.0000    -0.4285     3.7242     3.7242     0.0000
 10 H      0.7930     1.0000     0.2070     0.9088     0.9088    -0.0000
 11 H      0.7798     1.0000     0.2202     0.9139     0.9139     0.0000
 12 C      6.4324     6.0000    -0.4324     3.7265     3.7265     0.0000
 13 H      0.7794     1.0000     0.2206     0.9141     0.9141     0.0000
 14 H      0.7902     1.0000     0.2098     0.9090     0.9090    -0.0000

  Mayer bond orders larger than 0.100000
B(  0-C ,  1-H ) :   0.9315 B(  0-C ,  2-H ) :   0.9337 B(  0-C ,  3-C ) :   0.9611 
B(  0-C , 12-C ) :   0.9752 B(  3-C ,  4-H ) :   0.9305 B(  3-C ,  5-H ) :   0.9335 
B(  3-C ,  6-C ) :   0.9781 B(  6-C ,  7-H ) :   0.9304 B(  6-C ,  8-H ) :   0.9239 
B(  6-C ,  9-C ) :   0.9797 B(  9-C , 10-H ) :   0.9214 B(  9-C , 11-H ) :   0.9293 
B(  9-C , 12-C ) :   0.9806 B( 12-C , 13-H ) :   0.9309 B( 12-C , 14-H ) :   0.9249 


-------
TIMINGS
-------

Total SCF time: 0 days 0 hours 0 min 58 sec 

Total time                  ....      58.023 sec
Sum of individual times     ....      53.523 sec  ( 92.2%)

Fock matrix formation       ....      42.953 sec  ( 74.0%)
  Split-RI-J                ....       4.554 sec  ( 10.6% of F)
  Chain of spheres X        ....      14.715 sec  ( 34.3% of F)
  XC integration            ....      12.173 sec  ( 28.3% of F)
    Basis function eval.    ....       2.688 sec  ( 22.1% of XC)
    Density eval.           ....       1.244 sec  ( 10.2% of XC)
    XC-Functional eval.     ....       0.938 sec  (  7.7% of XC)
    XC-Potential eval.      ....       0.993 sec  (  8.2% of XC)
Diagonalization             ....       0.575 sec  (  1.0%)
Density matrix formation    ....       0.158 sec  (  0.3%)
Population analysis         ....       0.410 sec  (  0.7%)
Initial guess               ....       0.030 sec  (  0.1%)
Orbital Transformation      ....       0.000 sec  (  0.0%)
Orbital Orthonormalization  ....       0.000 sec  (  0.0%)
DIIS solution               ....       1.683 sec  (  2.9%)
SOSCF solution              ....       0.972 sec  (  1.7%)
Grid generation             ....       6.742 sec  ( 11.6%)

Maximum memory used throughout the entire SCF-calculation: 51.4 MB


-------------------------------------------------------------------------------
                          DFT DISPERSION CORRECTION                            
                                                                               
                              DFTD3 V3.1  Rev 1                                
                          USING Becke-Johnson damping                          
-------------------------------------------------------------------------------
The PBEh-3c composite method is recognized
Using three-body term ABC
Active option DFTDOPT                   ...         4   

molecular C6(AA) [au] = 1510.561097 


            DFT-D V3
 parameters
 s6 scaling factor         :     1.0000 
 a1 scaling factor         :     0.4860 
 s8 scaling factor         :     0.0000 
 a2 scaling factor         :     4.5000 
 Damping factor alpha9(ATM):    16.0000 
 ad hoc parameters k1-k3   :    16.0000     1.3333    -4.0000 

 Edisp/kcal,au: -4.133270740958  -0.006586785492 
 E6   /kcal   :  -4.152653746 
 E8   /kcal   :  -0.000000000 
 E6(ABC)      :   0.019383005 
 % E8         :   0.000000000 
 % E6(ABC)    :  -0.468950768 

-------------------------   ----------------
Dispersion correction           -0.006586785
-------------------------   ----------------

------------------   -----------------
gCP correction             0.023013438
------------------   -----------------

-------------------------   --------------------
FINAL SINGLE POINT ENERGY      -196.125755756777
-------------------------   --------------------


                            ***************************************
                            *     ORCA property calculations      *
                            ***************************************

                                    ---------------------
                                    Active property flags
                                    ---------------------
   (+) Dipole Moment


------------------------------------------------------------------------------
                       ORCA ELECTRIC PROPERTIES CALCULATION
------------------------------------------------------------------------------

Dipole Moment Calculation                       ... on
Quadrupole Moment Calculation                   ... off
Polarizability Calculation                      ... off
GBWName                                         ... pbeh-3c.gbw
Electron density                                ... pbeh-3c.scfp
The origin for moment calculation is the CENTER OF MASS  = (-0.009367,  0.001155 -0.001561)

-------------
DIPOLE MOMENT
-------------
                                X             Y             Z
Electronic contribution:     -0.07621       0.00940      -0.01417
Nuclear contribution   :      0.07614      -0.00939       0.01269
                        -----------------------------------------
Total Dipole Moment    :     -0.00007       0.00001      -0.00147
                        -----------------------------------------
Magnitude (a.u.)       :      0.00148
Magnitude (Debye)      :      0.00375



--------------------
Rotational spectrum 
--------------------
 
Rotational constants in cm-1:     0.218638     0.218413     0.126795 
Rotational constants in MHz :  6554.602481  6547.860639  3801.211730 

 Dipole components along the rotational axes: 
x,y,z [a.u.] :    -0.000008    -0.000424    -0.001413 
x,y,z [Debye]:    -0.000020    -0.001079    -0.003593 

 

Timings for individual modules:

Sum of individual times         ...       61.256 sec (=   1.021 min)
GTO integral calculation        ...        2.511 sec (=   0.042 min)   4.1 %
SCF iterations                  ...       58.745 sec (=   0.979 min)  95.9 %
                             ****ORCA TERMINATED NORMALLY****
TOTAL RUN TIME: 0 days 0 hours 1 minutes 3 seconds 171 msec
