
                                 *****************
                                 * O   R   C   A *
                                 *****************

                                            #,                                       
                                            ###                                      
                                            ####                                     
                                            #####                                    
                                            ######                                   
                                           ########,                                 
                                     ,,################,,,,,                         
                               ,,#################################,,                 
                          ,,##########################################,,             
                       ,#########################################, ''#####,          
                    ,#############################################,,   '####,        
                  ,##################################################,,,,####,       
                ,###########''''           ''''###############################       
              ,#####''   ,,,,##########,,,,          '''####'''          '####       
            ,##' ,,,,###########################,,,                        '##       
           ' ,,###''''                  '''############,,,                           
         ,,##''                                '''############,,,,        ,,,,,,###''
      ,#''                                            '''#######################'''  
     '                                                          ''''####''''         
             ,#######,   #######,   ,#######,      ##                                
            ,#'     '#,  ##    ##  ,#'     '#,    #''#        ######   ,####,        
            ##       ##  ##   ,#'  ##            #'  '#       #        #'  '#        
            ##       ##  #######   ##           ,######,      #####,   #    #        
            '#,     ,#'  ##    ##  '#,     ,#' ,#      #,         ##   #,  ,#        
             '#######'   ##     ##  '#######'  #'      '#     #####' # '####'        



                  #######################################################
                  #                        -***-                        #
                  #          Department of theory and spectroscopy      #
                  #    Directorship and core code : Frank Neese         #
                  #        Max Planck Institute fuer Kohlenforschung    #
                  #                Kaiser Wilhelm Platz 1               #
                  #                 D-45470 Muelheim/Ruhr               #
                  #                      Germany                        #
                  #                                                     #
                  #                  All rights reserved                #
                  #                        -***-                        #
                  #######################################################


                         Program Version 5.0.3 -  RELEASE  -


 With contributions from (in alphabetic order):
   Daniel Aravena         : Magnetic Suceptibility
   Michael Atanasov       : Ab Initio Ligand Field Theory (pilot matlab implementation)
   Alexander A. Auer      : GIAO ZORA, VPT2 properties, NMR spectrum
   Ute Becker             : Parallelization
   Giovanni Bistoni       : ED, misc. LED, open-shell LED, HFLD
   Martin Brehm           : Molecular dynamics
   Dmytro Bykov           : SCF Hessian
   Vijay G. Chilkuri      : MRCI spin determinant printing, contributions to CSF-ICE
   Dipayan Datta          : RHF DLPNO-CCSD density
   Achintya Kumar Dutta   : EOM-CC, STEOM-CC
   Dmitry Ganyushin       : Spin-Orbit,Spin-Spin,Magnetic field MRCI
   Miquel Garcia          : C-PCM and meta-GGA Hessian, CC/C-PCM, Gaussian charge scheme
   Yang Guo               : DLPNO-NEVPT2, F12-NEVPT2, CIM, IAO-localization
   Andreas Hansen         : Spin unrestricted coupled pair/coupled cluster methods
   Benjamin Helmich-Paris : MC-RPA, TRAH-SCF, COSX integrals
   Lee Huntington         : MR-EOM, pCC
   Robert Izsak           : Overlap fitted RIJCOSX, COSX-SCS-MP3, EOM
   Marcus Kettner         : VPT2
   Christian Kollmar      : KDIIS, OOCD, Brueckner-CCSD(T), CCSD density, CASPT2, CASPT2-K
   Simone Kossmann        : Meta GGA functionals, TD-DFT gradient, OOMP2, MP2 Hessian
   Martin Krupicka        : Initial AUTO-CI
   Lucas Lang             : DCDCAS
   Marvin Lechner         : AUTO-CI (C++ implementation), FIC-MRCC
   Dagmar Lenk            : GEPOL surface, SMD
   Dimitrios Liakos       : Extrapolation schemes; Compound Job, initial MDCI parallelization
   Dimitrios Manganas     : Further ROCIS development; embedding schemes
   Dimitrios Pantazis     : SARC Basis sets
   Anastasios Papadopoulos: AUTO-CI, single reference methods and gradients
   Taras Petrenko         : DFT Hessian,TD-DFT gradient, ASA, ECA, R-Raman, ABS, FL, XAS/XES, NRVS
   Peter Pinski           : DLPNO-MP2, DLPNO-MP2 Gradient
   Christoph Reimann      : Effective Core Potentials
   Marius Retegan         : Local ZFS, SOC
   Christoph Riplinger    : Optimizer, TS searches, QM/MM, DLPNO-CCSD(T), (RO)-DLPNO pert. Triples
   Tobias Risthaus        : Range-separated hybrids, TD-DFT gradient, RPA, STAB
   Michael Roemelt        : Original ROCIS implementation
   Masaaki Saitow         : Open-shell DLPNO-CCSD energy and density
   Barbara Sandhoefer     : DKH picture change effects
   Avijit Sen             : IP-ROCIS
   Kantharuban Sivalingam : CASSCF convergence, NEVPT2, FIC-MRCI
   Bernardo de Souza      : ESD, SOC TD-DFT
   Georgi Stoychev        : AutoAux, RI-MP2 NMR, DLPNO-MP2 response
   Willem Van den Heuvel  : Paramagnetic NMR
   Boris Wezisla          : Elementary symmetry handling
   Frank Wennmohs         : Technical directorship


 We gratefully acknowledge several colleagues who have allowed us to
 interface, adapt or use parts of their codes:
   Stefan Grimme, W. Hujo, H. Kruse, P. Pracht,  : VdW corrections, initial TS optimization,
                  C. Bannwarth, S. Ehlert          DFT functionals, gCP, sTDA/sTD-DF
   Ed Valeev, F. Pavosevic, A. Kumar             : LibInt (2-el integral package), F12 methods
   Garnet Chan, S. Sharma, J. Yang, R. Olivares  : DMRG
   Ulf Ekstrom                                   : XCFun DFT Library
   Mihaly Kallay                                 : mrcc  (arbitrary order and MRCC methods)
   Jiri Pittner, Ondrej Demel                    : Mk-CCSD
   Frank Weinhold                                : gennbo (NPA and NBO analysis)
   Christopher J. Cramer and Donald G. Truhlar   : smd solvation model
   Lars Goerigk                                  : TD-DFT with DH, B97 family of functionals
   V. Asgeirsson, H. Jonsson                     : NEB implementation
   FAccTs GmbH                                   : IRC, NEB, NEB-TS, DLPNO-Multilevel, CI-OPT
                                                   MM, QMMM, 2- and 3-layer-ONIOM, Crystal-QMMM,
                                                   LR-CPCM, SF, NACMEs, symmetry and pop. for TD-DFT,
                                                   nearIR, NL-DFT gradient (VV10), updates on ESD,
                                                   ML-optimized integration grids
   S Lehtola, MJT Oliveira, MAL Marques          : LibXC Library
   Liviu Ungur et al                             : ANISO software


 Your calculation uses the libint2 library for the computation of 2-el integrals
 For citations please refer to: http://libint.valeyev.net

 Your ORCA version has been built with support for libXC version: 5.1.0
 For citations please refer to: https://tddft.org/programs/libxc/

 This ORCA versions uses:
   CBLAS   interface :  Fast vector & matrix operations
   LAPACKE interface :  Fast linear algebra routines
   SCALAPACK package :  Parallel linear algebra routines
   Shared memory     :  Shared parallel matrices
   BLAS/LAPACK       :  OpenBLAS 0.3.15  USE64BITINT DYNAMIC_ARCH NO_AFFINITY Haswell SINGLE_THREADED
        Core in use  :  Haswell
   Copyright (c) 2011-2014, The OpenBLAS Project




***************************************
The coordinates will be read from file: P1.xyz
***************************************


Your calculation utilizes the geometrical counterpoise correction gCP
Please cite in your paper:
H.Kruse, S. Grimme J.Chem.Phys., 136, (2012), 154101 
   

Your calculation utilizes the atom-pairwise dispersion correction
with the Becke-Johnson damping scheme (D3BJ)
Cite in your paper:
S.Grimme, S.Ehrlich, L.Goerigk, J Comput Chem, (2011), 32, 1456–1465 
S.Grimme, J.Antony, S.Ehrlich and H.Krieg, J.Chem.Phys., 132, (2010), 154104 
   

Your calculation employs the composite approach PBEh-3c.
Please cite in your paper:
S. Grimme, J. G. Brandenburg, C. Bannwarth, A. Hansen J.Chem.Phys., 143, (2015), 054107 
   

================================================================================

----- Orbital basis set information -----
Your calculation utilizes the basis: def2-mSVP

----- AuxJ basis set information -----
Your calculation utilizes the auxiliary basis: def2/J
   F. Weigend, Phys. Chem. Chem. Phys. 8, 1057 (2006).

================================================================================
                                        WARNINGS
                       Please study these warnings very carefully!
================================================================================


INFO   : the flag for use of the SHARK integral package has been found!

================================================================================
                                       INPUT FILE
================================================================================
NAME = pbeh-3c.inp
|  1> ! PBEh-3c def2/J TightSCF DefGrid3
|  2> 
|  3> %maxcore 60000
|  4> 
|  5> %pal
|  6> nprocs 4
|  7> end
|  8> 
|  9> *xyzfile 0 1 P1.xyz
| 10> 
| 11>                          ****END OF INPUT****
================================================================================

                       ****************************
                       * Single Point Calculation *
                       ****************************

---------------------------------
CARTESIAN COORDINATES (ANGSTROEM)
---------------------------------
  C     -0.661895   -0.059710   -1.393910
  C     -1.486209   -0.113548   -0.144719
  C     -0.691628    0.317536    1.081726
  C      0.691628   -0.317536    1.081726
  C      1.486209    0.113548   -0.144719
  C      0.661895    0.059710   -1.393910
  H     -1.190276   -0.118798   -2.341761
  H     -2.373255    0.518105   -0.263582
  H     -1.871284   -1.133269   -0.007315
  H     -1.235540    0.060875    1.994969
  H     -0.583769    1.408342    1.074593
  H      1.235540   -0.060875    1.994969
  H      0.583769   -1.408342    1.074593
  H      2.373255   -0.518105   -0.263582
  H      1.871284    1.133269   -0.007315
  H      1.190276    0.118798   -2.341761

----------------------------
CARTESIAN COORDINATES (A.U.)
----------------------------
  NO LB      ZA    FRAG     MASS         X           Y           Z
   0 C     6.0000    0    12.011   -1.250800   -0.112835   -2.634109
   1 C     6.0000    0    12.011   -2.808528   -0.214575   -0.273480
   2 C     6.0000    0    12.011   -1.306987    0.600057    2.044166
   3 C     6.0000    0    12.011    1.306987   -0.600057    2.044166
   4 C     6.0000    0    12.011    2.808528    0.214575   -0.273480
   5 C     6.0000    0    12.011    1.250800    0.112835   -2.634109
   6 H     1.0000    0     1.008   -2.249296   -0.224495   -4.425288
   7 H     1.0000    0     1.008   -4.484801    0.979076   -0.498098
   8 H     1.0000    0     1.008   -3.536214   -2.141568   -0.013824
   9 H     1.0000    0     1.008   -2.334832    0.115037    3.769945
  10 H     1.0000    0     1.008   -1.103164    2.661381    2.030687
  11 H     1.0000    0     1.008    2.334832   -0.115037    3.769945
  12 H     1.0000    0     1.008    1.103164   -2.661381    2.030687
  13 H     1.0000    0     1.008    4.484801   -0.979076   -0.498098
  14 H     1.0000    0     1.008    3.536214    2.141568   -0.013824
  15 H     1.0000    0     1.008    2.249296    0.224495   -4.425288

--------------------------------
INTERNAL COORDINATES (ANGSTROEM)
--------------------------------
 C      0   0   0     0.000000000000     0.00000000     0.00000000
 C      1   0   0     1.497621996339     0.00000000     0.00000000
 C      2   1   0     1.523601581698   111.97565369     0.00000000
 C      3   2   1     1.522075299372   110.84844785   315.52605124
 C      4   3   2     1.523601581698   110.84844785    61.06026245
 C      1   2   3     1.329164931984   123.46444749    13.83401075
 H      1   2   3     1.086784074341   117.25322876   194.07908785
 H      2   1   3     1.095428591140   109.54045901   122.66361389
 H      2   1   3     1.098631804337   109.30587981   237.63885435
 H      3   2   1     1.093493842760   110.27085968   192.52942196
 H      3   2   1     1.096148361373   109.12542174    75.59486665
 H      4   3   2     1.093493842760   110.73881195   183.78597144
 H      4   3   2     1.096148361373   109.01309475   300.92446930
 H      5   4   3     1.095428591140   110.27357150   193.27989345
 H      5   4   3     1.098631804337   110.16551031    77.39585922
 H      6   1   2     1.086784074341   119.28187809   181.62507307

---------------------------
INTERNAL COORDINATES (A.U.)
---------------------------
 C      0   0   0     0.000000000000     0.00000000     0.00000000
 C      1   0   0     2.830095425217     0.00000000     0.00000000
 C      2   1   0     2.879189726619   111.97565369     0.00000000
 C      3   2   1     2.876305471019   110.84844785   315.52605124
 C      4   3   2     2.879189726619   110.84844785    61.06026245
 C      1   2   3     2.511757708262   123.46444749    13.83401075
 H      1   2   3     2.053724267211   117.25322876   194.07908785
 H      2   1   3     2.070060036521   109.54045901   122.66361389
 H      2   1   3     2.076113232212   109.30587981   237.63885435
 H      3   2   1     2.066403891945   110.27085968   192.52942196
 H      3   2   1     2.071420205141   109.12542174    75.59486665
 H      4   3   2     2.066403891945   110.73881195   183.78597144
 H      4   3   2     2.071420205141   109.01309475   300.92446930
 H      5   4   3     2.070060036521   110.27357150   193.27989345
 H      5   4   3     2.076113232212   110.16551031    77.39585922
 H      6   1   2     2.053724267211   119.28187809   181.62507307

---------------------
BASIS SET INFORMATION
---------------------
There are 2 groups of distinct atoms

 Group   1 Type C   : 8s4p1d contracted to 4s2p1d pattern {5111/31/1}
 Group   2 Type H   : 4s contracted to 2s pattern {31}

Atom   0C    basis set group =>   1
Atom   1C    basis set group =>   1
Atom   2C    basis set group =>   1
Atom   3C    basis set group =>   1
Atom   4C    basis set group =>   1
Atom   5C    basis set group =>   1
Atom   6H    basis set group =>   2
Atom   7H    basis set group =>   2
Atom   8H    basis set group =>   2
Atom   9H    basis set group =>   2
Atom  10H    basis set group =>   2
Atom  11H    basis set group =>   2
Atom  12H    basis set group =>   2
Atom  13H    basis set group =>   2
Atom  14H    basis set group =>   2
Atom  15H    basis set group =>   2
---------------------------------
AUXILIARY/J BASIS SET INFORMATION
---------------------------------
There are 2 groups of distinct atoms

 Group   1 Type C   : 12s5p4d2f1g contracted to 6s4p3d1f1g pattern {711111/2111/211/2/1}
 Group   2 Type H   : 5s2p1d contracted to 3s1p1d pattern {311/2/1}

Atom   0C    basis set group =>   1
Atom   1C    basis set group =>   1
Atom   2C    basis set group =>   1
Atom   3C    basis set group =>   1
Atom   4C    basis set group =>   1
Atom   5C    basis set group =>   1
Atom   6H    basis set group =>   2
Atom   7H    basis set group =>   2
Atom   8H    basis set group =>   2
Atom   9H    basis set group =>   2
Atom  10H    basis set group =>   2
Atom  11H    basis set group =>   2
Atom  12H    basis set group =>   2
Atom  13H    basis set group =>   2
Atom  14H    basis set group =>   2
Atom  15H    basis set group =>   2


           ************************************************************
           *        Program running with 4 parallel MPI-processes     *
           *              working on a common directory               *
           ************************************************************
------------------------------------------------------------------------------
                           ORCA GTO INTEGRAL CALCULATION
                           -- RI-GTO INTEGRALS CHOSEN --
------------------------------------------------------------------------------
------------------------------------------------------------------------------
                   ___                                                        
                  /   \      - P O W E R E D   B Y -                         
                 /     \                                                     
                 |  |  |   _    _      __       _____    __    __             
                 |  |  |  | |  | |    /  \     |  _  \  |  |  /  |          
                  \  \/   | |  | |   /    \    | | | |  |  | /  /          
                 / \  \   | |__| |  /  /\  \   | |_| |  |  |/  /          
                |  |  |   |  __  | /  /__\  \  |    /   |      \           
                |  |  |   | |  | | |   __   |  |    \   |  |\   \          
                \     /   | |  | | |  |  |  |  | |\  \  |  | \   \       
                 \___/    |_|  |_| |__|  |__|  |_| \__\ |__|  \__/        
                                                                              
                      - O R C A' S   B I G   F R I E N D -                    
                                      &                                       
                       - I N T E G R A L  F E E D E R -                       
                                                                              
 v1 FN, 2020, v2 2021                                                         
------------------------------------------------------------------------------


Reading SHARK input file pbeh-3c.SHARKINP.tmp ... ok
----------------------
SHARK INTEGRAL PACKAGE
----------------------

Number of atoms                             ...     16
Number of basis functions                   ...    110
Number of shells                            ...     62
Maximum angular momentum                    ...      2
Integral batch strategy                     ... SHARK/LIBINT Hybrid
RI-J (if used) integral strategy            ... SPLIT-RIJ (Revised 2003 algorithm where possible)
Printlevel                                  ...      1
Contraction scheme used                     ... SEGMENTED contraction
Coulomb Range Separation                    ... NOT USED
Exchange Range Separation                   ... NOT USED
Finite Nucleus Model                        ... NOT USED
Auxiliary Coulomb fitting basis             ... AVAILABLE
   # of basis functions in Aux-J            ...    404
   # of shells in Aux-J                     ...    140
   Maximum angular momentum in Aux-J        ...      4
Auxiliary J/K fitting basis                 ... NOT available
Auxiliary Correlation fitting basis         ... NOT available
Auxiliary 'external' fitting basis          ... NOT available
Integral threshold                          ...     2.500000e-11
Primitive cut-off                           ...     2.500000e-12
Primitive pair pre-selection threshold      ...     2.500000e-12

Calculating pre-screening integrals         ... done (  0.1 sec) Dimension = 62
Organizing shell pair data                  ... done (  0.1 sec)
Shell pair information
Total number of shell pairs                 ...      1953
Shell pairs after pre-screening             ...      1884
Total number of primitive shell pairs       ...      7129
Primitive shell pairs kept                  ...      5142
          la=0 lb=0:    921 shell pairs
          la=1 lb=0:    528 shell pairs
          la=1 lb=1:     78 shell pairs
          la=2 lb=0:    264 shell pairs
          la=2 lb=1:     72 shell pairs
          la=2 lb=2:     21 shell pairs

Calculating one electron integrals          ... done (  0.0 sec)
Calculating RI/J V-Matrix + Cholesky decomp.... done (  0.2 sec)
Calculating Nuclear repulsion               ... done (  0.0 sec) ENN=    237.868289480277 Eh

SHARK setup successfully completed in   0.9 seconds

Maximum memory used throughout the entire GTOINT-calculation: 10.6 MB


           ************************************************************
           *        Program running with 4 parallel MPI-processes     *
           *              working on a common directory               *
           ************************************************************
-------------------------------------------------------------------------------
                                 ORCA SCF
-------------------------------------------------------------------------------

------------
SCF SETTINGS
------------
Hamiltonian:
 Density Functional     Method          .... DFT(GTOs)
 Exchange Functional    Exchange        .... PBE
   PBE kappa parameter   XKappa         ....  1.024500
   PBE mue parameter    XMuePBE         ....  0.123457
 Correlation Functional Correlation     .... PBE
   PBE beta parameter  CBetaPBE         ....  0.030000
 LDA part of GGA corr.  LDAOpt          .... PW91-LDA
 Gradients option       PostSCFGGA      .... off
 Hybrid DFT is turned on
   Fraction HF Exchange ScalHFX         ....  0.420000
   Scaling of DF-GGA-X  ScalDFX         ....  0.580000
   Scaling of DF-GGA-C  ScalDFC         ....  1.000000
   Scaling of DF-LDA-C  ScalLDAC        ....  1.000000
   Perturbative correction              ....  0.000000
   Density functional embedding theory  .... OFF
 RI-approximation to the Coulomb term is turned on
   Number of AuxJ basis functions       .... 404
   RIJ-ON(X) (HFX calculated with O(N)) .... on
   Number of AuxJ basis functions       .... 404
   RIJ-COSX (HFX calculated with COS-X)).... on


General Settings:
 Integral files         IntName         .... pbeh-3c
 Hartree-Fock type      HFTyp           .... RHF
 Total Charge           Charge          ....    0
 Multiplicity           Mult            ....    1
 Number of Electrons    NEL             ....   46
 Basis Dimension        Dim             ....  110
 Nuclear Repulsion      ENuc            ....    237.8682894803 Eh

Convergence Acceleration:
 DIIS                   CNVDIIS         .... on
   Start iteration      DIISMaxIt       ....    12
   Startup error        DIISStart       ....  0.200000
   # of expansion vecs  DIISMaxEq       ....     5
   Bias factor          DIISBfac        ....   1.050
   Max. coefficient     DIISMaxC        ....  10.000
 Trust-Rad. Augm. Hess. CNVTRAH         .... auto
   Auto Start mean grad. ratio tolernc. ....  1.125000
   Auto Start start iteration           ....    20
   Auto Start num. interpolation iter.  ....    10
   Max. Number of Micro iterations      ....    16
   Max. Number of Macro iterations      .... Maxiter - #DIIS iter
   Number of Davidson start vectors     ....     2
   Converg. threshold I  (grad. norm)   ....   1.000e-05
   Converg. threshold II (energy diff.) ....   1.000e-08
   Grad. Scal. Fac. for Micro threshold ....   0.100
   Minimum threshold for Micro iter.    ....   0.010
   NR start threshold (gradient norm)   ....   0.001
   Initial trust radius                 ....   0.400
   Minimum AH scaling param. (alpha)    ....   1.000
   Maximum AH scaling param. (alpha)    .... 1000.000
   Orbital update algorithm             .... Taylor
   White noise on init. David. guess    .... on
   Maximum white noise                  ....   0.010
   Quad. conv. algorithm                .... NR
   COSX micro iterations for RIJONX calc.... off
 SOSCF                  CNVSOSCF        .... on
   Start iteration      SOSCFMaxIt      ....   150
   Startup grad/error   SOSCFStart      ....  0.003300
 Level Shifting         CNVShift        .... on
   Level shift para.    LevelShift      ....    0.2500
   Turn off err/grad.   ShiftErr        ....    0.0010
 Zerner damping         CNVZerner       .... off
 Static damping         CNVDamp         .... on
   Fraction old density DampFac         ....    0.7000
   Max. Damping (<1)    DampMax         ....    0.9800
   Min. Damping (>=0)   DampMin         ....    0.0000
   Turn off err/grad.   DampErr         ....    0.1000
 Fernandez-Rico         CNVRico         .... off

SCF Procedure:
 Maximum # iterations   MaxIter         ....   125
 SCF integral mode      SCFMode         .... Direct
   Integral package                     .... SHARK and LIBINT hybrid scheme
 Reset frequency        DirectResetFreq ....    20
 Integral Threshold     Thresh          ....  2.500e-11 Eh
 Primitive CutOff       TCut            ....  2.500e-12 Eh

Convergence Tolerance:
 Convergence Check Mode ConvCheckMode   .... Total+1el-Energy
 Convergence forced     ConvForced      .... 0
 Energy Change          TolE            ....  1.000e-08 Eh
 1-El. energy change                    ....  1.000e-05 Eh
 Orbital Gradient       TolG            ....  1.000e-05
 Orbital Rotation angle TolX            ....  1.000e-05
 DIIS Error             TolErr          ....  5.000e-07


Diagonalization of the overlap matrix:
Smallest eigenvalue                        ... 2.516e-03
Time for diagonalization                   ...    0.002 sec
Threshold for overlap eigenvalues          ... 1.000e-08
Number of eigenvalues below threshold      ... 0
Time for construction of square roots      ...    0.132 sec
Total time needed                          ...    0.215 sec

--------------------------------
INITIAL GUESS: MINIMAL BASIS EHT
--------------------------------
The minimal basis has 40 functions
EHT matrix was diagonalized
Basis set overlap was calculated now projecting the orbitals
Using GuessMode=FMatrix for the initial guess
C*T matrix was formed
Effective Fockian was calculated
Effective Fockian was diagonalized
Initial density was built
                      ------------------
                      INITIAL GUESS DONE
                      ------------------
-------------------
DFT GRID GENERATION
-------------------

General Integration Accuracy     IntAcc      ... 4.959
Radial Grid Type                 RadialGrid  ... OptM3 with GC (2021)
Angular Grid (max. ang.)         AngularGrid ... 6 (Lebedev-590)
Angular grid pruning method      GridPruning ... 4 (adaptive)
Weight generation scheme         WeightScheme... Becke
Basis function cutoff            BFCut       ... 1.0000e-11
Integration weight cutoff        WCut        ... 1.0000e-14
Angular grids for H and He will be reduced by one unit
Partially contracted basis set               ... off
Rotationally invariant grid construction     ... off

Total number of grid points                  ...   172192
Total number of batches                      ...     2702
Average number of points per batch           ...       63
Average number of grid points per atom       ...    10762
Time for grid setup =    2.747 sec

--------------------
COSX GRID GENERATION
--------------------

GRIDX 1
-------
General Integration Accuracy     IntAcc      ... 4.020
Radial Grid Type                 RadialGrid  ... OptM3 with GC (2021)
Angular Grid (max. ang.)         AngularGrid ... 2 (Lebedev-110)
Angular grid pruning method      GridPruning ... 4 (adaptive)
Weight generation scheme         WeightScheme... Becke
Basis function cutoff            BFCut       ... 1.0000e-11
Integration weight cutoff        WCut        ... 1.0000e-14
Angular grids for H and He will be reduced by one unit
Partially contracted basis set               ... on
Rotationally invariant grid construction     ... off

Total number of grid points                  ...    18316
Total number of batches                      ...      292
Average number of points per batch           ...       62
Average number of grid points per atom       ...     1145
UseSFitting                                  ... on

GRIDX 2
-------
General Integration Accuracy     IntAcc      ... 4.338
Radial Grid Type                 RadialGrid  ... OptM3 with GC (2021)
Angular Grid (max. ang.)         AngularGrid ... 3 (Lebedev-194)
Angular grid pruning method      GridPruning ... 4 (adaptive)
Weight generation scheme         WeightScheme... Becke
Basis function cutoff            BFCut       ... 1.0000e-11
Integration weight cutoff        WCut        ... 1.0000e-14
Angular grids for H and He will be reduced by one unit
Partially contracted basis set               ... on
Rotationally invariant grid construction     ... off

Total number of grid points                  ...    40050
Total number of batches                      ...      632
Average number of points per batch           ...       63
Average number of grid points per atom       ...     2503
UseSFitting                                  ... on

GRIDX 3
-------
General Integration Accuracy     IntAcc      ... 4.871
Radial Grid Type                 RadialGrid  ... OptM3 with GC (2021)
Angular Grid (max. ang.)         AngularGrid ... 4 (Lebedev-302)
Angular grid pruning method      GridPruning ... 4 (adaptive)
Weight generation scheme         WeightScheme... Becke
Basis function cutoff            BFCut       ... 1.0000e-11
Integration weight cutoff        WCut        ... 1.0000e-14
Angular grids for H and He will be reduced by one unit
Partially contracted basis set               ... on
Rotationally invariant grid construction     ... off

Total number of grid points                  ...    78922
Total number of batches                      ...     1240
Average number of points per batch           ...       63
Average number of grid points per atom       ...     4933
UseSFitting                                  ... on

Time for X-Grid setup             =    2.030 sec

--------------
SCF ITERATIONS
--------------
ITER       Energy         Delta-E        Max-DP      RMS-DP      [F,P]     Damp
               ***  Starting incremental Fock matrix formation  ***
  0   -233.6564690510   0.000000000000 0.06289595  0.00302032  0.4048452 0.7000
  1   -233.7984199700  -0.141950918996 0.04532379  0.00225215  0.2855546 0.7000
  2   -233.9002547346  -0.101834764677 0.03312309  0.00166717  0.2013966 0.7000
                               ***Turning on DIIS***
  3   -233.9726864506  -0.072431715966 0.02447361  0.00123210  0.1418746 0.7000
  4   -234.0240495003  -0.051363049681 0.06463917  0.00320973  0.0998324 0.0000
  5   -234.1465612821  -0.122511781836 0.00530869  0.00021879  0.0052446 0.0000
                      *** Initiating the SOSCF procedure ***
                           *** Shutting down DIIS ***
                      *** Re-Reading the Fockian *** 
                      *** Removing any level shift *** 
ITER      Energy       Delta-E        Grad      Rot      Max-DP    RMS-DP
  6   -234.14669186  -0.0001305778  0.001229  0.001229  0.001993  0.000085
               *** Restarting incremental Fock matrix formation ***
  7   -234.14670061  -0.0000087497  0.000449  0.000549  0.000831  0.000046
  8   -234.14670274  -0.0000021290  0.000119  0.000155  0.000251  0.000020
  9   -234.14670339  -0.0000006550  0.000036  0.000060  0.000094  0.000006
 10   -234.14670343  -0.0000000319  0.000006  0.000006  0.000013  0.000001
 11   -234.14670343  -0.0000000011  0.000003  0.000002  0.000006  0.000000
                 **** Energy Check signals convergence ****
              ***Rediagonalizing the Fockian in SOSCF/NRSCF***

               *****************************************************
               *                     SUCCESS                       *
               *           SCF CONVERGED AFTER  12 CYCLES          *
               *****************************************************

Old exchange energy                            =    -14.566847772 Eh
New exchange energy                            =    -14.566846599 Eh
Exchange energy change after final integration =      0.000001173 Eh
Total energy after final integration           =   -234.146702252 Eh
Final COS-X integration done in                =     3.296 sec

----------------
TOTAL SCF ENERGY
----------------

Total Energy       :         -234.14670225 Eh           -6371.45569 eV

Components:
Nuclear Repulsion  :          237.86828948 Eh            6472.72522 eV
Electronic Energy  :         -472.01499173 Eh          -12844.18091 eV
One Electron Energy:         -785.45518491 Eh          -21373.32218 eV
Two Electron Energy:          313.44019318 Eh            8529.14127 eV
Max COSX asymmetry :            0.00000059 Eh               0.00002 eV

Virial components:
Potential Energy   :         -466.33913105 Eh          -12689.73289 eV
Kinetic Energy     :          232.19242880 Eh            6318.27720 eV
Virial Ratio       :            2.00841661


DFT components:
N(Alpha)           :       22.999997880892 electrons
N(Beta)            :       22.999997880892 electrons
N(Total)           :       45.999995761784 electrons
E(X)               :      -19.306243089526 Eh       
E(C)               :       -1.961828704111 Eh       
E(XC)              :      -21.268071793636 Eh       
DFET-embed. en.    :        0.000000000000 Eh       

---------------
SCF CONVERGENCE
---------------

  Last Energy change         ...    1.9302e-09  Tolerance :   1.0000e-08
  Last MAX-Density change    ...    7.9819e-16  Tolerance :   1.0000e-07
  Last RMS-Density change    ...    4.1833e-17  Tolerance :   5.0000e-09
  Last Orbital Gradient      ...    1.6241e-07  Tolerance :   1.0000e-05
  Last Orbital Rotation      ...    1.8127e-07  Tolerance :   1.0000e-05

             **** THE GBW FILE WAS UPDATED (pbeh-3c.gbw) ****
             **** DENSITY pbeh-3c.scfp WAS UPDATED ****
             **** ENERGY FILE WAS UPDATED (pbeh-3c.en.tmp) ****
             **** THE GBW FILE WAS UPDATED (pbeh-3c.gbw) ****
             **** DENSITY pbeh-3c.scfp WAS UPDATED ****
----------------
ORBITAL ENERGIES
----------------

  NO   OCC          E(Eh)            E(eV) 
   0   2.0000     -10.432303      -283.8774 
   1   2.0000     -10.432195      -283.8744 
   2   2.0000     -10.432059      -283.8707 
   3   2.0000     -10.431215      -283.8478 
   4   2.0000     -10.428994      -283.7873 
   5   2.0000     -10.428752      -283.7808 
   6   2.0000      -0.927088       -25.2274 
   7   2.0000      -0.826544       -22.4914 
   8   2.0000      -0.825544       -22.4642 
   9   2.0000      -0.692628       -18.8474 
  10   2.0000      -0.669542       -18.2192 
  11   2.0000      -0.572399       -15.5758 
  12   2.0000      -0.555413       -15.1136 
  13   2.0000      -0.503441       -13.6993 
  14   2.0000      -0.480811       -13.0835 
  15   2.0000      -0.462572       -12.5872 
  16   2.0000      -0.442011       -12.0277 
  17   2.0000      -0.431022       -11.7287 
  18   2.0000      -0.429755       -11.6942 
  19   2.0000      -0.372136       -10.1263 
  20   2.0000      -0.362645        -9.8681 
  21   2.0000      -0.350021        -9.5246 
  22   2.0000      -0.279669        -7.6102 
  23   0.0000       0.058912         1.6031 
  24   0.0000       0.142323         3.8728 
  25   0.0000       0.179472         4.8837 
  26   0.0000       0.186106         5.0642 
  27   0.0000       0.194779         5.3002 
  28   0.0000       0.208175         5.6647 
  29   0.0000       0.208552         5.6750 
  30   0.0000       0.217794         5.9265 
  31   0.0000       0.224436         6.1072 
  32   0.0000       0.244648         6.6572 
  33   0.0000       0.244726         6.6593 
  34   0.0000       0.268127         7.2961 
  35   0.0000       0.280243         7.6258 
  36   0.0000       0.291225         7.9246 
  37   0.0000       0.301343         8.2000 
  38   0.0000       0.355691         9.6788 
  39   0.0000       0.441787        12.0216 
  40   0.0000       0.478217        13.0129 
  41   0.0000       0.536963        14.6115 
  42   0.0000       0.538982        14.6664 
  43   0.0000       0.553786        15.0693 
  44   0.0000       0.563220        15.3260 
  45   0.0000       0.602756        16.4018 
  46   0.0000       0.612481        16.6665 
  47   0.0000       0.628949        17.1146 
  48   0.0000       0.663057        18.0427 
  49   0.0000       0.677986        18.4490 
  50   0.0000       0.684604        18.6290 
  51   0.0000       0.698426        19.0051 
  52   0.0000       0.741409        20.1748 
  53   0.0000       0.765567        20.8321 
  54   0.0000       0.845539        23.0083 
  55   0.0000       0.852504        23.1978 
  56   0.0000       0.911840        24.8124 
  57   0.0000       0.962586        26.1933 
  58   0.0000       0.975506        26.5449 
  59   0.0000       1.005680        27.3659 
  60   0.0000       1.013830        27.5877 
  61   0.0000       1.024582        27.8803 
  62   0.0000       1.029539        28.0152 
  63   0.0000       1.044362        28.4185 
  64   0.0000       1.044973        28.4351 
  65   0.0000       1.064928        28.9782 
  66   0.0000       1.080464        29.4009 
  67   0.0000       1.134796        30.8794 
  68   0.0000       1.171585        31.8804 
  69   0.0000       1.195479        32.5306 
  70   0.0000       1.227568        33.4038 
  71   0.0000       1.422144        38.6985 
  72   0.0000       1.483778        40.3757 
  73   0.0000       1.492509        40.6132 
  74   0.0000       1.568381        42.6778 
  75   0.0000       1.576060        42.8868 
  76   0.0000       1.614881        43.9432 
  77   0.0000       1.647568        44.8326 
  78   0.0000       1.775215        48.3061 
  79   0.0000       1.829902        49.7942 
  80   0.0000       1.891623        51.4737 
  81   0.0000       1.938023        52.7363 
  82   0.0000       1.970381        53.6168 
  83   0.0000       1.981582        53.9216 
  84   0.0000       2.035556        55.3903 
  85   0.0000       2.037087        55.4320 
  86   0.0000       2.081942        56.6525 
  87   0.0000       2.157658        58.7129 
  88   0.0000       2.197907        59.8081 
  89   0.0000       2.232958        60.7619 
  90   0.0000       2.244135        61.0660 
  91   0.0000       2.335776        63.5597 
  92   0.0000       2.400932        65.3327 
  93   0.0000       2.434876        66.2563 
  94   0.0000       2.470066        67.2139 
  95   0.0000       2.487583        67.6906 
  96   0.0000       2.566739        69.8445 
  97   0.0000       2.602727        70.8238 
  98   0.0000       2.641807        71.8872 
  99   0.0000       2.650635        72.1275 
 100   0.0000       2.727960        74.2316 
 101   0.0000       2.736983        74.4771 
 102   0.0000       2.942477        80.0689 
 103   0.0000       3.113333        84.7181 
 104   0.0000      13.395522       364.5107 
 105   0.0000      13.720609       373.3567 
 106   0.0000      13.840072       376.6075 
 107   0.0000      14.046172       382.2158 
 108   0.0000      14.066803       382.7772 
 109   0.0000      14.268750       388.2724 

                    ********************************
                    * MULLIKEN POPULATION ANALYSIS *
                    ********************************

-----------------------
MULLIKEN ATOMIC CHARGES
-----------------------
   0 C :   -0.195007
   1 C :   -0.458784
   2 C :   -0.431161
   3 C :   -0.431161
   4 C :   -0.458784
   5 C :   -0.195007
   6 H :    0.209272
   7 H :    0.223393
   8 H :    0.219842
   9 H :    0.219420
  10 H :    0.213025
  11 H :    0.219420
  12 H :    0.213025
  13 H :    0.223393
  14 H :    0.219842
  15 H :    0.209272
Sum of atomic charges:    0.0000000

--------------------------------
MULLIKEN REDUCED ORBITAL CHARGES
--------------------------------
  0 C s       :     3.231513  s :     3.231513
      pz      :     0.983644  p :     2.923508
      px      :     0.941731
      py      :     0.998133
      dz2     :     0.009604  d :     0.039986
      dxz     :     0.015239
      dyz     :     0.001877
      dx2y2   :     0.005343
      dxy     :     0.007923
  1 C s       :     3.334034  s :     3.334034
      pz      :     0.921344  p :     3.080380
      px      :     1.044118
      py      :     1.114919
      dz2     :     0.012117  d :     0.044370
      dxz     :     0.009707
      dyz     :     0.005089
      dx2y2   :     0.006392
      dxy     :     0.011065
  2 C s       :     3.323230  s :     3.323230
      pz      :     1.028380  p :     3.064136
      px      :     0.955366
      py      :     1.080391
      dz2     :     0.010341  d :     0.043794
      dxz     :     0.011865
      dyz     :     0.003398
      dx2y2   :     0.012220
      dxy     :     0.005970
  3 C s       :     3.323230  s :     3.323230
      pz      :     1.028380  p :     3.064136
      px      :     0.955366
      py      :     1.080391
      dz2     :     0.010341  d :     0.043794
      dxz     :     0.011865
      dyz     :     0.003398
      dx2y2   :     0.012220
      dxy     :     0.005970
  4 C s       :     3.334034  s :     3.334034
      pz      :     0.921344  p :     3.080380
      px      :     1.044118
      py      :     1.114919
      dz2     :     0.012117  d :     0.044370
      dxz     :     0.009707
      dyz     :     0.005089
      dx2y2   :     0.006392
      dxy     :     0.011065
  5 C s       :     3.231513  s :     3.231513
      pz      :     0.983644  p :     2.923508
      px      :     0.941731
      py      :     0.998133
      dz2     :     0.009604  d :     0.039986
      dxz     :     0.015239
      dyz     :     0.001877
      dx2y2   :     0.005343
      dxy     :     0.007923
  6 H s       :     0.790728  s :     0.790728
  7 H s       :     0.776607  s :     0.776607
  8 H s       :     0.780158  s :     0.780158
  9 H s       :     0.780580  s :     0.780580
 10 H s       :     0.786975  s :     0.786975
 11 H s       :     0.780580  s :     0.780580
 12 H s       :     0.786975  s :     0.786975
 13 H s       :     0.776607  s :     0.776607
 14 H s       :     0.780158  s :     0.780158
 15 H s       :     0.790728  s :     0.790728


                     *******************************
                     * LOEWDIN POPULATION ANALYSIS *
                     *******************************

----------------------
LOEWDIN ATOMIC CHARGES
----------------------
   0 C :   -0.156881
   1 C :   -0.242241
   2 C :   -0.237008
   3 C :   -0.237008
   4 C :   -0.242241
   5 C :   -0.156881
   6 H :    0.128437
   7 H :    0.130589
   8 H :    0.129681
   9 H :    0.124019
  10 H :    0.123404
  11 H :    0.124019
  12 H :    0.123404
  13 H :    0.130589
  14 H :    0.129681
  15 H :    0.128437

-------------------------------
LOEWDIN REDUCED ORBITAL CHARGES
-------------------------------
  0 C s       :     2.903571  s :     2.903571
      pz      :     1.058937  p :     3.163286
      px      :     1.107652
      py      :     0.996697
      dz2     :     0.020843  d :     0.090024
      dxz     :     0.036825
      dyz     :     0.004228
      dx2y2   :     0.013122
      dxy     :     0.015006
  1 C s       :     2.902083  s :     2.902083
      pz      :     1.063936  p :     3.249137
      px      :     1.078944
      py      :     1.106257
      dz2     :     0.026086  d :     0.091022
      dxz     :     0.022868
      dyz     :     0.010582
      dx2y2   :     0.011328
      dxy     :     0.020158
  2 C s       :     2.906513  s :     2.906513
      pz      :     1.074035  p :     3.240881
      px      :     1.064833
      py      :     1.102013
      dz2     :     0.020694  d :     0.089614
      dxz     :     0.024858
      dyz     :     0.006645
      dx2y2   :     0.024072
      dxy     :     0.013346
  3 C s       :     2.906513  s :     2.906513
      pz      :     1.074035  p :     3.240881
      px      :     1.064833
      py      :     1.102013
      dz2     :     0.020694  d :     0.089614
      dxz     :     0.024858
      dyz     :     0.006645
      dx2y2   :     0.024072
      dxy     :     0.013346
  4 C s       :     2.902083  s :     2.902083
      pz      :     1.063936  p :     3.249137
      px      :     1.078944
      py      :     1.106257
      dz2     :     0.026086  d :     0.091022
      dxz     :     0.022868
      dyz     :     0.010582
      dx2y2   :     0.011328
      dxy     :     0.020158
  5 C s       :     2.903571  s :     2.903571
      pz      :     1.058937  p :     3.163286
      px      :     1.107652
      py      :     0.996697
      dz2     :     0.020843  d :     0.090024
      dxz     :     0.036825
      dyz     :     0.004228
      dx2y2   :     0.013122
      dxy     :     0.015006
  6 H s       :     0.871563  s :     0.871563
  7 H s       :     0.869411  s :     0.869411
  8 H s       :     0.870319  s :     0.870319
  9 H s       :     0.875981  s :     0.875981
 10 H s       :     0.876596  s :     0.876596
 11 H s       :     0.875981  s :     0.875981
 12 H s       :     0.876596  s :     0.876596
 13 H s       :     0.869411  s :     0.869411
 14 H s       :     0.870319  s :     0.870319
 15 H s       :     0.871563  s :     0.871563


                      *****************************
                      * MAYER POPULATION ANALYSIS *
                      *****************************

  NA   - Mulliken gross atomic population
  ZA   - Total nuclear charge
  QA   - Mulliken gross atomic charge
  VA   - Mayer's total valence
  BVA  - Mayer's bonded valence
  FA   - Mayer's free valence

  ATOM       NA         ZA         QA         VA         BVA        FA
  0 C      6.1950     6.0000    -0.1950     3.7842     3.7842     0.0000
  1 C      6.4588     6.0000    -0.4588     3.7377     3.7377    -0.0000
  2 C      6.4312     6.0000    -0.4312     3.7355     3.7355     0.0000
  3 C      6.4312     6.0000    -0.4312     3.7355     3.7355     0.0000
  4 C      6.4588     6.0000    -0.4588     3.7377     3.7377     0.0000
  5 C      6.1950     6.0000    -0.1950     3.7842     3.7842     0.0000
  6 H      0.7907     1.0000     0.2093     0.9187     0.9187     0.0000
  7 H      0.7766     1.0000     0.2234     0.9043     0.9043    -0.0000
  8 H      0.7802     1.0000     0.2198     0.9013     0.9013    -0.0000
  9 H      0.7806     1.0000     0.2194     0.9095     0.9095    -0.0000
 10 H      0.7870     1.0000     0.2130     0.9058     0.9058    -0.0000
 11 H      0.7806     1.0000     0.2194     0.9095     0.9095     0.0000
 12 H      0.7870     1.0000     0.2130     0.9058     0.9058    -0.0000
 13 H      0.7766     1.0000     0.2234     0.9043     0.9043     0.0000
 14 H      0.7802     1.0000     0.2198     0.9013     0.9013    -0.0000
 15 H      0.7907     1.0000     0.2093     0.9187     0.9187     0.0000

  Mayer bond orders larger than 0.100000
B(  0-C ,  1-C ) :   0.9908 B(  0-C ,  5-C ) :   1.9096 B(  0-C ,  6-H ) :   0.9239 
B(  1-C ,  2-C ) :   0.9872 B(  1-C ,  7-H ) :   0.9177 B(  1-C ,  8-H ) :   0.9077 
B(  2-C ,  3-C ) :   0.9799 B(  2-C ,  9-H ) :   0.9264 B(  2-C , 10-H ) :   0.9186 
B(  3-C ,  4-C ) :   0.9872 B(  3-C , 11-H ) :   0.9264 B(  3-C , 12-H ) :   0.9186 
B(  4-C ,  5-C ) :   0.9908 B(  4-C , 13-H ) :   0.9177 B(  4-C , 14-H ) :   0.9077 
B(  5-C , 15-H ) :   0.9239 

-------
TIMINGS
-------

Total SCF time: 0 days 0 hours 0 min 47 sec 

Total time                  ....      47.301 sec
Sum of individual times     ....      43.626 sec  ( 92.2%)

Fock matrix formation       ....      36.817 sec  ( 77.8%)
  Split-RI-J                ....       3.496 sec  (  9.5% of F)
  Chain of spheres X        ....      17.652 sec  ( 47.9% of F)
  XC integration            ....      10.516 sec  ( 28.6% of F)
    Basis function eval.    ....       2.744 sec  ( 26.1% of XC)
    Density eval.           ....       1.762 sec  ( 16.8% of XC)
    XC-Functional eval.     ....       1.246 sec  ( 11.9% of XC)
    XC-Potential eval.      ....       0.951 sec  (  9.0% of XC)
Diagonalization             ....       0.538 sec  (  1.1%)
Density matrix formation    ....       0.071 sec  (  0.2%)
Population analysis         ....       0.380 sec  (  0.8%)
Initial guess               ....       0.009 sec  (  0.0%)
Orbital Transformation      ....       0.000 sec  (  0.0%)
Orbital Orthonormalization  ....       0.000 sec  (  0.0%)
DIIS solution               ....       0.651 sec  (  1.4%)
SOSCF solution              ....       0.382 sec  (  0.8%)
Grid generation             ....       4.777 sec  ( 10.1%)

Maximum memory used throughout the entire SCF-calculation: 53.0 MB


-------------------------------------------------------------------------------
                          DFT DISPERSION CORRECTION                            
                                                                               
                              DFTD3 V3.1  Rev 1                                
                          USING Becke-Johnson damping                          
-------------------------------------------------------------------------------
The PBEh-3c composite method is recognized
Using three-body term ABC
Active option DFTDOPT                   ...         4   

molecular C6(AA) [au] = 1996.977593 


            DFT-D V3
 parameters
 s6 scaling factor         :     1.0000 
 a1 scaling factor         :     0.4860 
 s8 scaling factor         :     0.0000 
 a2 scaling factor         :     4.5000 
 Damping factor alpha9(ATM):    16.0000 
 ad hoc parameters k1-k3   :    16.0000     1.3333    -4.0000 

 Edisp/kcal,au: -4.900418886028  -0.007809313749 
 E6   /kcal   :  -4.926131251 
 E8   /kcal   :  -0.000000000 
 E6(ABC)      :   0.025712365 
 % E8         :   0.000000000 
 % E6(ABC)    :  -0.524697289 

-------------------------   ----------------
Dispersion correction           -0.007809314
-------------------------   ----------------

------------------   -----------------
gCP correction             0.024175266
------------------   -----------------

-------------------------   --------------------
FINAL SINGLE POINT ENERGY      -234.130336299547
-------------------------   --------------------


                            ***************************************
                            *     ORCA property calculations      *
                            ***************************************

                                    ---------------------
                                    Active property flags
                                    ---------------------
   (+) Dipole Moment


------------------------------------------------------------------------------
                       ORCA ELECTRIC PROPERTIES CALCULATION
------------------------------------------------------------------------------

Dipole Moment Calculation                       ... on
Quadrupole Moment Calculation                   ... off
Polarizability Calculation                      ... off
GBWName                                         ... pbeh-3c.gbw
Electron density                                ... pbeh-3c.scfp
The origin for moment calculation is the CENTER OF MASS  = ( 0.000000, -0.000000 -0.231301)

-------------
DIPOLE MOMENT
-------------
                                X             Y             Z
Electronic contribution:     -0.00000       0.00000      -1.89652
Nuclear contribution   :      0.00000       0.00000       2.00563
                        -----------------------------------------
Total Dipole Moment    :     -0.00000       0.00000       0.10911
                        -----------------------------------------
Magnitude (a.u.)       :      0.10911
Magnitude (Debye)      :      0.27735



--------------------
Rotational spectrum 
--------------------
 
Rotational constants in cm-1:     0.159659     0.153122     0.086135 
Rotational constants in MHz :  4786.465632  4590.496614  2582.247360 

 Dipole components along the rotational axes: 
x,y,z [a.u.] :    -0.000000     0.109115     0.000000 
x,y,z [Debye]:    -0.000000     0.277348     0.000000 

 

Timings for individual modules:

Sum of individual times         ...       49.189 sec (=   0.820 min)
GTO integral calculation        ...        1.259 sec (=   0.021 min)   2.6 %
SCF iterations                  ...       47.930 sec (=   0.799 min)  97.4 %
                             ****ORCA TERMINATED NORMALLY****
TOTAL RUN TIME: 0 days 0 hours 0 minutes 50 seconds 658 msec
