
                                 *****************
                                 * O   R   C   A *
                                 *****************

                                            #,                                       
                                            ###                                      
                                            ####                                     
                                            #####                                    
                                            ######                                   
                                           ########,                                 
                                     ,,################,,,,,                         
                               ,,#################################,,                 
                          ,,##########################################,,             
                       ,#########################################, ''#####,          
                    ,#############################################,,   '####,        
                  ,##################################################,,,,####,       
                ,###########''''           ''''###############################       
              ,#####''   ,,,,##########,,,,          '''####'''          '####       
            ,##' ,,,,###########################,,,                        '##       
           ' ,,###''''                  '''############,,,                           
         ,,##''                                '''############,,,,        ,,,,,,###''
      ,#''                                            '''#######################'''  
     '                                                          ''''####''''         
             ,#######,   #######,   ,#######,      ##                                
            ,#'     '#,  ##    ##  ,#'     '#,    #''#        ######   ,####,        
            ##       ##  ##   ,#'  ##            #'  '#       #        #'  '#        
            ##       ##  #######   ##           ,######,      #####,   #    #        
            '#,     ,#'  ##    ##  '#,     ,#' ,#      #,         ##   #,  ,#        
             '#######'   ##     ##  '#######'  #'      '#     #####' # '####'        



                  #######################################################
                  #                        -***-                        #
                  #          Department of theory and spectroscopy      #
                  #    Directorship and core code : Frank Neese         #
                  #        Max Planck Institute fuer Kohlenforschung    #
                  #                Kaiser Wilhelm Platz 1               #
                  #                 D-45470 Muelheim/Ruhr               #
                  #                      Germany                        #
                  #                                                     #
                  #                  All rights reserved                #
                  #                        -***-                        #
                  #######################################################


                         Program Version 5.0.3 -  RELEASE  -


 With contributions from (in alphabetic order):
   Daniel Aravena         : Magnetic Suceptibility
   Michael Atanasov       : Ab Initio Ligand Field Theory (pilot matlab implementation)
   Alexander A. Auer      : GIAO ZORA, VPT2 properties, NMR spectrum
   Ute Becker             : Parallelization
   Giovanni Bistoni       : ED, misc. LED, open-shell LED, HFLD
   Martin Brehm           : Molecular dynamics
   Dmytro Bykov           : SCF Hessian
   Vijay G. Chilkuri      : MRCI spin determinant printing, contributions to CSF-ICE
   Dipayan Datta          : RHF DLPNO-CCSD density
   Achintya Kumar Dutta   : EOM-CC, STEOM-CC
   Dmitry Ganyushin       : Spin-Orbit,Spin-Spin,Magnetic field MRCI
   Miquel Garcia          : C-PCM and meta-GGA Hessian, CC/C-PCM, Gaussian charge scheme
   Yang Guo               : DLPNO-NEVPT2, F12-NEVPT2, CIM, IAO-localization
   Andreas Hansen         : Spin unrestricted coupled pair/coupled cluster methods
   Benjamin Helmich-Paris : MC-RPA, TRAH-SCF, COSX integrals
   Lee Huntington         : MR-EOM, pCC
   Robert Izsak           : Overlap fitted RIJCOSX, COSX-SCS-MP3, EOM
   Marcus Kettner         : VPT2
   Christian Kollmar      : KDIIS, OOCD, Brueckner-CCSD(T), CCSD density, CASPT2, CASPT2-K
   Simone Kossmann        : Meta GGA functionals, TD-DFT gradient, OOMP2, MP2 Hessian
   Martin Krupicka        : Initial AUTO-CI
   Lucas Lang             : DCDCAS
   Marvin Lechner         : AUTO-CI (C++ implementation), FIC-MRCC
   Dagmar Lenk            : GEPOL surface, SMD
   Dimitrios Liakos       : Extrapolation schemes; Compound Job, initial MDCI parallelization
   Dimitrios Manganas     : Further ROCIS development; embedding schemes
   Dimitrios Pantazis     : SARC Basis sets
   Anastasios Papadopoulos: AUTO-CI, single reference methods and gradients
   Taras Petrenko         : DFT Hessian,TD-DFT gradient, ASA, ECA, R-Raman, ABS, FL, XAS/XES, NRVS
   Peter Pinski           : DLPNO-MP2, DLPNO-MP2 Gradient
   Christoph Reimann      : Effective Core Potentials
   Marius Retegan         : Local ZFS, SOC
   Christoph Riplinger    : Optimizer, TS searches, QM/MM, DLPNO-CCSD(T), (RO)-DLPNO pert. Triples
   Tobias Risthaus        : Range-separated hybrids, TD-DFT gradient, RPA, STAB
   Michael Roemelt        : Original ROCIS implementation
   Masaaki Saitow         : Open-shell DLPNO-CCSD energy and density
   Barbara Sandhoefer     : DKH picture change effects
   Avijit Sen             : IP-ROCIS
   Kantharuban Sivalingam : CASSCF convergence, NEVPT2, FIC-MRCI
   Bernardo de Souza      : ESD, SOC TD-DFT
   Georgi Stoychev        : AutoAux, RI-MP2 NMR, DLPNO-MP2 response
   Willem Van den Heuvel  : Paramagnetic NMR
   Boris Wezisla          : Elementary symmetry handling
   Frank Wennmohs         : Technical directorship


 We gratefully acknowledge several colleagues who have allowed us to
 interface, adapt or use parts of their codes:
   Stefan Grimme, W. Hujo, H. Kruse, P. Pracht,  : VdW corrections, initial TS optimization,
                  C. Bannwarth, S. Ehlert          DFT functionals, gCP, sTDA/sTD-DF
   Ed Valeev, F. Pavosevic, A. Kumar             : LibInt (2-el integral package), F12 methods
   Garnet Chan, S. Sharma, J. Yang, R. Olivares  : DMRG
   Ulf Ekstrom                                   : XCFun DFT Library
   Mihaly Kallay                                 : mrcc  (arbitrary order and MRCC methods)
   Jiri Pittner, Ondrej Demel                    : Mk-CCSD
   Frank Weinhold                                : gennbo (NPA and NBO analysis)
   Christopher J. Cramer and Donald G. Truhlar   : smd solvation model
   Lars Goerigk                                  : TD-DFT with DH, B97 family of functionals
   V. Asgeirsson, H. Jonsson                     : NEB implementation
   FAccTs GmbH                                   : IRC, NEB, NEB-TS, DLPNO-Multilevel, CI-OPT
                                                   MM, QMMM, 2- and 3-layer-ONIOM, Crystal-QMMM,
                                                   LR-CPCM, SF, NACMEs, symmetry and pop. for TD-DFT,
                                                   nearIR, NL-DFT gradient (VV10), updates on ESD,
                                                   ML-optimized integration grids
   S Lehtola, MJT Oliveira, MAL Marques          : LibXC Library
   Liviu Ungur et al                             : ANISO software


 Your calculation uses the libint2 library for the computation of 2-el integrals
 For citations please refer to: http://libint.valeyev.net

 Your ORCA version has been built with support for libXC version: 5.1.0
 For citations please refer to: https://tddft.org/programs/libxc/

 This ORCA versions uses:
   CBLAS   interface :  Fast vector & matrix operations
   LAPACKE interface :  Fast linear algebra routines
   SCALAPACK package :  Parallel linear algebra routines
   Shared memory     :  Shared parallel matrices
   BLAS/LAPACK       :  OpenBLAS 0.3.15  USE64BITINT DYNAMIC_ARCH NO_AFFINITY Haswell SINGLE_THREADED
        Core in use  :  Haswell
   Copyright (c) 2011-2014, The OpenBLAS Project




***************************************
The coordinates will be read from file: 29A.xyz
***************************************


Your calculation utilizes the geometrical counterpoise correction gCP
Please cite in your paper:
H.Kruse, S. Grimme J.Chem.Phys., 136, (2012), 154101 
   

Your calculation utilizes the atom-pairwise dispersion correction
with the Becke-Johnson damping scheme (D3BJ)
Cite in your paper:
S.Grimme, S.Ehrlich, L.Goerigk, J Comput Chem, (2011), 32, 1456–1465 
S.Grimme, J.Antony, S.Ehrlich and H.Krieg, J.Chem.Phys., 132, (2010), 154104 
   

Your calculation employs the composite approach PBEh-3c.
Please cite in your paper:
S. Grimme, J. G. Brandenburg, C. Bannwarth, A. Hansen J.Chem.Phys., 143, (2015), 054107 
   

================================================================================

----- Orbital basis set information -----
Your calculation utilizes the basis: def2-mSVP

----- AuxJ basis set information -----
Your calculation utilizes the auxiliary basis: def2/J
   F. Weigend, Phys. Chem. Chem. Phys. 8, 1057 (2006).

================================================================================
                                        WARNINGS
                       Please study these warnings very carefully!
================================================================================


INFO   : the flag for use of the SHARK integral package has been found!

================================================================================
                                       INPUT FILE
================================================================================
NAME = pbeh-3c.inp
|  1> ! PBEh-3c def2/J TightSCF DefGrid3
|  2> 
|  3> %maxcore 60000
|  4> 
|  5> %pal
|  6> nprocs 4
|  7> end
|  8> 
|  9> *xyzfile 0 1 29A.xyz
| 10> 
| 11>                          ****END OF INPUT****
================================================================================

                       ****************************
                       * Single Point Calculation *
                       ****************************

---------------------------------
CARTESIAN COORDINATES (ANGSTROEM)
---------------------------------
  N      0.000000    0.000000    1.613237
  C     -1.143009    0.000000    0.909638
  H     -2.058832    0.000000    1.486975
  C     -1.193869    0.000000   -0.482168
  H     -2.149793    0.000000   -0.986071
  C      0.000000    0.000000   -1.194928
  H      0.000000    0.000000   -2.276257
  C      1.193869    0.000000   -0.482168
  H      2.149793    0.000000   -0.986071
  C      1.143009    0.000000    0.909638
  H      2.058832    0.000000    1.486975

----------------------------
CARTESIAN COORDINATES (A.U.)
----------------------------
  NO LB      ZA    FRAG     MASS         X           Y           Z
   0 N     7.0000    0    14.007    0.000000    0.000000    3.048575
   1 C     6.0000    0    12.011   -2.159973    0.000000    1.718966
   2 H     1.0000    0     1.008   -3.890628    0.000000    2.809975
   3 C     6.0000    0    12.011   -2.256085    0.000000   -0.911165
   4 H     1.0000    0     1.008   -4.062519    0.000000   -1.863405
   5 C     6.0000    0    12.011    0.000000    0.000000   -2.258088
   6 H     1.0000    0     1.008    0.000000    0.000000   -4.301503
   7 C     6.0000    0    12.011    2.256085    0.000000   -0.911165
   8 H     1.0000    0     1.008    4.062519    0.000000   -1.863405
   9 C     6.0000    0    12.011    2.159973    0.000000    1.718966
  10 H     1.0000    0     1.008    3.890628    0.000000    2.809975

--------------------------------
INTERNAL COORDINATES (ANGSTROEM)
--------------------------------
 N      0   0   0     0.000000000000     0.00000000     0.00000000
 C      1   0   0     1.342207131509     0.00000000     0.00000000
 H      2   1   0     1.082612807808   116.15745715     0.00000000
 C      2   1   3     1.392734168648   123.70790833   180.00000000
 H      4   2   1     1.080606183146   119.88820567   180.00000085
 C      4   2   1     1.390449687919   118.74515451     0.00000000
 H      6   4   2     1.081328800000   120.83795673   180.00000000
 C      6   4   2     1.390449687919   118.32408654     0.00000000
 H      8   6   4     1.080606183146   121.36663982   180.00000000
 C      1   2   3     1.342207131509   116.76978778   180.00000000
 H     10   1   2     1.082612807808   116.15745715   180.00000000

---------------------------
INTERNAL COORDINATES (A.U.)
---------------------------
 N      0   0   0     0.000000000000     0.00000000     0.00000000
 C      1   0   0     2.536403893548     0.00000000     0.00000000
 H      2   1   0     2.045841715832   116.15745715     0.00000000
 C      2   1   3     2.631886156099   123.70790833   180.00000000
 H      4   2   1     2.042049744768   119.88820567   180.00000085
 C      4   2   1     2.627569113164   118.74515451     0.00000000
 H      6   4   2     2.043415292722   120.83795673   180.00000000
 C      6   4   2     2.627569113164   118.32408654     0.00000000
 H      8   6   4     2.042049744768   121.36663982   180.00000000
 C      1   2   3     2.536403893548   116.76978778   180.00000000
 H     10   1   2     2.045841715832   116.15745715   180.00000000

---------------------
BASIS SET INFORMATION
---------------------
There are 3 groups of distinct atoms

 Group   1 Type N   : 8s4p1d contracted to 4s2p1d pattern {5111/31/1}
 Group   2 Type C   : 8s4p1d contracted to 4s2p1d pattern {5111/31/1}
 Group   3 Type H   : 4s contracted to 2s pattern {31}

Atom   0N    basis set group =>   1
Atom   1C    basis set group =>   2
Atom   2H    basis set group =>   3
Atom   3C    basis set group =>   2
Atom   4H    basis set group =>   3
Atom   5C    basis set group =>   2
Atom   6H    basis set group =>   3
Atom   7C    basis set group =>   2
Atom   8H    basis set group =>   3
Atom   9C    basis set group =>   2
Atom  10H    basis set group =>   3
---------------------------------
AUXILIARY/J BASIS SET INFORMATION
---------------------------------
There are 3 groups of distinct atoms

 Group   1 Type N   : 12s5p4d2f1g contracted to 6s4p3d1f1g pattern {711111/2111/211/2/1}
 Group   2 Type C   : 12s5p4d2f1g contracted to 6s4p3d1f1g pattern {711111/2111/211/2/1}
 Group   3 Type H   : 5s2p1d contracted to 3s1p1d pattern {311/2/1}

Atom   0N    basis set group =>   1
Atom   1C    basis set group =>   2
Atom   2H    basis set group =>   3
Atom   3C    basis set group =>   2
Atom   4H    basis set group =>   3
Atom   5C    basis set group =>   2
Atom   6H    basis set group =>   3
Atom   7C    basis set group =>   2
Atom   8H    basis set group =>   3
Atom   9C    basis set group =>   2
Atom  10H    basis set group =>   3


           ************************************************************
           *        Program running with 4 parallel MPI-processes     *
           *              working on a common directory               *
           ************************************************************
------------------------------------------------------------------------------
                           ORCA GTO INTEGRAL CALCULATION
                           -- RI-GTO INTEGRALS CHOSEN --
------------------------------------------------------------------------------
------------------------------------------------------------------------------
                   ___                                                        
                  /   \      - P O W E R E D   B Y -                         
                 /     \                                                     
                 |  |  |   _    _      __       _____    __    __             
                 |  |  |  | |  | |    /  \     |  _  \  |  |  /  |          
                  \  \/   | |  | |   /    \    | | | |  |  | /  /          
                 / \  \   | |__| |  /  /\  \   | |_| |  |  |/  /          
                |  |  |   |  __  | /  /__\  \  |    /   |      \           
                |  |  |   | |  | | |   __   |  |    \   |  |\   \          
                \     /   | |  | | |  |  |  |  | |\  \  |  | \   \       
                 \___/    |_|  |_| |__|  |__|  |_| \__\ |__|  \__/        
                                                                              
                      - O R C A' S   B I G   F R I E N D -                    
                                      &                                       
                       - I N T E G R A L  F E E D E R -                       
                                                                              
 v1 FN, 2020, v2 2021                                                         
------------------------------------------------------------------------------


Reading SHARK input file pbeh-3c.SHARKINP.tmp ... ok
----------------------
SHARK INTEGRAL PACKAGE
----------------------

Number of atoms                             ...     11
Number of basis functions                   ...    100
Number of shells                            ...     52
Maximum angular momentum                    ...      2
Integral batch strategy                     ... SHARK/LIBINT Hybrid
RI-J (if used) integral strategy            ... SPLIT-RIJ (Revised 2003 algorithm where possible)
Printlevel                                  ...      1
Contraction scheme used                     ... SEGMENTED contraction
Coulomb Range Separation                    ... NOT USED
Exchange Range Separation                   ... NOT USED
Finite Nucleus Model                        ... NOT USED
Auxiliary Coulomb fitting basis             ... AVAILABLE
   # of basis functions in Aux-J            ...    349
   # of shells in Aux-J                     ...    115
   Maximum angular momentum in Aux-J        ...      4
Auxiliary J/K fitting basis                 ... NOT available
Auxiliary Correlation fitting basis         ... NOT available
Auxiliary 'external' fitting basis          ... NOT available
Integral threshold                          ...     2.500000e-11
Primitive cut-off                           ...     2.500000e-12
Primitive pair pre-selection threshold      ...     2.500000e-12

Calculating pre-screening integrals         ... done (  0.1 sec) Dimension = 52
Organizing shell pair data                  ... done (  0.2 sec)
Shell pair information
Total number of shell pairs                 ...      1378
Shell pairs after pre-screening             ...      1324
Total number of primitive shell pairs       ...      4944
Primitive shell pairs kept                  ...      3622
          la=0 lb=0:    541 shell pairs
          la=1 lb=0:    408 shell pairs
          la=1 lb=1:     78 shell pairs
          la=2 lb=0:    204 shell pairs
          la=2 lb=1:     72 shell pairs
          la=2 lb=2:     21 shell pairs

Calculating one electron integrals          ... done (  0.0 sec)
Calculating RI/J V-Matrix + Cholesky decomp.... done (  0.1 sec)
Calculating Nuclear repulsion               ... done (  0.0 sec) ENN=    206.157874878360 Eh

SHARK setup successfully completed in   1.0 seconds

Maximum memory used throughout the entire GTOINT-calculation: 10.1 MB


           ************************************************************
           *        Program running with 4 parallel MPI-processes     *
           *              working on a common directory               *
           ************************************************************
-------------------------------------------------------------------------------
                                 ORCA SCF
-------------------------------------------------------------------------------

------------
SCF SETTINGS
------------
Hamiltonian:
 Density Functional     Method          .... DFT(GTOs)
 Exchange Functional    Exchange        .... PBE
   PBE kappa parameter   XKappa         ....  1.024500
   PBE mue parameter    XMuePBE         ....  0.123457
 Correlation Functional Correlation     .... PBE
   PBE beta parameter  CBetaPBE         ....  0.030000
 LDA part of GGA corr.  LDAOpt          .... PW91-LDA
 Gradients option       PostSCFGGA      .... off
 Hybrid DFT is turned on
   Fraction HF Exchange ScalHFX         ....  0.420000
   Scaling of DF-GGA-X  ScalDFX         ....  0.580000
   Scaling of DF-GGA-C  ScalDFC         ....  1.000000
   Scaling of DF-LDA-C  ScalLDAC        ....  1.000000
   Perturbative correction              ....  0.000000
   Density functional embedding theory  .... OFF
 RI-approximation to the Coulomb term is turned on
   Number of AuxJ basis functions       .... 349
   RIJ-ON(X) (HFX calculated with O(N)) .... on
   Number of AuxJ basis functions       .... 349
   RIJ-COSX (HFX calculated with COS-X)).... on


General Settings:
 Integral files         IntName         .... pbeh-3c
 Hartree-Fock type      HFTyp           .... RHF
 Total Charge           Charge          ....    0
 Multiplicity           Mult            ....    1
 Number of Electrons    NEL             ....   42
 Basis Dimension        Dim             ....  100
 Nuclear Repulsion      ENuc            ....    206.1578748784 Eh

Convergence Acceleration:
 DIIS                   CNVDIIS         .... on
   Start iteration      DIISMaxIt       ....    12
   Startup error        DIISStart       ....  0.200000
   # of expansion vecs  DIISMaxEq       ....     5
   Bias factor          DIISBfac        ....   1.050
   Max. coefficient     DIISMaxC        ....  10.000
 Trust-Rad. Augm. Hess. CNVTRAH         .... auto
   Auto Start mean grad. ratio tolernc. ....  1.125000
   Auto Start start iteration           ....    20
   Auto Start num. interpolation iter.  ....    10
   Max. Number of Micro iterations      ....    16
   Max. Number of Macro iterations      .... Maxiter - #DIIS iter
   Number of Davidson start vectors     ....     2
   Converg. threshold I  (grad. norm)   ....   1.000e-05
   Converg. threshold II (energy diff.) ....   1.000e-08
   Grad. Scal. Fac. for Micro threshold ....   0.100
   Minimum threshold for Micro iter.    ....   0.010
   NR start threshold (gradient norm)   ....   0.001
   Initial trust radius                 ....   0.400
   Minimum AH scaling param. (alpha)    ....   1.000
   Maximum AH scaling param. (alpha)    .... 1000.000
   Orbital update algorithm             .... Taylor
   White noise on init. David. guess    .... on
   Maximum white noise                  ....   0.010
   Quad. conv. algorithm                .... NR
   COSX micro iterations for RIJONX calc.... off
 SOSCF                  CNVSOSCF        .... on
   Start iteration      SOSCFMaxIt      ....   150
   Startup grad/error   SOSCFStart      ....  0.003300
 Level Shifting         CNVShift        .... on
   Level shift para.    LevelShift      ....    0.2500
   Turn off err/grad.   ShiftErr        ....    0.0010
 Zerner damping         CNVZerner       .... off
 Static damping         CNVDamp         .... on
   Fraction old density DampFac         ....    0.7000
   Max. Damping (<1)    DampMax         ....    0.9800
   Min. Damping (>=0)   DampMin         ....    0.0000
   Turn off err/grad.   DampErr         ....    0.1000
 Fernandez-Rico         CNVRico         .... off

SCF Procedure:
 Maximum # iterations   MaxIter         ....   125
 SCF integral mode      SCFMode         .... Direct
   Integral package                     .... SHARK and LIBINT hybrid scheme
 Reset frequency        DirectResetFreq ....    20
 Integral Threshold     Thresh          ....  2.500e-11 Eh
 Primitive CutOff       TCut            ....  2.500e-12 Eh

Convergence Tolerance:
 Convergence Check Mode ConvCheckMode   .... Total+1el-Energy
 Convergence forced     ConvForced      .... 0
 Energy Change          TolE            ....  1.000e-08 Eh
 1-El. energy change                    ....  1.000e-05 Eh
 Orbital Gradient       TolG            ....  1.000e-05
 Orbital Rotation angle TolX            ....  1.000e-05
 DIIS Error             TolErr          ....  5.000e-07


Diagonalization of the overlap matrix:
Smallest eigenvalue                        ... 1.078e-03
Time for diagonalization                   ...    0.002 sec
Threshold for overlap eigenvalues          ... 1.000e-08
Number of eigenvalues below threshold      ... 0
Time for construction of square roots      ...    0.016 sec
Total time needed                          ...    0.019 sec

--------------------------------
INITIAL GUESS: MINIMAL BASIS EHT
--------------------------------
The minimal basis has 35 functions
EHT matrix was diagonalized
Basis set overlap was calculated now projecting the orbitals
Using GuessMode=FMatrix for the initial guess
C*T matrix was formed
Effective Fockian was calculated
Effective Fockian was diagonalized
Initial density was built
                      ------------------
                      INITIAL GUESS DONE
                      ------------------
-------------------
DFT GRID GENERATION
-------------------

General Integration Accuracy     IntAcc      ... 4.959
Radial Grid Type                 RadialGrid  ... OptM3 with GC (2021)
Angular Grid (max. ang.)         AngularGrid ... 6 (Lebedev-590)
Angular grid pruning method      GridPruning ... 4 (adaptive)
Weight generation scheme         WeightScheme... Becke
Basis function cutoff            BFCut       ... 1.0000e-11
Integration weight cutoff        WCut        ... 1.0000e-14
Angular grids for H and He will be reduced by one unit
Partially contracted basis set               ... off
Rotationally invariant grid construction     ... off

Total number of grid points                  ...   130000
Total number of batches                      ...     2037
Average number of points per batch           ...       63
Average number of grid points per atom       ...    11818
Time for grid setup =    2.832 sec

--------------------
COSX GRID GENERATION
--------------------

GRIDX 1
-------
General Integration Accuracy     IntAcc      ... 4.020
Radial Grid Type                 RadialGrid  ... OptM3 with GC (2021)
Angular Grid (max. ang.)         AngularGrid ... 2 (Lebedev-110)
Angular grid pruning method      GridPruning ... 4 (adaptive)
Weight generation scheme         WeightScheme... Becke
Basis function cutoff            BFCut       ... 1.0000e-11
Integration weight cutoff        WCut        ... 1.0000e-14
Angular grids for H and He will be reduced by one unit
Partially contracted basis set               ... on
Rotationally invariant grid construction     ... off

Total number of grid points                  ...    14724
Total number of batches                      ...      234
Average number of points per batch           ...       62
Average number of grid points per atom       ...     1339
UseSFitting                                  ... on

GRIDX 2
-------
General Integration Accuracy     IntAcc      ... 4.338
Radial Grid Type                 RadialGrid  ... OptM3 with GC (2021)
Angular Grid (max. ang.)         AngularGrid ... 3 (Lebedev-194)
Angular grid pruning method      GridPruning ... 4 (adaptive)
Weight generation scheme         WeightScheme... Becke
Basis function cutoff            BFCut       ... 1.0000e-11
Integration weight cutoff        WCut        ... 1.0000e-14
Angular grids for H and He will be reduced by one unit
Partially contracted basis set               ... on
Rotationally invariant grid construction     ... off

Total number of grid points                  ...    32514
Total number of batches                      ...      514
Average number of points per batch           ...       63
Average number of grid points per atom       ...     2956
UseSFitting                                  ... on

GRIDX 3
-------
General Integration Accuracy     IntAcc      ... 4.871
Radial Grid Type                 RadialGrid  ... OptM3 with GC (2021)
Angular Grid (max. ang.)         AngularGrid ... 4 (Lebedev-302)
Angular grid pruning method      GridPruning ... 4 (adaptive)
Weight generation scheme         WeightScheme... Becke
Basis function cutoff            BFCut       ... 1.0000e-11
Integration weight cutoff        WCut        ... 1.0000e-14
Angular grids for H and He will be reduced by one unit
Partially contracted basis set               ... on
Rotationally invariant grid construction     ... off

Total number of grid points                  ...    61717
Total number of batches                      ...      970
Average number of points per batch           ...       63
Average number of grid points per atom       ...     5611
UseSFitting                                  ... on

Time for X-Grid setup             =    1.991 sec

--------------
SCF ITERATIONS
--------------
ITER       Energy         Delta-E        Max-DP      RMS-DP      [F,P]     Damp
               ***  Starting incremental Fock matrix formation  ***
  0   -246.9750809666   0.000000000000 0.16883029  0.00664899  0.4169130 0.7000
  1   -247.2317919961  -0.256711029524 0.10659454  0.00426382  0.2915133 0.7000
  2   -247.3828464864  -0.151054490330 0.05648074  0.00273437  0.2046591 0.7000
                               ***Turning on DIIS***
  3   -247.4864755082  -0.103629021778 0.03235138  0.00195092  0.1444754 0.7000
  4   -247.5607942834  -0.074318775174 0.02701048  0.00154245  0.1015500 0.7000
  5   -247.6136125418  -0.052818258412 0.06696591  0.00382743  0.0710289 0.0000
                      *** Initiating the SOSCF procedure ***
                           *** Shutting down DIIS ***
                      *** Re-Reading the Fockian *** 
                      *** Removing any level shift *** 
ITER      Energy       Delta-E        Grad      Rot      Max-DP    RMS-DP
  6   -247.73949152  -0.1258789744  0.001798  0.001798  0.002811  0.000162
               *** Restarting incremental Fock matrix formation ***
  7   -247.73953637  -0.0000448553  0.000737  0.000923  0.002498  0.000101
  8   -247.73954341  -0.0000070379  0.000371  0.000665  0.000899  0.000041
  9   -247.73954600  -0.0000025882  0.000084  0.000132  0.000276  0.000013
 10   -247.73954617  -0.0000001676  0.000039  0.000079  0.000081  0.000005
 11   -247.73954618  -0.0000000151  0.000034  0.000055  0.000070  0.000003
 12   -247.73954619  -0.0000000101  0.000009  0.000022  0.000027  0.000001
 13   -247.73954619  -0.0000000025  0.000007  0.000010  0.000012  0.000000
                  ***Gradient check signals convergence***
              ***Rediagonalizing the Fockian in SOSCF/NRSCF***

               *****************************************************
               *                     SUCCESS                       *
               *           SCF CONVERGED AFTER  14 CYCLES          *
               *****************************************************

Old exchange energy                            =    -14.387846040 Eh
New exchange energy                            =    -14.387834603 Eh
Exchange energy change after final integration =      0.000011437 Eh
Total energy after final integration           =   -247.739534755 Eh
Final COS-X integration done in                =     2.624 sec

----------------
TOTAL SCF ENERGY
----------------

Total Energy       :         -247.73953475 Eh           -6741.33546 eV

Components:
Nuclear Repulsion  :          206.15787488 Eh            5609.84097 eV
Electronic Energy  :         -453.89740963 Eh          -12351.17644 eV
One Electron Energy:         -741.60221680 Eh          -20180.02225 eV
Two Electron Energy:          287.70480716 Eh            7828.84581 eV
Max COSX asymmetry :            0.00000072 Eh               0.00002 eV

Virial components:
Potential Energy   :         -493.48808149 Eh          -13428.49339 eV
Kinetic Energy     :          245.74854673 Eh            6687.15793 eV
Virial Ratio       :            2.00810173


DFT components:
N(Alpha)           :       21.000000122668 electrons
N(Beta)            :       21.000000122668 electrons
N(Total)           :       42.000000245336 electrons
E(X)               :      -19.118875566506 Eh       
E(C)               :       -1.818085497136 Eh       
E(XC)              :      -20.936961063642 Eh       
DFET-embed. en.    :        0.000000000000 Eh       

---------------
SCF CONVERGENCE
---------------

  Last Energy change         ...    6.4284e-10  Tolerance :   1.0000e-08
  Last MAX-Density change    ...    1.7764e-15  Tolerance :   1.0000e-07
  Last RMS-Density change    ...    5.1982e-17  Tolerance :   5.0000e-09
  Last Orbital Gradient      ...    7.2204e-07  Tolerance :   1.0000e-05
  Last Orbital Rotation      ...    1.3316e-06  Tolerance :   1.0000e-05

             **** THE GBW FILE WAS UPDATED (pbeh-3c.gbw) ****
             **** DENSITY pbeh-3c.scfp WAS UPDATED ****
             **** ENERGY FILE WAS UPDATED (pbeh-3c.en.tmp) ****
             **** THE GBW FILE WAS UPDATED (pbeh-3c.gbw) ****
             **** DENSITY pbeh-3c.scfp WAS UPDATED ****
----------------
ORBITAL ENERGIES
----------------

  NO   OCC          E(Eh)            E(eV) 
   0   2.0000     -14.640915      -398.3995 
   1   2.0000     -10.483431      -285.2687 
   2   2.0000     -10.483400      -285.2678 
   3   2.0000     -10.471017      -284.9309 
   4   2.0000     -10.459282      -284.6115 
   5   2.0000     -10.459270      -284.6112 
   6   2.0000      -1.045545       -28.4507 
   7   2.0000      -0.902086       -24.5470 
   8   2.0000      -0.854843       -23.2615 
   9   2.0000      -0.710287       -19.3279 
  10   2.0000      -0.709249       -19.2996 
  11   2.0000      -0.601240       -16.3606 
  12   2.0000      -0.547094       -14.8872 
  13   2.0000      -0.537702       -14.6316 
  14   2.0000      -0.492293       -13.3960 
  15   2.0000      -0.467905       -12.7323 
  16   2.0000      -0.455868       -12.4048 
  17   2.0000      -0.422212       -11.4890 
  18   2.0000      -0.333468        -9.0741 
  19   2.0000      -0.314207        -8.5500 
  20   2.0000      -0.306194        -8.3320 
  21   0.0000      -0.004933        -0.1342 
  22   0.0000       0.008768         0.2386 
  23   0.0000       0.144796         3.9401 
  24   0.0000       0.181810         4.9473 
  25   0.0000       0.195894         5.3305 
  26   0.0000       0.202942         5.5223 
  27   0.0000       0.223124         6.0715 
  28   0.0000       0.235207         6.4003 
  29   0.0000       0.269936         7.3453 
  30   0.0000       0.314314         8.5529 
  31   0.0000       0.333335         9.0705 
  32   0.0000       0.339620         9.2415 
  33   0.0000       0.427983        11.6460 
  34   0.0000       0.480911        13.0862 
  35   0.0000       0.507005        13.7963 
  36   0.0000       0.545755        14.8508 
  37   0.0000       0.572806        15.5869 
  38   0.0000       0.581672        15.8281 
  39   0.0000       0.592093        16.1117 
  40   0.0000       0.613344        16.6899 
  41   0.0000       0.615002        16.7351 
  42   0.0000       0.635398        17.2901 
  43   0.0000       0.645422        17.5628 
  44   0.0000       0.676392        18.4056 
  45   0.0000       0.694641        18.9021 
  46   0.0000       0.735568        20.0158 
  47   0.0000       0.832678        22.6583 
  48   0.0000       0.923000        25.1161 
  49   0.0000       0.937065        25.4988 
  50   0.0000       0.946321        25.7507 
  51   0.0000       0.960928        26.1482 
  52   0.0000       0.961991        26.1771 
  53   0.0000       0.995806        27.0973 
  54   0.0000       1.026195        27.9242 
  55   0.0000       1.051546        28.6140 
  56   0.0000       1.052207        28.6320 
  57   0.0000       1.072747        29.1909 
  58   0.0000       1.085254        29.5313 
  59   0.0000       1.170091        31.8398 
  60   0.0000       1.198782        32.6205 
  61   0.0000       1.294823        35.2339 
  62   0.0000       1.305326        35.5197 
  63   0.0000       1.337702        36.4007 
  64   0.0000       1.425096        38.7788 
  65   0.0000       1.528490        41.5923 
  66   0.0000       1.530011        41.6337 
  67   0.0000       1.566705        42.6322 
  68   0.0000       1.575440        42.8699 
  69   0.0000       1.734723        47.2042 
  70   0.0000       1.780789        48.4577 
  71   0.0000       1.873123        50.9703 
  72   0.0000       1.890130        51.4331 
  73   0.0000       1.958206        53.2855 
  74   0.0000       2.051862        55.8340 
  75   0.0000       2.116360        57.5891 
  76   0.0000       2.179490        59.3069 
  77   0.0000       2.195780        59.7502 
  78   0.0000       2.234736        60.8103 
  79   0.0000       2.236743        60.8649 
  80   0.0000       2.240696        60.9724 
  81   0.0000       2.351263        63.9811 
  82   0.0000       2.380026        64.7638 
  83   0.0000       2.443360        66.4872 
  84   0.0000       2.546090        69.2826 
  85   0.0000       2.593716        70.5786 
  86   0.0000       2.685352        73.0721 
  87   0.0000       2.713051        73.8259 
  88   0.0000       2.761355        75.1403 
  89   0.0000       2.791576        75.9627 
  90   0.0000       2.830800        77.0300 
  91   0.0000       2.847326        77.4797 
  92   0.0000       3.080441        83.8231 
  93   0.0000       3.455811        94.0374 
  94   0.0000      13.323062       362.5389 
  95   0.0000      13.617760       370.5581 
  96   0.0000      13.860899       377.1742 
  97   0.0000      14.118301       384.1785 
  98   0.0000      14.313699       389.4956 
  99   0.0000      19.438474       528.9478 

                    ********************************
                    * MULLIKEN POPULATION ANALYSIS *
                    ********************************

-----------------------
MULLIKEN ATOMIC CHARGES
-----------------------
   0 N :   -0.361576
   1 C :   -0.038325
   2 H :    0.233635
   3 C :   -0.297269
   4 H :    0.232152
   5 C :   -0.133666
   6 H :    0.234855
   7 C :   -0.297269
   8 H :    0.232152
   9 C :   -0.038325
  10 H :    0.233635
Sum of atomic charges:   -0.0000000

--------------------------------
MULLIKEN REDUCED ORBITAL CHARGES
--------------------------------
  0 N s       :     3.618355  s :     3.618355
      pz      :     1.569431  p :     3.701094
      px      :     1.021353
      py      :     1.110309
      dz2     :     0.006110  d :     0.042127
      dxz     :     0.016899
      dyz     :     0.006935
      dx2y2   :     0.005352
      dxy     :     0.006831
  1 C s       :     3.163736  s :     3.163736
      pz      :     0.936332  p :     2.815584
      px      :     0.946450
      py      :     0.932803
      dz2     :     0.014669  d :     0.059004
      dxz     :     0.022539
      dyz     :     0.006809
      dx2y2   :     0.009516
      dxy     :     0.005471
  2 H s       :     0.766365  s :     0.766365
  3 C s       :     3.266065  s :     3.266065
      pz      :     0.938094  p :     2.992954
      px      :     1.045287
      py      :     1.009573
      dz2     :     0.010192  d :     0.038250
      dxz     :     0.013252
      dyz     :     0.004869
      dx2y2   :     0.006567
      dxy     :     0.003370
  4 H s       :     0.767848  s :     0.767848
  5 C s       :     3.227990  s :     3.227990
      pz      :     1.020382  p :     2.865171
      px      :     0.904313
      py      :     0.940476
      dz2     :     0.013506  d :     0.040505
      dxz     :     0.011289
      dyz     :     0.002559
      dx2y2   :     0.006051
      dxy     :     0.007100
  6 H s       :     0.765145  s :     0.765145
  7 C s       :     3.266066  s :     3.266066
      pz      :     0.938093  p :     2.992953
      px      :     1.045287
      py      :     1.009573
      dz2     :     0.010192  d :     0.038250
      dxz     :     0.013252
      dyz     :     0.004869
      dx2y2   :     0.006567
      dxy     :     0.003370
  8 H s       :     0.767848  s :     0.767848
  9 C s       :     3.163736  s :     3.163736
      pz      :     0.936331  p :     2.815584
      px      :     0.946450
      py      :     0.932803
      dz2     :     0.014669  d :     0.059004
      dxz     :     0.022539
      dyz     :     0.006809
      dx2y2   :     0.009516
      dxy     :     0.005471
 10 H s       :     0.766365  s :     0.766365


                     *******************************
                     * LOEWDIN POPULATION ANALYSIS *
                     *******************************

----------------------
LOEWDIN ATOMIC CHARGES
----------------------
   0 N :   -0.140481
   1 C :   -0.056193
   2 H :    0.130390
   3 C :   -0.164639
   4 H :    0.142001
   5 C :   -0.103665
   6 H :    0.141029
   7 C :   -0.164639
   8 H :    0.142001
   9 C :   -0.056193
  10 H :    0.130390

-------------------------------
LOEWDIN REDUCED ORBITAL CHARGES
-------------------------------
  0 N s       :     3.216649  s :     3.216649
      pz      :     1.582416  p :     3.834099
      px      :     1.153829
      py      :     1.097854
      dz2     :     0.012274  d :     0.089733
      dxz     :     0.038020
      dyz     :     0.007564
      dx2y2   :     0.016216
      dxy     :     0.015659
  1 C s       :     2.889117  s :     2.889117
      pz      :     1.072435  p :     3.036455
      px      :     1.035922
      py      :     0.928098
      dz2     :     0.038073  d :     0.130620
      dxz     :     0.051137
      dyz     :     0.013535
      dx2y2   :     0.018629
      dxy     :     0.009246
  2 H s       :     0.869610  s :     0.869610
  3 C s       :     2.902962  s :     2.902962
      pz      :     1.093718  p :     3.173924
      px      :     1.083673
      py      :     0.996533
      dz2     :     0.026868  d :     0.087753
      dxz     :     0.033035
      dyz     :     0.009950
      dx2y2   :     0.012159
      dxy     :     0.005741
  4 H s       :     0.857999  s :     0.857999
  5 C s       :     2.897152  s :     2.897152
      pz      :     1.084760  p :     3.115507
      px      :     1.096495
      py      :     0.934252
      dz2     :     0.027736  d :     0.091006
      dxz     :     0.029549
      dyz     :     0.003729
      dx2y2   :     0.015256
      dxy     :     0.014737
  6 H s       :     0.858971  s :     0.858971
  7 C s       :     2.902962  s :     2.902962
      pz      :     1.093718  p :     3.173924
      px      :     1.083673
      py      :     0.996533
      dz2     :     0.026868  d :     0.087753
      dxz     :     0.033035
      dyz     :     0.009950
      dx2y2   :     0.012159
      dxy     :     0.005741
  8 H s       :     0.857999  s :     0.857999
  9 C s       :     2.889118  s :     2.889118
      pz      :     1.072435  p :     3.036455
      px      :     1.035922
      py      :     0.928098
      dz2     :     0.038073  d :     0.130620
      dxz     :     0.051137
      dyz     :     0.013535
      dx2y2   :     0.018629
      dxy     :     0.009246
 10 H s       :     0.869610  s :     0.869610


                      *****************************
                      * MAYER POPULATION ANALYSIS *
                      *****************************

  NA   - Mulliken gross atomic population
  ZA   - Total nuclear charge
  QA   - Mulliken gross atomic charge
  VA   - Mayer's total valence
  BVA  - Mayer's bonded valence
  FA   - Mayer's free valence

  ATOM       NA         ZA         QA         VA         BVA        FA
  0 N      7.3616     7.0000    -0.3616     3.1153     3.1153     0.0000
  1 C      6.0383     6.0000    -0.0383     3.8443     3.8443     0.0000
  2 H      0.7664     1.0000     0.2336     0.9023     0.9023    -0.0000
  3 C      6.2973     6.0000    -0.2973     3.7974     3.7974     0.0000
  4 H      0.7678     1.0000     0.2322     0.9126     0.9126     0.0000
  5 C      6.1337     6.0000    -0.1337     3.7531     3.7531    -0.0000
  6 H      0.7651     1.0000     0.2349     0.9062     0.9062    -0.0000
  7 C      6.2973     6.0000    -0.2973     3.7974     3.7974    -0.0000
  8 H      0.7678     1.0000     0.2322     0.9126     0.9126    -0.0000
  9 C      6.0383     6.0000    -0.0383     3.8443     3.8443    -0.0000
 10 H      0.7664     1.0000     0.2336     0.9023     0.9023    -0.0000

  Mayer bond orders larger than 0.100000
B(  0-N ,  1-C ) :   1.4963 B(  0-N ,  9-C ) :   1.4963 B(  1-C ,  2-H ) :   0.9172 
B(  1-C ,  3-C ) :   1.3830 B(  3-C ,  4-H ) :   0.9128 B(  3-C ,  5-C ) :   1.4139 
B(  5-C ,  6-H ) :   0.9183 B(  5-C ,  7-C ) :   1.4139 B(  7-C ,  8-H ) :   0.9128 
B(  7-C ,  9-C ) :   1.3830 B(  9-C , 10-H ) :   0.9172 

-------
TIMINGS
-------

Total SCF time: 0 days 0 hours 1 min 8 sec 

Total time                  ....      68.438 sec
Sum of individual times     ....      62.544 sec  ( 91.4%)

Fock matrix formation       ....      53.197 sec  ( 77.7%)
  Split-RI-J                ....       7.429 sec  ( 14.0% of F)
  Chain of spheres X        ....      20.299 sec  ( 38.2% of F)
  XC integration            ....      13.501 sec  ( 25.4% of F)
    Basis function eval.    ....       2.676 sec  ( 19.8% of XC)
    Density eval.           ....       1.395 sec  ( 10.3% of XC)
    XC-Functional eval.     ....       1.228 sec  (  9.1% of XC)
    XC-Potential eval.      ....       0.865 sec  (  6.4% of XC)
Diagonalization             ....       0.222 sec  (  0.3%)
Density matrix formation    ....       0.121 sec  (  0.2%)
Population analysis         ....       0.946 sec  (  1.4%)
Initial guess               ....       0.164 sec  (  0.2%)
Orbital Transformation      ....       0.000 sec  (  0.0%)
Orbital Orthonormalization  ....       0.000 sec  (  0.0%)
DIIS solution               ....       0.751 sec  (  1.1%)
SOSCF solution              ....       2.320 sec  (  3.4%)
Grid generation             ....       4.823 sec  (  7.0%)

Maximum memory used throughout the entire SCF-calculation: 50.2 MB


-------------------------------------------------------------------------------
                          DFT DISPERSION CORRECTION                            
                                                                               
                              DFTD3 V3.1  Rev 1                                
                          USING Becke-Johnson damping                          
-------------------------------------------------------------------------------
The PBEh-3c composite method is recognized
Using three-body term ABC
Active option DFTDOPT                   ...         4   

molecular C6(AA) [au] = 1465.756025 


            DFT-D V3
 parameters
 s6 scaling factor         :     1.0000 
 a1 scaling factor         :     0.4860 
 s8 scaling factor         :     0.0000 
 a2 scaling factor         :     4.5000 
 Damping factor alpha9(ATM):    16.0000 
 ad hoc parameters k1-k3   :    16.0000     1.3333    -4.0000 

 Edisp/kcal,au: -3.339654390675  -0.005322077470 
 E6   /kcal   :  -3.344052245 
 E8   /kcal   :  -0.000000000 
 E6(ABC)      :   0.004397854 
 % E8         :   0.000000000 
 % E6(ABC)    :  -0.131685900 

-------------------------   ----------------
Dispersion correction           -0.005322077
-------------------------   ----------------

------------------   -----------------
gCP correction             0.015636386
------------------   -----------------

-------------------------   --------------------
FINAL SINGLE POINT ENERGY      -247.729220446312
-------------------------   --------------------


                            ***************************************
                            *     ORCA property calculations      *
                            ***************************************

                                    ---------------------
                                    Active property flags
                                    ---------------------
   (+) Dipole Moment


------------------------------------------------------------------------------
                       ORCA ELECTRIC PROPERTIES CALCULATION
------------------------------------------------------------------------------

Dipole Moment Calculation                       ... on
Quadrupole Moment Calculation                   ... off
Polarizability Calculation                      ... off
GBWName                                         ... pbeh-3c.gbw
Electron density                                ... pbeh-3c.scfp
The origin for moment calculation is the CENTER OF MASS  = ( 0.000000,  0.000000  0.411581)

-------------
DIPOLE MOMENT
-------------
                                X             Y             Z
Electronic contribution:     -0.00000      -0.00000       1.33300
Nuclear contribution   :      0.00000       0.00000      -2.20965
                        -----------------------------------------
Total Dipole Moment    :     -0.00000      -0.00000      -0.87665
                        -----------------------------------------
Magnitude (a.u.)       :      0.87665
Magnitude (Debye)      :      2.22826



--------------------
Rotational spectrum 
--------------------
 
Rotational constants in cm-1:     0.201923     0.193870     0.098907 
Rotational constants in MHz :  6053.490280  5812.069788  2965.162012 

 Dipole components along the rotational axes: 
x,y,z [a.u.] :    -0.876648    -0.000000    -0.000000 
x,y,z [Debye]:    -2.228261    -0.000000    -0.000000 

 

Timings for individual modules:

Sum of individual times         ...       70.918 sec (=   1.182 min)
GTO integral calculation        ...        1.425 sec (=   0.024 min)   2.0 %
SCF iterations                  ...       69.493 sec (=   1.158 min)  98.0 %
                             ****ORCA TERMINATED NORMALLY****
TOTAL RUN TIME: 0 days 0 hours 1 minutes 15 seconds 666 msec
