
                                 *****************
                                 * O   R   C   A *
                                 *****************

                                            #,                                       
                                            ###                                      
                                            ####                                     
                                            #####                                    
                                            ######                                   
                                           ########,                                 
                                     ,,################,,,,,                         
                               ,,#################################,,                 
                          ,,##########################################,,             
                       ,#########################################, ''#####,          
                    ,#############################################,,   '####,        
                  ,##################################################,,,,####,       
                ,###########''''           ''''###############################       
              ,#####''   ,,,,##########,,,,          '''####'''          '####       
            ,##' ,,,,###########################,,,                        '##       
           ' ,,###''''                  '''############,,,                           
         ,,##''                                '''############,,,,        ,,,,,,###''
      ,#''                                            '''#######################'''  
     '                                                          ''''####''''         
             ,#######,   #######,   ,#######,      ##                                
            ,#'     '#,  ##    ##  ,#'     '#,    #''#        ######   ,####,        
            ##       ##  ##   ,#'  ##            #'  '#       #        #'  '#        
            ##       ##  #######   ##           ,######,      #####,   #    #        
            '#,     ,#'  ##    ##  '#,     ,#' ,#      #,         ##   #,  ,#        
             '#######'   ##     ##  '#######'  #'      '#     #####' # '####'        



                  #######################################################
                  #                        -***-                        #
                  #          Department of theory and spectroscopy      #
                  #    Directorship and core code : Frank Neese         #
                  #        Max Planck Institute fuer Kohlenforschung    #
                  #                Kaiser Wilhelm Platz 1               #
                  #                 D-45470 Muelheim/Ruhr               #
                  #                      Germany                        #
                  #                                                     #
                  #                  All rights reserved                #
                  #                        -***-                        #
                  #######################################################


                         Program Version 5.0.3 -  RELEASE  -


 With contributions from (in alphabetic order):
   Daniel Aravena         : Magnetic Suceptibility
   Michael Atanasov       : Ab Initio Ligand Field Theory (pilot matlab implementation)
   Alexander A. Auer      : GIAO ZORA, VPT2 properties, NMR spectrum
   Ute Becker             : Parallelization
   Giovanni Bistoni       : ED, misc. LED, open-shell LED, HFLD
   Martin Brehm           : Molecular dynamics
   Dmytro Bykov           : SCF Hessian
   Vijay G. Chilkuri      : MRCI spin determinant printing, contributions to CSF-ICE
   Dipayan Datta          : RHF DLPNO-CCSD density
   Achintya Kumar Dutta   : EOM-CC, STEOM-CC
   Dmitry Ganyushin       : Spin-Orbit,Spin-Spin,Magnetic field MRCI
   Miquel Garcia          : C-PCM and meta-GGA Hessian, CC/C-PCM, Gaussian charge scheme
   Yang Guo               : DLPNO-NEVPT2, F12-NEVPT2, CIM, IAO-localization
   Andreas Hansen         : Spin unrestricted coupled pair/coupled cluster methods
   Benjamin Helmich-Paris : MC-RPA, TRAH-SCF, COSX integrals
   Lee Huntington         : MR-EOM, pCC
   Robert Izsak           : Overlap fitted RIJCOSX, COSX-SCS-MP3, EOM
   Marcus Kettner         : VPT2
   Christian Kollmar      : KDIIS, OOCD, Brueckner-CCSD(T), CCSD density, CASPT2, CASPT2-K
   Simone Kossmann        : Meta GGA functionals, TD-DFT gradient, OOMP2, MP2 Hessian
   Martin Krupicka        : Initial AUTO-CI
   Lucas Lang             : DCDCAS
   Marvin Lechner         : AUTO-CI (C++ implementation), FIC-MRCC
   Dagmar Lenk            : GEPOL surface, SMD
   Dimitrios Liakos       : Extrapolation schemes; Compound Job, initial MDCI parallelization
   Dimitrios Manganas     : Further ROCIS development; embedding schemes
   Dimitrios Pantazis     : SARC Basis sets
   Anastasios Papadopoulos: AUTO-CI, single reference methods and gradients
   Taras Petrenko         : DFT Hessian,TD-DFT gradient, ASA, ECA, R-Raman, ABS, FL, XAS/XES, NRVS
   Peter Pinski           : DLPNO-MP2, DLPNO-MP2 Gradient
   Christoph Reimann      : Effective Core Potentials
   Marius Retegan         : Local ZFS, SOC
   Christoph Riplinger    : Optimizer, TS searches, QM/MM, DLPNO-CCSD(T), (RO)-DLPNO pert. Triples
   Tobias Risthaus        : Range-separated hybrids, TD-DFT gradient, RPA, STAB
   Michael Roemelt        : Original ROCIS implementation
   Masaaki Saitow         : Open-shell DLPNO-CCSD energy and density
   Barbara Sandhoefer     : DKH picture change effects
   Avijit Sen             : IP-ROCIS
   Kantharuban Sivalingam : CASSCF convergence, NEVPT2, FIC-MRCI
   Bernardo de Souza      : ESD, SOC TD-DFT
   Georgi Stoychev        : AutoAux, RI-MP2 NMR, DLPNO-MP2 response
   Willem Van den Heuvel  : Paramagnetic NMR
   Boris Wezisla          : Elementary symmetry handling
   Frank Wennmohs         : Technical directorship


 We gratefully acknowledge several colleagues who have allowed us to
 interface, adapt or use parts of their codes:
   Stefan Grimme, W. Hujo, H. Kruse, P. Pracht,  : VdW corrections, initial TS optimization,
                  C. Bannwarth, S. Ehlert          DFT functionals, gCP, sTDA/sTD-DF
   Ed Valeev, F. Pavosevic, A. Kumar             : LibInt (2-el integral package), F12 methods
   Garnet Chan, S. Sharma, J. Yang, R. Olivares  : DMRG
   Ulf Ekstrom                                   : XCFun DFT Library
   Mihaly Kallay                                 : mrcc  (arbitrary order and MRCC methods)
   Jiri Pittner, Ondrej Demel                    : Mk-CCSD
   Frank Weinhold                                : gennbo (NPA and NBO analysis)
   Christopher J. Cramer and Donald G. Truhlar   : smd solvation model
   Lars Goerigk                                  : TD-DFT with DH, B97 family of functionals
   V. Asgeirsson, H. Jonsson                     : NEB implementation
   FAccTs GmbH                                   : IRC, NEB, NEB-TS, DLPNO-Multilevel, CI-OPT
                                                   MM, QMMM, 2- and 3-layer-ONIOM, Crystal-QMMM,
                                                   LR-CPCM, SF, NACMEs, symmetry and pop. for TD-DFT,
                                                   nearIR, NL-DFT gradient (VV10), updates on ESD,
                                                   ML-optimized integration grids
   S Lehtola, MJT Oliveira, MAL Marques          : LibXC Library
   Liviu Ungur et al                             : ANISO software


 Your calculation uses the libint2 library for the computation of 2-el integrals
 For citations please refer to: http://libint.valeyev.net

 Your ORCA version has been built with support for libXC version: 5.1.0
 For citations please refer to: https://tddft.org/programs/libxc/

 This ORCA versions uses:
   CBLAS   interface :  Fast vector & matrix operations
   LAPACKE interface :  Fast linear algebra routines
   SCALAPACK package :  Parallel linear algebra routines
   Shared memory     :  Shared parallel matrices
   BLAS/LAPACK       :  OpenBLAS 0.3.15  USE64BITINT DYNAMIC_ARCH NO_AFFINITY Haswell SINGLE_THREADED
        Core in use  :  Haswell
   Copyright (c) 2011-2014, The OpenBLAS Project




***************************************
The coordinates will be read from file: nf3-ch2.xyz
***************************************


Your calculation utilizes the geometrical counterpoise correction gCP
Please cite in your paper:
H.Kruse, S. Grimme J.Chem.Phys., 136, (2012), 154101 
   

Your calculation utilizes the atom-pairwise dispersion correction
with the Becke-Johnson damping scheme (D3BJ)
Cite in your paper:
S.Grimme, S.Ehrlich, L.Goerigk, J Comput Chem, (2011), 32, 1456–1465 
S.Grimme, J.Antony, S.Ehrlich and H.Krieg, J.Chem.Phys., 132, (2010), 154104 
   

Your calculation employs the composite approach PBEh-3c.
Please cite in your paper:
S. Grimme, J. G. Brandenburg, C. Bannwarth, A. Hansen J.Chem.Phys., 143, (2015), 054107 
   

================================================================================

----- Orbital basis set information -----
Your calculation utilizes the basis: def2-mSVP

----- AuxJ basis set information -----
Your calculation utilizes the auxiliary basis: def2/J
   F. Weigend, Phys. Chem. Chem. Phys. 8, 1057 (2006).

================================================================================
                                        WARNINGS
                       Please study these warnings very carefully!
================================================================================


INFO   : the flag for use of the SHARK integral package has been found!

================================================================================
                                       INPUT FILE
================================================================================
NAME = pbeh-3c.inp
|  1> ! PBEh-3c def2/J TightSCF DefGrid3
|  2> 
|  3> %maxcore 60000
|  4> 
|  5> %pal
|  6> nprocs 4
|  7> end
|  8> 
|  9> *xyzfile 0 1 nf3-ch2.xyz
| 10> 
| 11>                          ****END OF INPUT****
================================================================================

                       ****************************
                       * Single Point Calculation *
                       ****************************

---------------------------------
CARTESIAN COORDINATES (ANGSTROEM)
---------------------------------
  C      0.479202    1.409820    0.000000
  N      0.144998    0.147328    0.000000
  H      0.442339    1.894943    0.958148
  H      0.442339    1.894943   -0.958148
  F      0.479202   -0.567550   -1.103655
  F     -1.488947   -0.340468    0.000000
  F      0.479202   -0.567550    1.103655

----------------------------
CARTESIAN COORDINATES (A.U.)
----------------------------
  NO LB      ZA    FRAG     MASS         X           Y           Z
   0 C     6.0000    0    12.011    0.905561    2.664174    0.000000
   1 N     7.0000    0    14.007    0.274007    0.278410    0.000000
   2 H     1.0000    0     1.008    0.835900    3.580923    1.810637
   3 H     1.0000    0     1.008    0.835900    3.580923   -1.810637
   4 F     9.0000    0    18.998    0.905561   -1.072514   -2.085606
   5 F     9.0000    0    18.998   -2.813702   -0.643391    0.000000
   6 F     9.0000    0    18.998    0.905561   -1.072514    2.085606

--------------------------------
INTERNAL COORDINATES (ANGSTROEM)
--------------------------------
 C      0   0   0     0.000000000000     0.00000000     0.00000000
 N      1   0   0     1.305977837171     0.00000000     0.00000000
 H      1   2   0     1.074593227306   115.31771377     0.00000000
 H      1   2   3     1.074593227306   115.31771377   198.93497697
 F      2   1   3     1.356759745421   116.50788746   195.16352348
 F      2   1   3     1.705204056367   121.44952188    80.53251151
 F      2   1   3     1.356759745421   116.50788746   325.90149954

---------------------------
INTERNAL COORDINATES (A.U.)
---------------------------
 C      0   0   0     0.000000000000     0.00000000     0.00000000
 N      1   0   0     2.467940449224     0.00000000     0.00000000
 H      1   2   0     2.030686904975   115.31771377     0.00000000
 H      1   2   3     2.030686904975   115.31771377   198.93497697
 F      2   1   3     2.563904348374   116.50788746   195.16352348
 F      2   1   3     3.222368668986   121.44952188    80.53251151
 F      2   1   3     2.563904348374   116.50788746   325.90149954

---------------------
BASIS SET INFORMATION
---------------------
There are 4 groups of distinct atoms

 Group   1 Type C   : 8s4p1d contracted to 4s2p1d pattern {5111/31/1}
 Group   2 Type N   : 8s4p1d contracted to 4s2p1d pattern {5111/31/1}
 Group   3 Type H   : 4s contracted to 2s pattern {31}
 Group   4 Type F   : 8s4p1d contracted to 4s2p1d pattern {5111/31/1}

Atom   0C    basis set group =>   1
Atom   1N    basis set group =>   2
Atom   2H    basis set group =>   3
Atom   3H    basis set group =>   3
Atom   4F    basis set group =>   4
Atom   5F    basis set group =>   4
Atom   6F    basis set group =>   4
---------------------------------
AUXILIARY/J BASIS SET INFORMATION
---------------------------------
There are 4 groups of distinct atoms

 Group   1 Type C   : 12s5p4d2f1g contracted to 6s4p3d1f1g pattern {711111/2111/211/2/1}
 Group   2 Type N   : 12s5p4d2f1g contracted to 6s4p3d1f1g pattern {711111/2111/211/2/1}
 Group   3 Type H   : 5s2p1d contracted to 3s1p1d pattern {311/2/1}
 Group   4 Type F   : 12s5p4d2f1g contracted to 6s4p3d1f1g pattern {711111/2111/211/2/1}

Atom   0C    basis set group =>   1
Atom   1N    basis set group =>   2
Atom   2H    basis set group =>   3
Atom   3H    basis set group =>   3
Atom   4F    basis set group =>   4
Atom   5F    basis set group =>   4
Atom   6F    basis set group =>   4


           ************************************************************
           *        Program running with 4 parallel MPI-processes     *
           *              working on a common directory               *
           ************************************************************
------------------------------------------------------------------------------
                           ORCA GTO INTEGRAL CALCULATION
                           -- RI-GTO INTEGRALS CHOSEN --
------------------------------------------------------------------------------
------------------------------------------------------------------------------
                   ___                                                        
                  /   \      - P O W E R E D   B Y -                         
                 /     \                                                     
                 |  |  |   _    _      __       _____    __    __             
                 |  |  |  | |  | |    /  \     |  _  \  |  |  /  |          
                  \  \/   | |  | |   /    \    | | | |  |  | /  /          
                 / \  \   | |__| |  /  /\  \   | |_| |  |  |/  /          
                |  |  |   |  __  | /  /__\  \  |    /   |      \           
                |  |  |   | |  | | |   __   |  |    \   |  |\   \          
                \     /   | |  | | |  |  |  |  | |\  \  |  | \   \       
                 \___/    |_|  |_| |__|  |__|  |_| \__\ |__|  \__/        
                                                                              
                      - O R C A' S   B I G   F R I E N D -                    
                                      &                                       
                       - I N T E G R A L  F E E D E R -                       
                                                                              
 v1 FN, 2020, v2 2021                                                         
------------------------------------------------------------------------------


Reading SHARK input file pbeh-3c.SHARKINP.tmp ... ok
----------------------
SHARK INTEGRAL PACKAGE
----------------------

Number of atoms                             ...      7
Number of basis functions                   ...     79
Number of shells                            ...     39
Maximum angular momentum                    ...      2
Integral batch strategy                     ... SHARK/LIBINT Hybrid
RI-J (if used) integral strategy            ... SPLIT-RIJ (Revised 2003 algorithm where possible)
Printlevel                                  ...      1
Contraction scheme used                     ... SEGMENTED contraction
Coulomb Range Separation                    ... NOT USED
Exchange Range Separation                   ... NOT USED
Finite Nucleus Model                        ... NOT USED
Auxiliary Coulomb fitting basis             ... AVAILABLE
   # of basis functions in Aux-J            ...    267
   # of shells in Aux-J                     ...     85
   Maximum angular momentum in Aux-J        ...      4
Auxiliary J/K fitting basis                 ... NOT available
Auxiliary Correlation fitting basis         ... NOT available
Auxiliary 'external' fitting basis          ... NOT available
Integral threshold                          ...     2.500000e-11
Primitive cut-off                           ...     2.500000e-12
Primitive pair pre-selection threshold      ...     2.500000e-12

Calculating pre-screening integrals         ... done (  0.1 sec) Dimension = 39
Organizing shell pair data                  ... done (  0.3 sec)
Shell pair information
Total number of shell pairs                 ...       780
Shell pairs after pre-screening             ...       739
Total number of primitive shell pairs       ...      2772
Primitive shell pairs kept                  ...      2015
          la=0 lb=0:    260 shell pairs
          la=1 lb=0:    239 shell pairs
          la=1 lb=1:     55 shell pairs
          la=2 lb=0:    120 shell pairs
          la=2 lb=1:     50 shell pairs
          la=2 lb=2:     15 shell pairs

Calculating one electron integrals          ... done (  0.0 sec)
Calculating RI/J V-Matrix + Cholesky decomp.... done (  0.7 sec)
Calculating Nuclear repulsion               ... done (  0.1 sec) ENN=    198.774861313299 Eh

SHARK setup successfully completed in   2.2 seconds

Maximum memory used throughout the entire GTOINT-calculation: 9.5 MB


           ************************************************************
           *        Program running with 4 parallel MPI-processes     *
           *              working on a common directory               *
           ************************************************************
-------------------------------------------------------------------------------
                                 ORCA SCF
-------------------------------------------------------------------------------

------------
SCF SETTINGS
------------
Hamiltonian:
 Density Functional     Method          .... DFT(GTOs)
 Exchange Functional    Exchange        .... PBE
   PBE kappa parameter   XKappa         ....  1.024500
   PBE mue parameter    XMuePBE         ....  0.123457
 Correlation Functional Correlation     .... PBE
   PBE beta parameter  CBetaPBE         ....  0.030000
 LDA part of GGA corr.  LDAOpt          .... PW91-LDA
 Gradients option       PostSCFGGA      .... off
 Hybrid DFT is turned on
   Fraction HF Exchange ScalHFX         ....  0.420000
   Scaling of DF-GGA-X  ScalDFX         ....  0.580000
   Scaling of DF-GGA-C  ScalDFC         ....  1.000000
   Scaling of DF-LDA-C  ScalLDAC        ....  1.000000
   Perturbative correction              ....  0.000000
   Density functional embedding theory  .... OFF
 RI-approximation to the Coulomb term is turned on
   Number of AuxJ basis functions       .... 267
   RIJ-ON(X) (HFX calculated with O(N)) .... on
   Number of AuxJ basis functions       .... 267
   RIJ-COSX (HFX calculated with COS-X)).... on


General Settings:
 Integral files         IntName         .... pbeh-3c
 Hartree-Fock type      HFTyp           .... RHF
 Total Charge           Charge          ....    0
 Multiplicity           Mult            ....    1
 Number of Electrons    NEL             ....   42
 Basis Dimension        Dim             ....   79
 Nuclear Repulsion      ENuc            ....    198.7748613133 Eh

Convergence Acceleration:
 DIIS                   CNVDIIS         .... on
   Start iteration      DIISMaxIt       ....    12
   Startup error        DIISStart       ....  0.200000
   # of expansion vecs  DIISMaxEq       ....     5
   Bias factor          DIISBfac        ....   1.050
   Max. coefficient     DIISMaxC        ....  10.000
 Trust-Rad. Augm. Hess. CNVTRAH         .... auto
   Auto Start mean grad. ratio tolernc. ....  1.125000
   Auto Start start iteration           ....    20
   Auto Start num. interpolation iter.  ....    10
   Max. Number of Micro iterations      ....    16
   Max. Number of Macro iterations      .... Maxiter - #DIIS iter
   Number of Davidson start vectors     ....     2
   Converg. threshold I  (grad. norm)   ....   1.000e-05
   Converg. threshold II (energy diff.) ....   1.000e-08
   Grad. Scal. Fac. for Micro threshold ....   0.100
   Minimum threshold for Micro iter.    ....   0.010
   NR start threshold (gradient norm)   ....   0.001
   Initial trust radius                 ....   0.400
   Minimum AH scaling param. (alpha)    ....   1.000
   Maximum AH scaling param. (alpha)    .... 1000.000
   Orbital update algorithm             .... Taylor
   White noise on init. David. guess    .... on
   Maximum white noise                  ....   0.010
   Quad. conv. algorithm                .... NR
   COSX micro iterations for RIJONX calc.... off
 SOSCF                  CNVSOSCF        .... on
   Start iteration      SOSCFMaxIt      ....   150
   Startup grad/error   SOSCFStart      ....  0.003300
 Level Shifting         CNVShift        .... on
   Level shift para.    LevelShift      ....    0.2500
   Turn off err/grad.   ShiftErr        ....    0.0010
 Zerner damping         CNVZerner       .... off
 Static damping         CNVDamp         .... on
   Fraction old density DampFac         ....    0.7000
   Max. Damping (<1)    DampMax         ....    0.9800
   Min. Damping (>=0)   DampMin         ....    0.0000
   Turn off err/grad.   DampErr         ....    0.1000
 Fernandez-Rico         CNVRico         .... off

SCF Procedure:
 Maximum # iterations   MaxIter         ....   125
 SCF integral mode      SCFMode         .... Direct
   Integral package                     .... SHARK and LIBINT hybrid scheme
 Reset frequency        DirectResetFreq ....    20
 Integral Threshold     Thresh          ....  2.500e-11 Eh
 Primitive CutOff       TCut            ....  2.500e-12 Eh

Convergence Tolerance:
 Convergence Check Mode ConvCheckMode   .... Total+1el-Energy
 Convergence forced     ConvForced      .... 0
 Energy Change          TolE            ....  1.000e-08 Eh
 1-El. energy change                    ....  1.000e-05 Eh
 Orbital Gradient       TolG            ....  1.000e-05
 Orbital Rotation angle TolX            ....  1.000e-05
 DIIS Error             TolErr          ....  5.000e-07


Diagonalization of the overlap matrix:
Smallest eigenvalue                        ... 9.987e-03
Time for diagonalization                   ...    0.001 sec
Threshold for overlap eigenvalues          ... 1.000e-08
Number of eigenvalues below threshold      ... 0
Time for construction of square roots      ...    0.062 sec
Total time needed                          ...    0.064 sec

--------------------------------
INITIAL GUESS: MINIMAL BASIS EHT
--------------------------------
The minimal basis has 27 functions
EHT matrix was diagonalized
Basis set overlap was calculated now projecting the orbitals
Using GuessMode=FMatrix for the initial guess
C*T matrix was formed
Effective Fockian was calculated
Effective Fockian was diagonalized
Initial density was built
                      ------------------
                      INITIAL GUESS DONE
                      ------------------
-------------------
DFT GRID GENERATION
-------------------

General Integration Accuracy     IntAcc      ... 4.959
Radial Grid Type                 RadialGrid  ... OptM3 with GC (2021)
Angular Grid (max. ang.)         AngularGrid ... 6 (Lebedev-590)
Angular grid pruning method      GridPruning ... 4 (adaptive)
Weight generation scheme         WeightScheme... Becke
Basis function cutoff            BFCut       ... 1.0000e-11
Integration weight cutoff        WCut        ... 1.0000e-14
Angular grids for H and He will be reduced by one unit
Partially contracted basis set               ... off
Rotationally invariant grid construction     ... off

Total number of grid points                  ...    90379
Total number of batches                      ...     1416
Average number of points per batch           ...       63
Average number of grid points per atom       ...    12911
Time for grid setup =    1.977 sec

--------------------
COSX GRID GENERATION
--------------------

GRIDX 1
-------
General Integration Accuracy     IntAcc      ... 4.020
Radial Grid Type                 RadialGrid  ... OptM3 with GC (2021)
Angular Grid (max. ang.)         AngularGrid ... 2 (Lebedev-110)
Angular grid pruning method      GridPruning ... 4 (adaptive)
Weight generation scheme         WeightScheme... Becke
Basis function cutoff            BFCut       ... 1.0000e-11
Integration weight cutoff        WCut        ... 1.0000e-14
Angular grids for H and He will be reduced by one unit
Partially contracted basis set               ... on
Rotationally invariant grid construction     ... off

Total number of grid points                  ...    10888
Total number of batches                      ...      173
Average number of points per batch           ...       62
Average number of grid points per atom       ...     1555
UseSFitting                                  ... on

GRIDX 2
-------
General Integration Accuracy     IntAcc      ... 4.338
Radial Grid Type                 RadialGrid  ... OptM3 with GC (2021)
Angular Grid (max. ang.)         AngularGrid ... 3 (Lebedev-194)
Angular grid pruning method      GridPruning ... 4 (adaptive)
Weight generation scheme         WeightScheme... Becke
Basis function cutoff            BFCut       ... 1.0000e-11
Integration weight cutoff        WCut        ... 1.0000e-14
Angular grids for H and He will be reduced by one unit
Partially contracted basis set               ... on
Rotationally invariant grid construction     ... off

Total number of grid points                  ...    24155
Total number of batches                      ...      382
Average number of points per batch           ...       63
Average number of grid points per atom       ...     3451
UseSFitting                                  ... on

GRIDX 3
-------
General Integration Accuracy     IntAcc      ... 4.871
Radial Grid Type                 RadialGrid  ... OptM3 with GC (2021)
Angular Grid (max. ang.)         AngularGrid ... 4 (Lebedev-302)
Angular grid pruning method      GridPruning ... 4 (adaptive)
Weight generation scheme         WeightScheme... Becke
Basis function cutoff            BFCut       ... 1.0000e-11
Integration weight cutoff        WCut        ... 1.0000e-14
Angular grids for H and He will be reduced by one unit
Partially contracted basis set               ... on
Rotationally invariant grid construction     ... off

Total number of grid points                  ...    44485
Total number of batches                      ...      698
Average number of points per batch           ...       63
Average number of grid points per atom       ...     6355
UseSFitting                                  ... on

Time for X-Grid setup             =    2.554 sec

--------------
SCF ITERATIONS
--------------
ITER       Energy         Delta-E        Max-DP      RMS-DP      [F,P]     Damp
               ***  Starting incremental Fock matrix formation  ***
  0   -390.9951340000   0.000000000000 0.28489378  0.01198835  0.7397787 0.7000
  1   -391.6256785865  -0.630544586470 0.13911279  0.00554154  0.2747748 0.7000
                               ***Turning on DIIS***
  2   -391.8689403025  -0.243261716016 0.04255781  0.00276729  0.1962756 0.7000
  3   -392.0679190838  -0.198978781256 0.04774342  0.00203372  0.1364654 0.7000
  4   -392.2113560860  -0.143437002208 0.09686997  0.00491652  0.0950000 0.0000
  5   -392.5473347340  -0.335978648006 0.00951030  0.00042242  0.0097730 0.0000
  6   -392.5475810607  -0.000246326693 0.00476079  0.00019982  0.0094529 0.0000
                      *** Initiating the SOSCF procedure ***
                           *** Shutting down DIIS ***
                      *** Re-Reading the Fockian *** 
                      *** Removing any level shift *** 
ITER      Energy       Delta-E        Grad      Rot      Max-DP    RMS-DP
  7   -392.54771237  -0.0001313122  0.001193  0.001193  0.001257  0.000083
               *** Restarting incremental Fock matrix formation ***
  8   -392.54771273  -0.0000003562  0.000449  0.001109  0.001510  0.000063
  9   -392.54771625  -0.0000035243  0.000366  0.001275  0.000924  0.000046
 10   -392.54771739  -0.0000011393  0.000241  0.000349  0.000402  0.000018
 11   -392.54771779  -0.0000003926  0.000096  0.000255  0.000201  0.000011
 12   -392.54771789  -0.0000001023  0.000059  0.000145  0.000102  0.000006
 13   -392.54771793  -0.0000000400  0.000014  0.000016  0.000028  0.000002
 14   -392.54771793   0.0000000005  0.000016  0.000018  0.000018  0.000001
 15   -392.54771793  -0.0000000039  0.000004  0.000004  0.000010  0.000000
                  ***Gradient check signals convergence***
              ***Rediagonalizing the Fockian in SOSCF/NRSCF***

               *****************************************************
               *                     SUCCESS                       *
               *           SCF CONVERGED AFTER  16 CYCLES          *
               *****************************************************

Old exchange energy                            =    -17.813755807 Eh
New exchange energy                            =    -17.813746116 Eh
Exchange energy change after final integration =      0.000009691 Eh
Total energy after final integration           =   -392.547708239 Eh
Final COS-X integration done in                =     1.231 sec

----------------
TOTAL SCF ENERGY
----------------

Total Energy       :         -392.54770824 Eh          -10681.76619 eV

Components:
Nuclear Repulsion  :          198.77486131 Eh            5408.93896 eV
Electronic Energy  :         -591.32256955 Eh          -16090.70515 eV
One Electron Energy:         -939.24041992 Eh          -25558.03117 eV
Two Electron Energy:          347.91785036 Eh            9467.32602 eV
Max COSX asymmetry :            0.00000162 Eh               0.00004 eV

Virial components:
Potential Energy   :         -782.81340157 Eh          -21301.43560 eV
Kinetic Energy     :          390.26569333 Eh           10619.66941 eV
Virial Ratio       :            2.00584734


DFT components:
N(Alpha)           :       20.999998038692 electrons
N(Beta)            :       20.999998038692 electrons
N(Total)           :       41.999996077383 electrons
E(X)               :      -23.815156461911 Eh       
E(C)               :       -1.935395897682 Eh       
E(XC)              :      -25.750552359593 Eh       
DFET-embed. en.    :        0.000000000000 Eh       

---------------
SCF CONVERGENCE
---------------

  Last Energy change         ...    1.0183e-09  Tolerance :   1.0000e-08
  Last MAX-Density change    ...    1.5543e-15  Tolerance :   1.0000e-07
  Last RMS-Density change    ...    8.1513e-17  Tolerance :   5.0000e-09
  Last Orbital Gradient      ...    1.7142e-06  Tolerance :   1.0000e-05
  Last Orbital Rotation      ...    2.4564e-06  Tolerance :   1.0000e-05

             **** THE GBW FILE WAS UPDATED (pbeh-3c.gbw) ****
             **** DENSITY pbeh-3c.scfp WAS UPDATED ****
             **** ENERGY FILE WAS UPDATED (pbeh-3c.en.tmp) ****
             **** THE GBW FILE WAS UPDATED (pbeh-3c.gbw) ****
             **** DENSITY pbeh-3c.scfp WAS UPDATED ****
----------------
ORBITAL ENERGIES
----------------

  NO   OCC          E(Eh)            E(eV) 
   0   2.0000     -25.193493      -685.5498 
   1   2.0000     -25.193377      -685.5466 
   2   2.0000     -25.005988      -680.4475 
   3   2.0000     -14.967574      -407.2884 
   4   2.0000     -10.510171      -285.9963 
   5   2.0000      -1.491515       -40.5862 
   6   2.0000      -1.395379       -37.9702 
   7   2.0000      -1.187992       -32.3269 
   8   2.0000      -1.054073       -28.6828 
   9   2.0000      -0.810211       -22.0470 
  10   2.0000      -0.729234       -19.8435 
  11   2.0000      -0.671123       -18.2622 
  12   2.0000      -0.651884       -17.7387 
  13   2.0000      -0.572676       -15.5833 
  14   2.0000      -0.558412       -15.1952 
  15   2.0000      -0.550058       -14.9679 
  16   2.0000      -0.522254       -14.2113 
  17   2.0000      -0.474722       -12.9178 
  18   2.0000      -0.393433       -10.7058 
  19   2.0000      -0.391352       -10.6492 
  20   2.0000      -0.310154        -8.4397 
  21   0.0000      -0.044712        -1.2167 
  22   0.0000       0.045177         1.2293 
  23   0.0000       0.056005         1.5240 
  24   0.0000       0.148978         4.0539 
  25   0.0000       0.227922         6.2021 
  26   0.0000       0.259422         7.0592 
  27   0.0000       0.506720        13.7886 
  28   0.0000       0.534008        14.5311 
  29   0.0000       0.563729        15.3399 
  30   0.0000       0.603973        16.4349 
  31   0.0000       0.684736        18.6326 
  32   0.0000       0.748883        20.3782 
  33   0.0000       0.814920        22.1751 
  34   0.0000       0.922865        25.1124 
  35   0.0000       0.953117        25.9356 
  36   0.0000       0.967841        26.3363 
  37   0.0000       1.058030        28.7904 
  38   0.0000       1.104032        30.0422 
  39   0.0000       1.117876        30.4189 
  40   0.0000       1.143864        31.1261 
  41   0.0000       1.163491        31.6602 
  42   0.0000       1.189045        32.3556 
  43   0.0000       1.199519        32.6406 
  44   0.0000       1.199683        32.6450 
  45   0.0000       1.210011        32.9261 
  46   0.0000       1.290119        35.1059 
  47   0.0000       1.298490        35.3337 
  48   0.0000       1.301952        35.4279 
  49   0.0000       1.326043        36.0835 
  50   0.0000       1.335937        36.3527 
  51   0.0000       1.339402        36.4470 
  52   0.0000       1.377284        37.4778 
  53   0.0000       1.408240        38.3202 
  54   0.0000       1.483261        40.3616 
  55   0.0000       1.594177        43.3798 
  56   0.0000       1.597925        43.4818 
  57   0.0000       1.651550        44.9410 
  58   0.0000       1.738463        47.3060 
  59   0.0000       1.814895        49.3858 
  60   0.0000       1.960249        53.3411 
  61   0.0000       1.984192        53.9926 
  62   0.0000       2.001957        54.4760 
  63   0.0000       2.133293        58.0498 
  64   0.0000       2.210897        60.1616 
  65   0.0000       2.225384        60.5558 
  66   0.0000       2.244550        61.0773 
  67   0.0000       2.378521        64.7229 
  68   0.0000       2.539926        69.1149 
  69   0.0000       2.700731        73.4906 
  70   0.0000       2.737577        74.4933 
  71   0.0000       3.059685        83.2583 
  72   0.0000       3.087766        84.0224 
  73   0.0000       3.360647        91.4479 
  74   0.0000      13.662824       371.7844 
  75   0.0000      19.078340       519.1480 
  76   0.0000      32.596511       886.9962 
  77   0.0000      32.819926       893.0756 
  78   0.0000      33.266202       905.2194 

                    ********************************
                    * MULLIKEN POPULATION ANALYSIS *
                    ********************************

-----------------------
MULLIKEN ATOMIC CHARGES
-----------------------
   0 C :   -0.401833
   1 N :    0.751180
   2 H :    0.272489
   3 H :    0.272489
   4 F :   -0.231050
   5 F :   -0.432227
   6 F :   -0.231050
Sum of atomic charges:   -0.0000000

--------------------------------
MULLIKEN REDUCED ORBITAL CHARGES
--------------------------------
  0 C s       :     3.281481  s :     3.281481
      pz      :     1.160453  p :     3.074849
      px      :     1.111972
      py      :     0.802424
      dz2     :     0.013838  d :     0.045503
      dxz     :     0.000626
      dyz     :     0.009360
      dx2y2   :     0.010953
      dxy     :     0.010725
  1 N s       :     3.292582  s :     3.292582
      pz      :     0.698282  p :     2.818857
      px      :     1.168292
      py      :     0.952283
      dz2     :     0.031086  d :     0.137381
      dxz     :     0.017601
      dyz     :     0.036392
      dx2y2   :     0.023046
      dxy     :     0.029256
  2 H s       :     0.727511  s :     0.727511
  3 H s       :     0.727511  s :     0.727511
  4 F s       :     3.949346  s :     3.949346
      pz      :     1.534985  p :     5.234412
      px      :     1.917124
      py      :     1.782304
      dz2     :     0.012082  d :     0.047291
      dxz     :     0.007991
      dyz     :     0.016794
      dx2y2   :     0.005511
      dxy     :     0.004913
  5 F s       :     3.969411  s :     3.969411
      pz      :     1.969232  p :     5.445311
      px      :     1.523500
      py      :     1.952579
      dz2     :     0.004094  d :     0.017505
      dxz     :     0.000990
      dyz     :     0.000275
      dx2y2   :     0.007616
      dxy     :     0.004531
  6 F s       :     3.949346  s :     3.949346
      pz      :     1.534985  p :     5.234412
      px      :     1.917124
      py      :     1.782304
      dz2     :     0.012082  d :     0.047291
      dxz     :     0.007991
      dyz     :     0.016794
      dx2y2   :     0.005511
      dxy     :     0.004913


                     *******************************
                     * LOEWDIN POPULATION ANALYSIS *
                     *******************************

----------------------
LOEWDIN ATOMIC CHARGES
----------------------
   0 C :   -0.283220
   1 N :    0.543144
   2 H :    0.166117
   3 H :    0.166117
   4 F :   -0.090278
   5 F :   -0.411603
   6 F :   -0.090278

-------------------------------
LOEWDIN REDUCED ORBITAL CHARGES
-------------------------------
  0 C s       :     2.979012  s :     2.979012
      pz      :     1.125811  p :     3.215838
      px      :     1.137337
      py      :     0.952690
      dz2     :     0.024784  d :     0.088370
      dxz     :     0.000755
      dyz     :     0.019692
      dx2y2   :     0.022907
      dxy     :     0.020232
  1 N s       :     3.012396  s :     3.012396
      pz      :     0.856694  p :     3.117476
      px      :     1.151931
      py      :     1.108851
      dz2     :     0.080180  d :     0.326984
      dxz     :     0.040079
      dyz     :     0.088948
      dx2y2   :     0.054137
      dxy     :     0.063640
  2 H s       :     0.833883  s :     0.833883
  3 H s       :     0.833883  s :     0.833883
  4 F s       :     3.754533  s :     3.754533
      pz      :     1.548584  p :     5.224581
      px      :     1.903239
      py      :     1.772758
      dz2     :     0.026373  d :     0.111164
      dxz     :     0.022403
      dyz     :     0.037349
      dx2y2   :     0.012606
      dxy     :     0.012433
  5 F s       :     3.907905  s :     3.907905
      pz      :     1.968216  p :     5.455442
      px      :     1.534759
      py      :     1.952467
      dz2     :     0.010053  d :     0.048256
      dxz     :     0.005819
      dyz     :     0.000661
      dx2y2   :     0.017030
      dxy     :     0.014693
  6 F s       :     3.754533  s :     3.754533
      pz      :     1.548584  p :     5.224581
      px      :     1.903239
      py      :     1.772758
      dz2     :     0.026373  d :     0.111164
      dxz     :     0.022403
      dyz     :     0.037349
      dx2y2   :     0.012606
      dxy     :     0.012433


                      *****************************
                      * MAYER POPULATION ANALYSIS *
                      *****************************

  NA   - Mulliken gross atomic population
  ZA   - Total nuclear charge
  QA   - Mulliken gross atomic charge
  VA   - Mayer's total valence
  BVA  - Mayer's bonded valence
  FA   - Mayer's free valence

  ATOM       NA         ZA         QA         VA         BVA        FA
  0 C      6.4018     6.0000    -0.4018     3.7023     3.7023     0.0000
  1 N      6.2488     7.0000     0.7512     3.9510     3.9510     0.0000
  2 H      0.7275     1.0000     0.2725     0.9048     0.9048     0.0000
  3 H      0.7275     1.0000     0.2725     0.9048     0.9048    -0.0000
  4 F      9.2310     9.0000    -0.2310     1.1009     1.1009    -0.0000
  5 F      9.4322     9.0000    -0.4322     0.8802     0.8802    -0.0000
  6 F      9.2310     9.0000    -0.2310     1.1009     1.1009    -0.0000

  Mayer bond orders larger than 0.100000
B(  0-C ,  1-N ) :   1.5541 B(  0-C ,  2-H ) :   0.8873 B(  0-C ,  3-H ) :   0.8873 
B(  0-C ,  5-F ) :   0.2648 B(  1-N ,  4-F ) :   0.9356 B(  1-N ,  5-F ) :   0.5197 
B(  1-N ,  6-F ) :   0.9356 

-------
TIMINGS
-------

Total SCF time: 0 days 0 hours 1 min 13 sec 

Total time                  ....      73.838 sec
Sum of individual times     ....      65.813 sec  ( 89.1%)

Fock matrix formation       ....      55.925 sec  ( 75.7%)
  Split-RI-J                ....       6.571 sec  ( 11.7% of F)
  Chain of spheres X        ....      11.914 sec  ( 21.3% of F)
  XC integration            ....      18.210 sec  ( 32.6% of F)
    Basis function eval.    ....       1.660 sec  (  9.1% of XC)
    Density eval.           ....       1.140 sec  (  6.3% of XC)
    XC-Functional eval.     ....       0.867 sec  (  4.8% of XC)
    XC-Potential eval.      ....       0.544 sec  (  3.0% of XC)
Diagonalization             ....       0.674 sec  (  0.9%)
Density matrix formation    ....       0.134 sec  (  0.2%)
Population analysis         ....       0.671 sec  (  0.9%)
Initial guess               ....       0.004 sec  (  0.0%)
Orbital Transformation      ....       0.000 sec  (  0.0%)
Orbital Orthonormalization  ....       0.000 sec  (  0.0%)
DIIS solution               ....       1.838 sec  (  2.5%)
SOSCF solution              ....       2.036 sec  (  2.8%)
Grid generation             ....       4.532 sec  (  6.1%)

Maximum memory used throughout the entire SCF-calculation: 47.3 MB


-------------------------------------------------------------------------------
                          DFT DISPERSION CORRECTION                            
                                                                               
                              DFTD3 V3.1  Rev 1                                
                          USING Becke-Johnson damping                          
-------------------------------------------------------------------------------
The PBEh-3c composite method is recognized
Using three-body term ABC
Active option DFTDOPT                   ...         4   

molecular C6(AA) [au] = 410.586090 


            DFT-D V3
 parameters
 s6 scaling factor         :     1.0000 
 a1 scaling factor         :     0.4860 
 s8 scaling factor         :     0.0000 
 a2 scaling factor         :     4.5000 
 Damping factor alpha9(ATM):    16.0000 
 ad hoc parameters k1-k3   :    16.0000     1.3333    -4.0000 

 Edisp/kcal,au: -1.172158530532  -0.001867953320 
 E6   /kcal   :  -1.174088234 
 E8   /kcal   :  -0.000000000 
 E6(ABC)      :   0.001929703 
 % E8         :   0.000000000 
 % E6(ABC)    :  -0.164628157 

-------------------------   ----------------
Dispersion correction           -0.001867953
-------------------------   ----------------

------------------   -----------------
gCP correction             0.026949201
------------------   -----------------

-------------------------   --------------------
FINAL SINGLE POINT ENERGY      -392.522626991499
-------------------------   --------------------


                            ***************************************
                            *     ORCA property calculations      *
                            ***************************************

                                    ---------------------
                                    Active property flags
                                    ---------------------
   (+) Dipole Moment


------------------------------------------------------------------------------
                       ORCA ELECTRIC PROPERTIES CALCULATION
------------------------------------------------------------------------------

Dipole Moment Calculation                       ... on
Quadrupole Moment Calculation                   ... off
Polarizability Calculation                      ... off
GBWName                                         ... pbeh-3c.gbw
Electron density                                ... pbeh-3c.scfp
The origin for moment calculation is the CENTER OF MASS  = (-0.031133, -0.115917  0.000000)

-------------
DIPOLE MOMENT
-------------
                                X             Y             Z
Electronic contribution:     -0.30995      -3.90978      -0.00000
Nuclear contribution   :      1.30756       4.86849       0.00000
                        -----------------------------------------
Total Dipole Moment    :      0.99761       0.95871      -0.00000
                        -----------------------------------------
Magnitude (a.u.)       :      1.38360
Magnitude (Debye)      :      3.51682



--------------------
Rotational spectrum 
--------------------
 
Rotational constants in cm-1:     0.192115     0.168907     0.155627 
Rotational constants in MHz :  5759.468983  5063.698044  4665.581928 

 Dipole components along the rotational axes: 
x,y,z [a.u.] :    -1.356228    -0.000000     0.273830 
x,y,z [Debye]:    -3.447258    -0.000000     0.696021 

 

Timings for individual modules:

Sum of individual times         ...       78.316 sec (=   1.305 min)
GTO integral calculation        ...        3.495 sec (=   0.058 min)   4.5 %
SCF iterations                  ...       74.821 sec (=   1.247 min)  95.5 %
                             ****ORCA TERMINATED NORMALLY****
TOTAL RUN TIME: 0 days 0 hours 1 minutes 25 seconds 776 msec
