
                                 *****************
                                 * O   R   C   A *
                                 *****************

                                            #,                                       
                                            ###                                      
                                            ####                                     
                                            #####                                    
                                            ######                                   
                                           ########,                                 
                                     ,,################,,,,,                         
                               ,,#################################,,                 
                          ,,##########################################,,             
                       ,#########################################, ''#####,          
                    ,#############################################,,   '####,        
                  ,##################################################,,,,####,       
                ,###########''''           ''''###############################       
              ,#####''   ,,,,##########,,,,          '''####'''          '####       
            ,##' ,,,,###########################,,,                        '##       
           ' ,,###''''                  '''############,,,                           
         ,,##''                                '''############,,,,        ,,,,,,###''
      ,#''                                            '''#######################'''  
     '                                                          ''''####''''         
             ,#######,   #######,   ,#######,      ##                                
            ,#'     '#,  ##    ##  ,#'     '#,    #''#        ######   ,####,        
            ##       ##  ##   ,#'  ##            #'  '#       #        #'  '#        
            ##       ##  #######   ##           ,######,      #####,   #    #        
            '#,     ,#'  ##    ##  '#,     ,#' ,#      #,         ##   #,  ,#        
             '#######'   ##     ##  '#######'  #'      '#     #####' # '####'        



                  #######################################################
                  #                        -***-                        #
                  #          Department of theory and spectroscopy      #
                  #    Directorship and core code : Frank Neese         #
                  #        Max Planck Institute fuer Kohlenforschung    #
                  #                Kaiser Wilhelm Platz 1               #
                  #                 D-45470 Muelheim/Ruhr               #
                  #                      Germany                        #
                  #                                                     #
                  #                  All rights reserved                #
                  #                        -***-                        #
                  #######################################################


                         Program Version 5.0.3 -  RELEASE  -


 With contributions from (in alphabetic order):
   Daniel Aravena         : Magnetic Suceptibility
   Michael Atanasov       : Ab Initio Ligand Field Theory (pilot matlab implementation)
   Alexander A. Auer      : GIAO ZORA, VPT2 properties, NMR spectrum
   Ute Becker             : Parallelization
   Giovanni Bistoni       : ED, misc. LED, open-shell LED, HFLD
   Martin Brehm           : Molecular dynamics
   Dmytro Bykov           : SCF Hessian
   Vijay G. Chilkuri      : MRCI spin determinant printing, contributions to CSF-ICE
   Dipayan Datta          : RHF DLPNO-CCSD density
   Achintya Kumar Dutta   : EOM-CC, STEOM-CC
   Dmitry Ganyushin       : Spin-Orbit,Spin-Spin,Magnetic field MRCI
   Miquel Garcia          : C-PCM and meta-GGA Hessian, CC/C-PCM, Gaussian charge scheme
   Yang Guo               : DLPNO-NEVPT2, F12-NEVPT2, CIM, IAO-localization
   Andreas Hansen         : Spin unrestricted coupled pair/coupled cluster methods
   Benjamin Helmich-Paris : MC-RPA, TRAH-SCF, COSX integrals
   Lee Huntington         : MR-EOM, pCC
   Robert Izsak           : Overlap fitted RIJCOSX, COSX-SCS-MP3, EOM
   Marcus Kettner         : VPT2
   Christian Kollmar      : KDIIS, OOCD, Brueckner-CCSD(T), CCSD density, CASPT2, CASPT2-K
   Simone Kossmann        : Meta GGA functionals, TD-DFT gradient, OOMP2, MP2 Hessian
   Martin Krupicka        : Initial AUTO-CI
   Lucas Lang             : DCDCAS
   Marvin Lechner         : AUTO-CI (C++ implementation), FIC-MRCC
   Dagmar Lenk            : GEPOL surface, SMD
   Dimitrios Liakos       : Extrapolation schemes; Compound Job, initial MDCI parallelization
   Dimitrios Manganas     : Further ROCIS development; embedding schemes
   Dimitrios Pantazis     : SARC Basis sets
   Anastasios Papadopoulos: AUTO-CI, single reference methods and gradients
   Taras Petrenko         : DFT Hessian,TD-DFT gradient, ASA, ECA, R-Raman, ABS, FL, XAS/XES, NRVS
   Peter Pinski           : DLPNO-MP2, DLPNO-MP2 Gradient
   Christoph Reimann      : Effective Core Potentials
   Marius Retegan         : Local ZFS, SOC
   Christoph Riplinger    : Optimizer, TS searches, QM/MM, DLPNO-CCSD(T), (RO)-DLPNO pert. Triples
   Tobias Risthaus        : Range-separated hybrids, TD-DFT gradient, RPA, STAB
   Michael Roemelt        : Original ROCIS implementation
   Masaaki Saitow         : Open-shell DLPNO-CCSD energy and density
   Barbara Sandhoefer     : DKH picture change effects
   Avijit Sen             : IP-ROCIS
   Kantharuban Sivalingam : CASSCF convergence, NEVPT2, FIC-MRCI
   Bernardo de Souza      : ESD, SOC TD-DFT
   Georgi Stoychev        : AutoAux, RI-MP2 NMR, DLPNO-MP2 response
   Willem Van den Heuvel  : Paramagnetic NMR
   Boris Wezisla          : Elementary symmetry handling
   Frank Wennmohs         : Technical directorship


 We gratefully acknowledge several colleagues who have allowed us to
 interface, adapt or use parts of their codes:
   Stefan Grimme, W. Hujo, H. Kruse, P. Pracht,  : VdW corrections, initial TS optimization,
                  C. Bannwarth, S. Ehlert          DFT functionals, gCP, sTDA/sTD-DF
   Ed Valeev, F. Pavosevic, A. Kumar             : LibInt (2-el integral package), F12 methods
   Garnet Chan, S. Sharma, J. Yang, R. Olivares  : DMRG
   Ulf Ekstrom                                   : XCFun DFT Library
   Mihaly Kallay                                 : mrcc  (arbitrary order and MRCC methods)
   Jiri Pittner, Ondrej Demel                    : Mk-CCSD
   Frank Weinhold                                : gennbo (NPA and NBO analysis)
   Christopher J. Cramer and Donald G. Truhlar   : smd solvation model
   Lars Goerigk                                  : TD-DFT with DH, B97 family of functionals
   V. Asgeirsson, H. Jonsson                     : NEB implementation
   FAccTs GmbH                                   : IRC, NEB, NEB-TS, DLPNO-Multilevel, CI-OPT
                                                   MM, QMMM, 2- and 3-layer-ONIOM, Crystal-QMMM,
                                                   LR-CPCM, SF, NACMEs, symmetry and pop. for TD-DFT,
                                                   nearIR, NL-DFT gradient (VV10), updates on ESD,
                                                   ML-optimized integration grids
   S Lehtola, MJT Oliveira, MAL Marques          : LibXC Library
   Liviu Ungur et al                             : ANISO software


 Your calculation uses the libint2 library for the computation of 2-el integrals
 For citations please refer to: http://libint.valeyev.net

 Your ORCA version has been built with support for libXC version: 5.1.0
 For citations please refer to: https://tddft.org/programs/libxc/

 This ORCA versions uses:
   CBLAS   interface :  Fast vector & matrix operations
   LAPACKE interface :  Fast linear algebra routines
   SCALAPACK package :  Parallel linear algebra routines
   Shared memory     :  Shared parallel matrices
   BLAS/LAPACK       :  OpenBLAS 0.3.15  USE64BITINT DYNAMIC_ARCH NO_AFFINITY Haswell SINGLE_THREADED
        Core in use  :  Haswell
   Copyright (c) 2011-2014, The OpenBLAS Project




***************************************
The coordinates will be read from file: 03.xyz
***************************************


Your calculation utilizes the geometrical counterpoise correction gCP
Please cite in your paper:
H.Kruse, S. Grimme J.Chem.Phys., 136, (2012), 154101 
   

Your calculation utilizes the atom-pairwise dispersion correction
with the Becke-Johnson damping scheme (D3BJ)
Cite in your paper:
S.Grimme, S.Ehrlich, L.Goerigk, J Comput Chem, (2011), 32, 1456–1465 
S.Grimme, J.Antony, S.Ehrlich and H.Krieg, J.Chem.Phys., 132, (2010), 154104 
   

Your calculation employs the composite approach PBEh-3c.
Please cite in your paper:
S. Grimme, J. G. Brandenburg, C. Bannwarth, A. Hansen J.Chem.Phys., 143, (2015), 054107 
   

================================================================================

----- Orbital basis set information -----
Your calculation utilizes the basis: def2-mSVP

----- AuxJ basis set information -----
Your calculation utilizes the auxiliary basis: def2/J
   F. Weigend, Phys. Chem. Chem. Phys. 8, 1057 (2006).

================================================================================
                                        WARNINGS
                       Please study these warnings very carefully!
================================================================================


INFO   : the flag for use of the SHARK integral package has been found!

================================================================================
                                       INPUT FILE
================================================================================
NAME = pbeh-3c.inp
|  1> ! PBEh-3c def2/J TightSCF DefGrid3
|  2> 
|  3> %maxcore 60000
|  4> 
|  5> %pal
|  6> nprocs 4
|  7> end
|  8> 
|  9> *xyzfile 0 1 03.xyz
| 10> 
| 11>                          ****END OF INPUT****
================================================================================

                       ****************************
                       * Single Point Calculation *
                       ****************************

---------------------------------
CARTESIAN COORDINATES (ANGSTROEM)
---------------------------------
  C     -1.888896   -0.179692    0.000000
  C      1.888896    0.179692    0.000000
  O     -1.170435   -1.166590    0.000000
  O     -1.493280    1.073689    0.000000
  O      1.493280   -1.073689    0.000000
  O      1.170435    1.166590    0.000000
  H     -0.498833    1.107195    0.000000
  H     -2.979489   -0.258829    0.000000
  H      2.979489    0.258829    0.000000
  H      0.498833   -1.107195    0.000000

----------------------------
CARTESIAN COORDINATES (A.U.)
----------------------------
  NO LB      ZA    FRAG     MASS         X           Y           Z
   0 C     6.0000    0    12.011   -3.569497   -0.339569    0.000000
   1 C     6.0000    0    12.011    3.569497    0.339569    0.000000
   2 O     8.0000    0    15.999   -2.211802   -2.204536    0.000000
   3 O     8.0000    0    15.999   -2.821891    2.028979    0.000000
   4 O     8.0000    0    15.999    2.821891   -2.028979    0.000000
   5 O     8.0000    0    15.999    2.211802    2.204536    0.000000
   6 H     1.0000    0     1.008   -0.942658    2.092296    0.000000
   7 H     1.0000    0     1.008   -5.630418   -0.489116    0.000000
   8 H     1.0000    0     1.008    5.630418    0.489116    0.000000
   9 H     1.0000    0     1.008    0.942658   -2.092296    0.000000

--------------------------------
INTERNAL COORDINATES (ANGSTROEM)
--------------------------------
 C      0   0   0     0.000000000000     0.00000000     0.00000000
 C      1   0   0     3.794848739286     0.00000000     0.00000000
 O      1   2   0     1.220718867335    59.37964360     0.00000000
 O      1   2   3     1.314335300873    67.04803538   180.00000000
 O      2   1   3     1.314335300873    67.04803538     0.00000000
 O      2   1   3     1.220718867335    59.37964360   180.00000000
 H      4   1   2     0.995011596823   109.44746498     0.00000000
 H      1   2   3     1.093459752157   178.71606231   180.00000000
 H      2   1   3     1.093459752157   178.71606231     0.00000000
 H      5   2   1     0.995011596823   109.44746498     0.00000000

---------------------------
INTERNAL COORDINATES (A.U.)
---------------------------
 C      0   0   0     0.000000000000     0.00000000     0.00000000
 C      1   0   0     7.171224836906     0.00000000     0.00000000
 O      1   2   0     2.306824345774    59.37964360     0.00000000
 O      1   2   3     2.483733766795    67.04803538   180.00000000
 O      2   1   3     2.483733766795    67.04803538     0.00000000
 O      2   1   3     2.306824345774    59.37964360   180.00000000
 H      4   1   2     1.880299418071   109.44746498     0.00000000
 H      1   2   3     2.066339470043   178.71606231   180.00000000
 H      2   1   3     2.066339470043   178.71606231     0.00000000
 H      5   2   1     1.880299418071   109.44746498     0.00000000

---------------------
BASIS SET INFORMATION
---------------------
There are 3 groups of distinct atoms

 Group   1 Type C   : 8s4p1d contracted to 4s2p1d pattern {5111/31/1}
 Group   2 Type O   : 8s4p1d contracted to 4s2p1d pattern {5111/31/1}
 Group   3 Type H   : 4s contracted to 2s pattern {31}

Atom   0C    basis set group =>   1
Atom   1C    basis set group =>   1
Atom   2O    basis set group =>   2
Atom   3O    basis set group =>   2
Atom   4O    basis set group =>   2
Atom   5O    basis set group =>   2
Atom   6H    basis set group =>   3
Atom   7H    basis set group =>   3
Atom   8H    basis set group =>   3
Atom   9H    basis set group =>   3
---------------------------------
AUXILIARY/J BASIS SET INFORMATION
---------------------------------
There are 3 groups of distinct atoms

 Group   1 Type C   : 12s5p4d2f1g contracted to 6s4p3d1f1g pattern {711111/2111/211/2/1}
 Group   2 Type O   : 12s5p4d2f1g contracted to 6s4p3d1f1g pattern {711111/2111/211/2/1}
 Group   3 Type H   : 5s2p1d contracted to 3s1p1d pattern {311/2/1}

Atom   0C    basis set group =>   1
Atom   1C    basis set group =>   1
Atom   2O    basis set group =>   2
Atom   3O    basis set group =>   2
Atom   4O    basis set group =>   2
Atom   5O    basis set group =>   2
Atom   6H    basis set group =>   3
Atom   7H    basis set group =>   3
Atom   8H    basis set group =>   3
Atom   9H    basis set group =>   3


           ************************************************************
           *        Program running with 4 parallel MPI-processes     *
           *              working on a common directory               *
           ************************************************************
------------------------------------------------------------------------------
                           ORCA GTO INTEGRAL CALCULATION
                           -- RI-GTO INTEGRALS CHOSEN --
------------------------------------------------------------------------------
------------------------------------------------------------------------------
                   ___                                                        
                  /   \      - P O W E R E D   B Y -                         
                 /     \                                                     
                 |  |  |   _    _      __       _____    __    __             
                 |  |  |  | |  | |    /  \     |  _  \  |  |  /  |          
                  \  \/   | |  | |   /    \    | | | |  |  | /  /          
                 / \  \   | |__| |  /  /\  \   | |_| |  |  |/  /          
                |  |  |   |  __  | /  /__\  \  |    /   |      \           
                |  |  |   | |  | | |   __   |  |    \   |  |\   \          
                \     /   | |  | | |  |  |  |  | |\  \  |  | \   \       
                 \___/    |_|  |_| |__|  |__|  |_| \__\ |__|  \__/        
                                                                              
                      - O R C A' S   B I G   F R I E N D -                    
                                      &                                       
                       - I N T E G R A L  F E E D E R -                       
                                                                              
 v1 FN, 2020, v2 2021                                                         
------------------------------------------------------------------------------


Reading SHARK input file pbeh-3c.SHARKINP.tmp ... ok
----------------------
SHARK INTEGRAL PACKAGE
----------------------

Number of atoms                             ...     10
Number of basis functions                   ...     98
Number of shells                            ...     50
Maximum angular momentum                    ...      2
Integral batch strategy                     ... SHARK/LIBINT Hybrid
RI-J (if used) integral strategy            ... SPLIT-RIJ (Revised 2003 algorithm where possible)
Printlevel                                  ...      1
Contraction scheme used                     ... SEGMENTED contraction
Coulomb Range Separation                    ... NOT USED
Exchange Range Separation                   ... NOT USED
Finite Nucleus Model                        ... NOT USED
Auxiliary Coulomb fitting basis             ... AVAILABLE
   # of basis functions in Aux-J            ...    338
   # of shells in Aux-J                     ...    110
   Maximum angular momentum in Aux-J        ...      4
Auxiliary J/K fitting basis                 ... NOT available
Auxiliary Correlation fitting basis         ... NOT available
Auxiliary 'external' fitting basis          ... NOT available
Integral threshold                          ...     2.500000e-11
Primitive cut-off                           ...     2.500000e-12
Primitive pair pre-selection threshold      ...     2.500000e-12

Calculating pre-screening integrals         ... done (  0.1 sec) Dimension = 50
Organizing shell pair data                  ... done (  0.3 sec)
Shell pair information
Total number of shell pairs                 ...      1275
Shell pairs after pre-screening             ...      1147
Total number of primitive shell pairs       ...      4555
Primitive shell pairs kept                  ...      3015
          la=0 lb=0:    440 shell pairs
          la=1 lb=0:    366 shell pairs
          la=1 lb=1:     78 shell pairs
          la=2 lb=0:    170 shell pairs
          la=2 lb=1:     72 shell pairs
          la=2 lb=2:     21 shell pairs

Calculating one electron integrals          ... done (  0.0 sec)
Calculating RI/J V-Matrix + Cholesky decomp.... done (  0.6 sec)
Calculating Nuclear repulsion               ... done (  0.1 sec) ENN=    235.946552194611 Eh

SHARK setup successfully completed in   2.9 seconds

Maximum memory used throughout the entire GTOINT-calculation: 9.9 MB


           ************************************************************
           *        Program running with 4 parallel MPI-processes     *
           *              working on a common directory               *
           ************************************************************
-------------------------------------------------------------------------------
                                 ORCA SCF
-------------------------------------------------------------------------------

------------
SCF SETTINGS
------------
Hamiltonian:
 Density Functional     Method          .... DFT(GTOs)
 Exchange Functional    Exchange        .... PBE
   PBE kappa parameter   XKappa         ....  1.024500
   PBE mue parameter    XMuePBE         ....  0.123457
 Correlation Functional Correlation     .... PBE
   PBE beta parameter  CBetaPBE         ....  0.030000
 LDA part of GGA corr.  LDAOpt          .... PW91-LDA
 Gradients option       PostSCFGGA      .... off
 Hybrid DFT is turned on
   Fraction HF Exchange ScalHFX         ....  0.420000
   Scaling of DF-GGA-X  ScalDFX         ....  0.580000
   Scaling of DF-GGA-C  ScalDFC         ....  1.000000
   Scaling of DF-LDA-C  ScalLDAC        ....  1.000000
   Perturbative correction              ....  0.000000
   Density functional embedding theory  .... OFF
 RI-approximation to the Coulomb term is turned on
   Number of AuxJ basis functions       .... 338
   RIJ-ON(X) (HFX calculated with O(N)) .... on
   Number of AuxJ basis functions       .... 338
   RIJ-COSX (HFX calculated with COS-X)).... on


General Settings:
 Integral files         IntName         .... pbeh-3c
 Hartree-Fock type      HFTyp           .... RHF
 Total Charge           Charge          ....    0
 Multiplicity           Mult            ....    1
 Number of Electrons    NEL             ....   48
 Basis Dimension        Dim             ....   98
 Nuclear Repulsion      ENuc            ....    235.9465521946 Eh

Convergence Acceleration:
 DIIS                   CNVDIIS         .... on
   Start iteration      DIISMaxIt       ....    12
   Startup error        DIISStart       ....  0.200000
   # of expansion vecs  DIISMaxEq       ....     5
   Bias factor          DIISBfac        ....   1.050
   Max. coefficient     DIISMaxC        ....  10.000
 Trust-Rad. Augm. Hess. CNVTRAH         .... auto
   Auto Start mean grad. ratio tolernc. ....  1.125000
   Auto Start start iteration           ....    20
   Auto Start num. interpolation iter.  ....    10
   Max. Number of Micro iterations      ....    16
   Max. Number of Macro iterations      .... Maxiter - #DIIS iter
   Number of Davidson start vectors     ....     2
   Converg. threshold I  (grad. norm)   ....   1.000e-05
   Converg. threshold II (energy diff.) ....   1.000e-08
   Grad. Scal. Fac. for Micro threshold ....   0.100
   Minimum threshold for Micro iter.    ....   0.010
   NR start threshold (gradient norm)   ....   0.001
   Initial trust radius                 ....   0.400
   Minimum AH scaling param. (alpha)    ....   1.000
   Maximum AH scaling param. (alpha)    .... 1000.000
   Orbital update algorithm             .... Taylor
   White noise on init. David. guess    .... on
   Maximum white noise                  ....   0.010
   Quad. conv. algorithm                .... NR
   COSX micro iterations for RIJONX calc.... off
 SOSCF                  CNVSOSCF        .... on
   Start iteration      SOSCFMaxIt      ....   150
   Startup grad/error   SOSCFStart      ....  0.003300
 Level Shifting         CNVShift        .... on
   Level shift para.    LevelShift      ....    0.2500
   Turn off err/grad.   ShiftErr        ....    0.0010
 Zerner damping         CNVZerner       .... off
 Static damping         CNVDamp         .... on
   Fraction old density DampFac         ....    0.7000
   Max. Damping (<1)    DampMax         ....    0.9800
   Min. Damping (>=0)   DampMin         ....    0.0000
   Turn off err/grad.   DampErr         ....    0.1000
 Fernandez-Rico         CNVRico         .... off

SCF Procedure:
 Maximum # iterations   MaxIter         ....   125
 SCF integral mode      SCFMode         .... Direct
   Integral package                     .... SHARK and LIBINT hybrid scheme
 Reset frequency        DirectResetFreq ....    20
 Integral Threshold     Thresh          ....  2.500e-11 Eh
 Primitive CutOff       TCut            ....  2.500e-12 Eh

Convergence Tolerance:
 Convergence Check Mode ConvCheckMode   .... Total+1el-Energy
 Convergence forced     ConvForced      .... 0
 Energy Change          TolE            ....  1.000e-08 Eh
 1-El. energy change                    ....  1.000e-05 Eh
 Orbital Gradient       TolG            ....  1.000e-05
 Orbital Rotation angle TolX            ....  1.000e-05
 DIIS Error             TolErr          ....  5.000e-07


Diagonalization of the overlap matrix:
Smallest eigenvalue                        ... 1.437e-02
Time for diagonalization                   ...    0.038 sec
Threshold for overlap eigenvalues          ... 1.000e-08
Number of eigenvalues below threshold      ... 0
Time for construction of square roots      ...    0.372 sec
Total time needed                          ...    0.416 sec

--------------------------------
INITIAL GUESS: MINIMAL BASIS EHT
--------------------------------
The minimal basis has 34 functions
EHT matrix was diagonalized
Basis set overlap was calculated now projecting the orbitals
Using GuessMode=FMatrix for the initial guess
C*T matrix was formed
Effective Fockian was calculated
Effective Fockian was diagonalized
Initial density was built
                      ------------------
                      INITIAL GUESS DONE
                      ------------------
-------------------
DFT GRID GENERATION
-------------------

General Integration Accuracy     IntAcc      ... 4.959
Radial Grid Type                 RadialGrid  ... OptM3 with GC (2021)
Angular Grid (max. ang.)         AngularGrid ... 6 (Lebedev-590)
Angular grid pruning method      GridPruning ... 4 (adaptive)
Weight generation scheme         WeightScheme... Becke
Basis function cutoff            BFCut       ... 1.0000e-11
Integration weight cutoff        WCut        ... 1.0000e-14
Angular grids for H and He will be reduced by one unit
Partially contracted basis set               ... off
Rotationally invariant grid construction     ... off

Total number of grid points                  ...   122142
Total number of batches                      ...     1914
Average number of points per batch           ...       63
Average number of grid points per atom       ...    12214
Time for grid setup =    3.762 sec

--------------------
COSX GRID GENERATION
--------------------

GRIDX 1
-------
General Integration Accuracy     IntAcc      ... 4.020
Radial Grid Type                 RadialGrid  ... OptM3 with GC (2021)
Angular Grid (max. ang.)         AngularGrid ... 2 (Lebedev-110)
Angular grid pruning method      GridPruning ... 4 (adaptive)
Weight generation scheme         WeightScheme... Becke
Basis function cutoff            BFCut       ... 1.0000e-11
Integration weight cutoff        WCut        ... 1.0000e-14
Angular grids for H and He will be reduced by one unit
Partially contracted basis set               ... on
Rotationally invariant grid construction     ... off

Total number of grid points                  ...    14160
Total number of batches                      ...      228
Average number of points per batch           ...       62
Average number of grid points per atom       ...     1416
UseSFitting                                  ... on

GRIDX 2
-------
General Integration Accuracy     IntAcc      ... 4.338
Radial Grid Type                 RadialGrid  ... OptM3 with GC (2021)
Angular Grid (max. ang.)         AngularGrid ... 3 (Lebedev-194)
Angular grid pruning method      GridPruning ... 4 (adaptive)
Weight generation scheme         WeightScheme... Becke
Basis function cutoff            BFCut       ... 1.0000e-11
Integration weight cutoff        WCut        ... 1.0000e-14
Angular grids for H and He will be reduced by one unit
Partially contracted basis set               ... on
Rotationally invariant grid construction     ... off

Total number of grid points                  ...    31282
Total number of batches                      ...      492
Average number of points per batch           ...       63
Average number of grid points per atom       ...     3128
UseSFitting                                  ... on

GRIDX 3
-------
General Integration Accuracy     IntAcc      ... 4.871
Radial Grid Type                 RadialGrid  ... OptM3 with GC (2021)
Angular Grid (max. ang.)         AngularGrid ... 4 (Lebedev-302)
Angular grid pruning method      GridPruning ... 4 (adaptive)
Weight generation scheme         WeightScheme... Becke
Basis function cutoff            BFCut       ... 1.0000e-11
Integration weight cutoff        WCut        ... 1.0000e-14
Angular grids for H and He will be reduced by one unit
Partially contracted basis set               ... on
Rotationally invariant grid construction     ... off

Total number of grid points                  ...    58772
Total number of batches                      ...      922
Average number of points per batch           ...       63
Average number of grid points per atom       ...     5877
UseSFitting                                  ... on

Time for X-Grid setup             =    6.272 sec

--------------
SCF ITERATIONS
--------------
ITER       Energy         Delta-E        Max-DP      RMS-DP      [F,P]     Damp
               ***  Starting incremental Fock matrix formation  ***
  0   -377.3643606672   0.000000000000 0.17645943  0.00803143  0.5148487 0.7000
  1   -377.9201948275  -0.555834160346 0.09903651  0.00450468  0.2564038 0.7000
                               ***Turning on DIIS***
  2   -378.1796777214  -0.259482893848 0.04074959  0.00232439  0.1805427 0.7000
  3   -378.3543564914  -0.174678770027 0.02892489  0.00148184  0.1262965 0.7000
  4   -378.4796989598  -0.125342468416 0.07024066  0.00361189  0.0877865 0.0000
  5   -378.7787238214  -0.299024861606 0.01049567  0.00044768  0.0120827 0.0000
  6   -378.7793005041  -0.000576682734 0.00329149  0.00013601  0.0057949 0.0000
                      *** Initiating the SOSCF procedure ***
                           *** Shutting down DIIS ***
                      *** Re-Reading the Fockian *** 
                      *** Removing any level shift *** 
ITER      Energy       Delta-E        Grad      Rot      Max-DP    RMS-DP
  7   -378.77944168  -0.0001411727  0.000893  0.000893  0.001794  0.000057
               *** Restarting incremental Fock matrix formation ***
  8   -378.77946481  -0.0000231355  0.000446  0.000640  0.001280  0.000057
  9   -378.77946430   0.0000005081  0.000742  0.000802  0.000925  0.000028
 10   -378.77946979  -0.0000054883  0.000030  0.000067  0.000084  0.000004
 11   -378.77946981  -0.0000000217  0.000011  0.000021  0.000040  0.000001
 12   -378.77946981  -0.0000000003  0.000009  0.000010  0.000014  0.000000
                  ***Gradient check signals convergence***
              ***Rediagonalizing the Fockian in SOSCF/NRSCF***

               *****************************************************
               *                     SUCCESS                       *
               *           SCF CONVERGED AFTER  13 CYCLES          *
               *****************************************************

Old exchange energy                            =    -18.760718684 Eh
New exchange energy                            =    -18.760714032 Eh
Exchange energy change after final integration =      0.000004652 Eh
Total energy after final integration           =   -378.779465165 Eh
Final COS-X integration done in                =     1.948 sec

----------------
TOTAL SCF ENERGY
----------------

Total Energy       :         -378.77946517 Eh          -10307.11325 eV

Components:
Nuclear Repulsion  :          235.94655219 Eh            6420.43209 eV
Electronic Energy  :         -614.72601736 Eh          -16727.54534 eV
One Electron Energy:         -987.22754624 Eh          -26863.82726 eV
Two Electron Energy:          372.50152888 Eh           10136.28192 eV
Max COSX asymmetry :            0.00000198 Eh               0.00005 eV

Virial components:
Potential Energy   :         -755.03416672 Eh          -20545.52419 eV
Kinetic Energy     :          376.25470156 Eh           10238.41094 eV
Virial Ratio       :            2.00671025


DFT components:
N(Alpha)           :       24.000012920210 electrons
N(Beta)            :       24.000012920210 electrons
N(Total)           :       48.000025840420 electrons
E(X)               :      -25.021368873214 Eh       
E(C)               :       -2.161872082102 Eh       
E(XC)              :      -27.183240955316 Eh       
DFET-embed. en.    :        0.000000000000 Eh       

---------------
SCF CONVERGENCE
---------------

  Last Energy change         ...   -2.5117e-09  Tolerance :   1.0000e-08
  Last MAX-Density change    ...    1.1657e-15  Tolerance :   1.0000e-07
  Last RMS-Density change    ...    5.1602e-17  Tolerance :   5.0000e-09
  Last Orbital Gradient      ...    1.3027e-06  Tolerance :   1.0000e-05
  Last Orbital Rotation      ...    1.2995e-06  Tolerance :   1.0000e-05

             **** THE GBW FILE WAS UPDATED (pbeh-3c.gbw) ****
             **** DENSITY pbeh-3c.scfp WAS UPDATED ****
             **** ENERGY FILE WAS UPDATED (pbeh-3c.en.tmp) ****
             **** THE GBW FILE WAS UPDATED (pbeh-3c.gbw) ****
             **** DENSITY pbeh-3c.scfp WAS UPDATED ****
----------------
ORBITAL ENERGIES
----------------

  NO   OCC          E(Eh)            E(eV) 
   0   2.0000     -19.550664      -532.0006 
   1   2.0000     -19.550645      -532.0001 
   2   2.0000     -19.518921      -531.1368 
   3   2.0000     -19.518919      -531.1368 
   4   2.0000     -10.603027      -288.5230 
   5   2.0000     -10.603020      -288.5228 
   6   2.0000      -1.243657       -33.8416 
   7   2.0000      -1.231765       -33.5180 
   8   2.0000      -1.153865       -31.3983 
   9   2.0000      -1.140735       -31.0410 
  10   2.0000      -0.766729       -20.8638 
  11   2.0000      -0.735868       -20.0240 
  12   2.0000      -0.631593       -17.1865 
  13   2.0000      -0.597454       -16.2576 
  14   2.0000      -0.584253       -15.8983 
  15   2.0000      -0.561682       -15.2841 
  16   2.0000      -0.529524       -14.4091 
  17   2.0000      -0.521364       -14.1870 
  18   2.0000      -0.496430       -13.5086 
  19   2.0000      -0.454508       -12.3678 
  20   2.0000      -0.401347       -10.9212 
  21   2.0000      -0.391551       -10.6547 
  22   2.0000      -0.379354       -10.3227 
  23   2.0000      -0.361720        -9.8429 
  24   0.0000       0.020227         0.5504 
  25   0.0000       0.024597         0.6693 
  26   0.0000       0.164899         4.4871 
  27   0.0000       0.187824         5.1110 
  28   0.0000       0.210264         5.7216 
  29   0.0000       0.221264         6.0209 
  30   0.0000       0.313969         8.5435 
  31   0.0000       0.325690         8.8625 
  32   0.0000       0.333268         9.0687 
  33   0.0000       0.379937        10.3386 
  34   0.0000       0.473891        12.8952 
  35   0.0000       0.498085        13.5536 
  36   0.0000       0.540857        14.7175 
  37   0.0000       0.587348        15.9826 
  38   0.0000       0.629423        17.1275 
  39   0.0000       0.708074        19.2677 
  40   0.0000       0.708965        19.2919 
  41   0.0000       0.725255        19.7352 
  42   0.0000       0.825382        22.4598 
  43   0.0000       0.852238        23.1906 
  44   0.0000       0.949595        25.8398 
  45   0.0000       0.960950        26.1488 
  46   0.0000       0.960990        26.1499 
  47   0.0000       0.988991        26.9118 
  48   0.0000       1.015548        27.6345 
  49   0.0000       1.028378        27.9836 
  50   0.0000       1.055890        28.7322 
  51   0.0000       1.121809        30.5260 
  52   0.0000       1.190636        32.3989 
  53   0.0000       1.208275        32.8788 
  54   0.0000       1.279844        34.8263 
  55   0.0000       1.285683        34.9852 
  56   0.0000       1.336289        36.3623 
  57   0.0000       1.425200        38.7817 
  58   0.0000       1.432637        38.9840 
  59   0.0000       1.486012        40.4364 
  60   0.0000       1.497286        40.7432 
  61   0.0000       1.498070        40.7646 
  62   0.0000       1.655038        45.0359 
  63   0.0000       1.769019        48.1375 
  64   0.0000       1.789047        48.6825 
  65   0.0000       1.796939        48.8972 
  66   0.0000       1.836010        49.9604 
  67   0.0000       1.854394        50.4606 
  68   0.0000       1.859790        50.6075 
  69   0.0000       1.869955        50.8841 
  70   0.0000       1.872337        50.9489 
  71   0.0000       1.876141        51.0524 
  72   0.0000       1.932915        52.5973 
  73   0.0000       1.961552        53.3765 
  74   0.0000       1.992798        54.2268 
  75   0.0000       2.016993        54.8852 
  76   0.0000       2.195489        59.7423 
  77   0.0000       2.241193        60.9860 
  78   0.0000       2.370667        64.5091 
  79   0.0000       2.378805        64.7306 
  80   0.0000       2.463442        67.0337 
  81   0.0000       2.554653        69.5156 
  82   0.0000       2.682745        73.0012 
  83   0.0000       2.694992        73.3345 
  84   0.0000       2.697680        73.4076 
  85   0.0000       2.706183        73.6390 
  86   0.0000       2.849358        77.5350 
  87   0.0000       2.855499        77.7021 
  88   0.0000       2.940828        80.0240 
  89   0.0000       2.978994        81.0626 
  90   0.0000       3.067162        83.4617 
  91   0.0000       3.070148        83.5430 
  92   0.0000      13.824191       376.1754 
  93   0.0000      13.843220       376.6932 
  94   0.0000      25.476413       693.2484 
  95   0.0000      25.564918       695.6568 
  96   0.0000      25.579748       696.0603 
  97   0.0000      25.626062       697.3206 

                    ********************************
                    * MULLIKEN POPULATION ANALYSIS *
                    ********************************

-----------------------
MULLIKEN ATOMIC CHARGES
-----------------------
   0 C :    0.325932
   1 C :    0.325932
   2 O :   -0.448449
   3 O :   -0.565931
   4 O :   -0.565931
   5 O :   -0.448449
   6 H :    0.477165
   7 H :    0.211283
   8 H :    0.211283
   9 H :    0.477166
Sum of atomic charges:   -0.0000000

--------------------------------
MULLIKEN REDUCED ORBITAL CHARGES
--------------------------------
  0 C s       :     3.060725  s :     3.060725
      pz      :     0.709573  p :     2.479894
      px      :     0.995300
      py      :     0.775021
      dz2     :     0.007292  d :     0.133449
      dxz     :     0.005348
      dyz     :     0.028621
      dx2y2   :     0.056858
      dxy     :     0.035329
  1 C s       :     3.060725  s :     3.060725
      pz      :     0.709573  p :     2.479894
      px      :     0.995300
      py      :     0.775021
      dz2     :     0.007292  d :     0.133449
      dxz     :     0.005348
      dyz     :     0.028621
      dx2y2   :     0.056858
      dxy     :     0.035329
  2 O s       :     3.777538  s :     3.777538
      pz      :     1.490459  p :     4.643090
      px      :     1.611622
      py      :     1.541010
      dz2     :     0.002491  d :     0.027821
      dxz     :     0.002862
      dyz     :     0.007727
      dx2y2   :     0.007441
      dxy     :     0.007300
  3 O s       :     3.789390  s :     3.789390
      pz      :     1.749010  p :     4.746511
      px      :     1.524908
      py      :     1.472594
      dz2     :     0.004522  d :     0.030030
      dxz     :    -0.000037
      dyz     :     0.006437
      dx2y2   :     0.015360
      dxy     :     0.003748
  4 O s       :     3.789390  s :     3.789390
      pz      :     1.749010  p :     4.746511
      px      :     1.524908
      py      :     1.472594
      dz2     :     0.004522  d :     0.030030
      dxz     :    -0.000037
      dyz     :     0.006437
      dx2y2   :     0.015360
      dxy     :     0.003748
  5 O s       :     3.777538  s :     3.777538
      pz      :     1.490459  p :     4.643090
      px      :     1.611622
      py      :     1.541010
      dz2     :     0.002491  d :     0.027821
      dxz     :     0.002862
      dyz     :     0.007727
      dx2y2   :     0.007441
      dxy     :     0.007300
  6 H s       :     0.522835  s :     0.522835
  7 H s       :     0.788717  s :     0.788717
  8 H s       :     0.788717  s :     0.788717
  9 H s       :     0.522834  s :     0.522834


                     *******************************
                     * LOEWDIN POPULATION ANALYSIS *
                     *******************************

----------------------
LOEWDIN ATOMIC CHARGES
----------------------
   0 C :    0.116972
   1 C :    0.116972
   2 O :   -0.268015
   3 O :   -0.281736
   4 O :   -0.281736
   5 O :   -0.268015
   6 H :    0.324869
   7 H :    0.107910
   8 H :    0.107910
   9 H :    0.324869

-------------------------------
LOEWDIN REDUCED ORBITAL CHARGES
-------------------------------
  0 C s       :     2.885534  s :     2.885534
      pz      :     0.723476  p :     2.704475
      px      :     1.036997
      py      :     0.944002
      dz2     :     0.017185  d :     0.293019
      dxz     :     0.008837
      dyz     :     0.059687
      dx2y2   :     0.129017
      dxy     :     0.078293
  1 C s       :     2.885534  s :     2.885534
      pz      :     0.723476  p :     2.704475
      px      :     1.036997
      py      :     0.944002
      dz2     :     0.017185  d :     0.293019
      dxz     :     0.008837
      dyz     :     0.059687
      dx2y2   :     0.129017
      dxy     :     0.078293
  2 O s       :     3.522016  s :     3.522016
      pz      :     1.465433  p :     4.692544
      px      :     1.643313
      py      :     1.583797
      dz2     :     0.006098  d :     0.053456
      dxz     :     0.003833
      dyz     :     0.009517
      dx2y2   :     0.015509
      dxy     :     0.018499
  3 O s       :     3.489251  s :     3.489251
      pz      :     1.720284  p :     4.738543
      px      :     1.495965
      py      :     1.522295
      dz2     :     0.007259  d :     0.053942
      dxz     :     0.000467
      dyz     :     0.008466
      dx2y2   :     0.026974
      dxy     :     0.010775
  4 O s       :     3.489251  s :     3.489251
      pz      :     1.720284  p :     4.738543
      px      :     1.495965
      py      :     1.522295
      dz2     :     0.007259  d :     0.053942
      dxz     :     0.000467
      dyz     :     0.008466
      dx2y2   :     0.026974
      dxy     :     0.010775
  5 O s       :     3.522016  s :     3.522016
      pz      :     1.465433  p :     4.692544
      px      :     1.643313
      py      :     1.583797
      dz2     :     0.006098  d :     0.053456
      dxz     :     0.003833
      dyz     :     0.009517
      dx2y2   :     0.015509
      dxy     :     0.018499
  6 H s       :     0.675131  s :     0.675131
  7 H s       :     0.892090  s :     0.892090
  8 H s       :     0.892090  s :     0.892090
  9 H s       :     0.675131  s :     0.675131


                      *****************************
                      * MAYER POPULATION ANALYSIS *
                      *****************************

  NA   - Mulliken gross atomic population
  ZA   - Total nuclear charge
  QA   - Mulliken gross atomic charge
  VA   - Mayer's total valence
  BVA  - Mayer's bonded valence
  FA   - Mayer's free valence

  ATOM       NA         ZA         QA         VA         BVA        FA
  0 C      5.6741     6.0000     0.3259     4.0596     4.0596    -0.0000
  1 C      5.6741     6.0000     0.3259     4.0596     4.0596    -0.0000
  2 O      8.4484     8.0000    -0.4484     2.1603     2.1603    -0.0000
  3 O      8.5659     8.0000    -0.5659     2.0255     2.0255    -0.0000
  4 O      8.5659     8.0000    -0.5659     2.0255     2.0255    -0.0000
  5 O      8.4484     8.0000    -0.4484     2.1603     2.1603    -0.0000
  6 H      0.5228     1.0000     0.4772     0.8025     0.8025    -0.0000
  7 H      0.7887     1.0000     0.2113     0.9050     0.9050    -0.0000
  8 H      0.7887     1.0000     0.2113     0.9050     0.9050    -0.0000
  9 H      0.5228     1.0000     0.4772     0.8025     0.8025    -0.0000

  Mayer bond orders larger than 0.100000
B(  0-C ,  2-O ) :   1.8563 B(  0-C ,  3-O ) :   1.3068 B(  0-C ,  7-H ) :   0.8739 
B(  1-C ,  4-O ) :   1.3068 B(  1-C ,  5-O ) :   1.8563 B(  1-C ,  8-H ) :   0.8739 
B(  2-O ,  3-O ) :   0.1054 B(  2-O ,  9-H ) :   0.1638 B(  3-O ,  6-H ) :   0.6012 
B(  4-O ,  5-O ) :   0.1054 B(  4-O ,  9-H ) :   0.6012 B(  5-O ,  6-H ) :   0.1638 


-------
TIMINGS
-------

Total SCF time: 0 days 0 hours 1 min 39 sec 

Total time                  ....      99.188 sec
Sum of individual times     ....      89.938 sec  ( 90.7%)

Fock matrix formation       ....      63.644 sec  ( 64.2%)
  Split-RI-J                ....       8.590 sec  ( 13.5% of F)
  Chain of spheres X        ....      16.965 sec  ( 26.7% of F)
  XC integration            ....      18.510 sec  ( 29.1% of F)
    Basis function eval.    ....       2.048 sec  ( 11.1% of XC)
    Density eval.           ....       1.469 sec  (  7.9% of XC)
    XC-Functional eval.     ....       0.987 sec  (  5.3% of XC)
    XC-Potential eval.      ....       0.762 sec  (  4.1% of XC)
Diagonalization             ....       5.664 sec  (  5.7%)
Density matrix formation    ....       0.195 sec  (  0.2%)
Population analysis         ....       0.702 sec  (  0.7%)
Initial guess               ....       0.020 sec  (  0.0%)
Orbital Transformation      ....       0.000 sec  (  0.0%)
Orbital Orthonormalization  ....       0.000 sec  (  0.0%)
DIIS solution               ....       8.149 sec  (  8.2%)
SOSCF solution              ....       1.528 sec  (  1.5%)
Grid generation             ....      10.035 sec  ( 10.1%)

Maximum memory used throughout the entire SCF-calculation: 49.4 MB


-------------------------------------------------------------------------------
                          DFT DISPERSION CORRECTION                            
                                                                               
                              DFTD3 V3.1  Rev 1                                
                          USING Becke-Johnson damping                          
-------------------------------------------------------------------------------
The PBEh-3c composite method is recognized
Using three-body term ABC
Active option DFTDOPT                   ...         4   

molecular C6(AA) [au] = 931.360924 


            DFT-D V3
 parameters
 s6 scaling factor         :     1.0000 
 a1 scaling factor         :     0.4860 
 s8 scaling factor         :     0.0000 
 a2 scaling factor         :     4.5000 
 Damping factor alpha9(ATM):    16.0000 
 ad hoc parameters k1-k3   :    16.0000     1.3333    -4.0000 

 Edisp/kcal,au: -2.167180793943  -0.003453622060 
 E6   /kcal   :  -2.167944009 
 E8   /kcal   :  -0.000000000 
 E6(ABC)      :   0.000763215 
 % E8         :   0.000000000 
 % E6(ABC)    :  -0.035216941 

-------------------------   ----------------
Dispersion correction           -0.003453622
-------------------------   ----------------

------------------   -----------------
gCP correction             0.039904960
------------------   -----------------

-------------------------   --------------------
FINAL SINGLE POINT ENERGY      -378.743013827325
-------------------------   --------------------


                            ***************************************
                            *     ORCA property calculations      *
                            ***************************************

                                    ---------------------
                                    Active property flags
                                    ---------------------
   (+) Dipole Moment


------------------------------------------------------------------------------
                       ORCA ELECTRIC PROPERTIES CALCULATION
------------------------------------------------------------------------------

Dipole Moment Calculation                       ... on
Quadrupole Moment Calculation                   ... off
Polarizability Calculation                      ... off
GBWName                                         ... pbeh-3c.gbw
Electron density                                ... pbeh-3c.scfp
The origin for moment calculation is the CENTER OF MASS  = ( 0.000000,  0.000000  0.000000)

-------------
DIPOLE MOMENT
-------------
                                X             Y             Z
Electronic contribution:      0.00000      -0.00000      -0.00000
Nuclear contribution   :      0.00000       0.00000       0.00000
                        -----------------------------------------
Total Dipole Moment    :      0.00000      -0.00000      -0.00000
                        -----------------------------------------
Magnitude (a.u.)       :      0.00000
Magnitude (Debye)      :      0.00000



--------------------
Rotational spectrum 
--------------------
 
Rotational constants in cm-1:     0.201142     0.076870     0.055615 
Rotational constants in MHz :  6030.085246  2304.502554  1667.310632 

 Dipole components along the rotational axes: 
x,y,z [a.u.] :    -0.000000    -0.000000    -0.000000 
x,y,z [Debye]:    -0.000000    -0.000000    -0.000000 

 

Timings for individual modules:

Sum of individual times         ...      105.531 sec (=   1.759 min)
GTO integral calculation        ...        4.550 sec (=   0.076 min)   4.3 %
SCF iterations                  ...      100.981 sec (=   1.683 min)  95.7 %
                             ****ORCA TERMINATED NORMALLY****
TOTAL RUN TIME: 0 days 0 hours 1 minutes 48 seconds 819 msec
