
                                 *****************
                                 * O   R   C   A *
                                 *****************

                                            #,                                       
                                            ###                                      
                                            ####                                     
                                            #####                                    
                                            ######                                   
                                           ########,                                 
                                     ,,################,,,,,                         
                               ,,#################################,,                 
                          ,,##########################################,,             
                       ,#########################################, ''#####,          
                    ,#############################################,,   '####,        
                  ,##################################################,,,,####,       
                ,###########''''           ''''###############################       
              ,#####''   ,,,,##########,,,,          '''####'''          '####       
            ,##' ,,,,###########################,,,                        '##       
           ' ,,###''''                  '''############,,,                           
         ,,##''                                '''############,,,,        ,,,,,,###''
      ,#''                                            '''#######################'''  
     '                                                          ''''####''''         
             ,#######,   #######,   ,#######,      ##                                
            ,#'     '#,  ##    ##  ,#'     '#,    #''#        ######   ,####,        
            ##       ##  ##   ,#'  ##            #'  '#       #        #'  '#        
            ##       ##  #######   ##           ,######,      #####,   #    #        
            '#,     ,#'  ##    ##  '#,     ,#' ,#      #,         ##   #,  ,#        
             '#######'   ##     ##  '#######'  #'      '#     #####' # '####'        



                  #######################################################
                  #                        -***-                        #
                  #          Department of theory and spectroscopy      #
                  #    Directorship and core code : Frank Neese         #
                  #        Max Planck Institute fuer Kohlenforschung    #
                  #                Kaiser Wilhelm Platz 1               #
                  #                 D-45470 Muelheim/Ruhr               #
                  #                      Germany                        #
                  #                                                     #
                  #                  All rights reserved                #
                  #                        -***-                        #
                  #######################################################


                         Program Version 5.0.3 -  RELEASE  -


 With contributions from (in alphabetic order):
   Daniel Aravena         : Magnetic Suceptibility
   Michael Atanasov       : Ab Initio Ligand Field Theory (pilot matlab implementation)
   Alexander A. Auer      : GIAO ZORA, VPT2 properties, NMR spectrum
   Ute Becker             : Parallelization
   Giovanni Bistoni       : ED, misc. LED, open-shell LED, HFLD
   Martin Brehm           : Molecular dynamics
   Dmytro Bykov           : SCF Hessian
   Vijay G. Chilkuri      : MRCI spin determinant printing, contributions to CSF-ICE
   Dipayan Datta          : RHF DLPNO-CCSD density
   Achintya Kumar Dutta   : EOM-CC, STEOM-CC
   Dmitry Ganyushin       : Spin-Orbit,Spin-Spin,Magnetic field MRCI
   Miquel Garcia          : C-PCM and meta-GGA Hessian, CC/C-PCM, Gaussian charge scheme
   Yang Guo               : DLPNO-NEVPT2, F12-NEVPT2, CIM, IAO-localization
   Andreas Hansen         : Spin unrestricted coupled pair/coupled cluster methods
   Benjamin Helmich-Paris : MC-RPA, TRAH-SCF, COSX integrals
   Lee Huntington         : MR-EOM, pCC
   Robert Izsak           : Overlap fitted RIJCOSX, COSX-SCS-MP3, EOM
   Marcus Kettner         : VPT2
   Christian Kollmar      : KDIIS, OOCD, Brueckner-CCSD(T), CCSD density, CASPT2, CASPT2-K
   Simone Kossmann        : Meta GGA functionals, TD-DFT gradient, OOMP2, MP2 Hessian
   Martin Krupicka        : Initial AUTO-CI
   Lucas Lang             : DCDCAS
   Marvin Lechner         : AUTO-CI (C++ implementation), FIC-MRCC
   Dagmar Lenk            : GEPOL surface, SMD
   Dimitrios Liakos       : Extrapolation schemes; Compound Job, initial MDCI parallelization
   Dimitrios Manganas     : Further ROCIS development; embedding schemes
   Dimitrios Pantazis     : SARC Basis sets
   Anastasios Papadopoulos: AUTO-CI, single reference methods and gradients
   Taras Petrenko         : DFT Hessian,TD-DFT gradient, ASA, ECA, R-Raman, ABS, FL, XAS/XES, NRVS
   Peter Pinski           : DLPNO-MP2, DLPNO-MP2 Gradient
   Christoph Reimann      : Effective Core Potentials
   Marius Retegan         : Local ZFS, SOC
   Christoph Riplinger    : Optimizer, TS searches, QM/MM, DLPNO-CCSD(T), (RO)-DLPNO pert. Triples
   Tobias Risthaus        : Range-separated hybrids, TD-DFT gradient, RPA, STAB
   Michael Roemelt        : Original ROCIS implementation
   Masaaki Saitow         : Open-shell DLPNO-CCSD energy and density
   Barbara Sandhoefer     : DKH picture change effects
   Avijit Sen             : IP-ROCIS
   Kantharuban Sivalingam : CASSCF convergence, NEVPT2, FIC-MRCI
   Bernardo de Souza      : ESD, SOC TD-DFT
   Georgi Stoychev        : AutoAux, RI-MP2 NMR, DLPNO-MP2 response
   Willem Van den Heuvel  : Paramagnetic NMR
   Boris Wezisla          : Elementary symmetry handling
   Frank Wennmohs         : Technical directorship


 We gratefully acknowledge several colleagues who have allowed us to
 interface, adapt or use parts of their codes:
   Stefan Grimme, W. Hujo, H. Kruse, P. Pracht,  : VdW corrections, initial TS optimization,
                  C. Bannwarth, S. Ehlert          DFT functionals, gCP, sTDA/sTD-DF
   Ed Valeev, F. Pavosevic, A. Kumar             : LibInt (2-el integral package), F12 methods
   Garnet Chan, S. Sharma, J. Yang, R. Olivares  : DMRG
   Ulf Ekstrom                                   : XCFun DFT Library
   Mihaly Kallay                                 : mrcc  (arbitrary order and MRCC methods)
   Jiri Pittner, Ondrej Demel                    : Mk-CCSD
   Frank Weinhold                                : gennbo (NPA and NBO analysis)
   Christopher J. Cramer and Donald G. Truhlar   : smd solvation model
   Lars Goerigk                                  : TD-DFT with DH, B97 family of functionals
   V. Asgeirsson, H. Jonsson                     : NEB implementation
   FAccTs GmbH                                   : IRC, NEB, NEB-TS, DLPNO-Multilevel, CI-OPT
                                                   MM, QMMM, 2- and 3-layer-ONIOM, Crystal-QMMM,
                                                   LR-CPCM, SF, NACMEs, symmetry and pop. for TD-DFT,
                                                   nearIR, NL-DFT gradient (VV10), updates on ESD,
                                                   ML-optimized integration grids
   S Lehtola, MJT Oliveira, MAL Marques          : LibXC Library
   Liviu Ungur et al                             : ANISO software


 Your calculation uses the libint2 library for the computation of 2-el integrals
 For citations please refer to: http://libint.valeyev.net

 Your ORCA version has been built with support for libXC version: 5.1.0
 For citations please refer to: https://tddft.org/programs/libxc/

 This ORCA versions uses:
   CBLAS   interface :  Fast vector & matrix operations
   LAPACKE interface :  Fast linear algebra routines
   SCALAPACK package :  Parallel linear algebra routines
   Shared memory     :  Shared parallel matrices
   BLAS/LAPACK       :  OpenBLAS 0.3.15  USE64BITINT DYNAMIC_ARCH NO_AFFINITY Haswell SINGLE_THREADED
        Core in use  :  Haswell
   Copyright (c) 2011-2014, The OpenBLAS Project




***************************************
The coordinates will be read from file: C.xyz
***************************************


Your calculation utilizes the geometrical counterpoise correction gCP
Please cite in your paper:
H.Kruse, S. Grimme J.Chem.Phys., 136, (2012), 154101 
   

Your calculation utilizes the atom-pairwise dispersion correction
with the Becke-Johnson damping scheme (D3BJ)
Cite in your paper:
S.Grimme, S.Ehrlich, L.Goerigk, J Comput Chem, (2011), 32, 1456–1465 
S.Grimme, J.Antony, S.Ehrlich and H.Krieg, J.Chem.Phys., 132, (2010), 154104 
   

Your calculation employs the composite approach PBEh-3c.
Please cite in your paper:
S. Grimme, J. G. Brandenburg, C. Bannwarth, A. Hansen J.Chem.Phys., 143, (2015), 054107 
   

================================================================================

----- Orbital basis set information -----
Your calculation utilizes the basis: def2-mSVP

----- AuxJ basis set information -----
Your calculation utilizes the auxiliary basis: def2/J
   F. Weigend, Phys. Chem. Chem. Phys. 8, 1057 (2006).

================================================================================
                                        WARNINGS
                       Please study these warnings very carefully!
================================================================================


INFO   : the flag for use of the SHARK integral package has been found!

================================================================================
                                       INPUT FILE
================================================================================
NAME = pbeh-3c.inp
|  1> ! PBEh-3c def2/J TightSCF DefGrid3
|  2> 
|  3> %maxcore 60000
|  4> 
|  5> %pal
|  6> nprocs 4
|  7> end
|  8> 
|  9> *xyzfile 0 1 C.xyz
| 10> 
| 11>                          ****END OF INPUT****
================================================================================

                       ****************************
                       * Single Point Calculation *
                       ****************************

---------------------------------
CARTESIAN COORDINATES (ANGSTROEM)
---------------------------------
  O      2.597986    1.377042    0.000000
  N      0.332498    1.306213    0.000000
  N     -1.938153    1.179113    0.000000
  N      1.614520   -0.653505    0.000000
  C     -0.758283    0.560603    0.000000
  C     -0.716012   -0.870512    0.000000
  C      1.555029    0.734667    0.000000
  C      0.511498   -1.428608    0.000000
  H     -1.611775   -1.474532    0.000000
  H      0.672763   -2.498020    0.000000
  H     -2.804213    0.668352    0.000000
  H     -1.983532    2.184707    0.000000
  H      2.527672   -1.085520    0.000000

----------------------------
CARTESIAN COORDINATES (A.U.)
----------------------------
  NO LB      ZA    FRAG     MASS         X           Y           Z
   0 O     8.0000    0    15.999    4.909482    2.602233    0.000000
   1 N     7.0000    0    14.007    0.628330    2.468385    0.000000
   2 N     7.0000    0    14.007   -3.662578    2.228201    0.000000
   3 N     7.0000    0    14.007    3.051001   -1.234946    0.000000
   4 C     6.0000    0    12.011   -1.432948    1.059386    0.000000
   5 C     6.0000    0    12.011   -1.353066   -1.645029    0.000000
   6 C     6.0000    0    12.011    2.938580    1.388319    0.000000
   7 C     6.0000    0    12.011    0.966592   -2.699677    0.000000
   8 H     1.0000    0     1.008   -3.045814   -2.786463    0.000000
   9 H     1.0000    0     1.008    1.271338   -4.720573    0.000000
  10 H     1.0000    0     1.008   -5.299195    1.263002    0.000000
  11 H     1.0000    0     1.008   -3.748332    4.128498    0.000000
  12 H     1.0000    0     1.008    4.776609   -2.051336    0.000000

--------------------------------
INTERNAL COORDINATES (ANGSTROEM)
--------------------------------
 O      0   0   0     0.000000000000     0.00000000     0.00000000
 N      1   0   0     2.266594937614     0.00000000     0.00000000
 N      2   1   0     2.274205238219   178.58693313     0.00000000
 N      1   2   3     2.256175643791    62.36672748     0.00000000
 C      2   1   4     1.321264280321   147.43592649     0.00000000
 C      5   2   1     1.431738869219   122.66291059     0.00000000
 C      1   2   5     1.224910217604    29.83891550     0.00000000
 C      4   1   2     1.348125001071   150.93855096     0.00000000
 H      6   5   2     1.080385640943   122.30021550   180.00000000
 H      8   4   1     1.081503235892   116.52054977   180.00000000
 H      3   2   5     1.005454023357   152.67371854     0.00000000
 H      3   2   5     1.006617074187    89.38000759   180.00000000
 H      4   1   2     1.010189898760    89.47642326   180.00000000

---------------------------
INTERNAL COORDINATES (A.U.)
---------------------------
 O      0   0   0     0.000000000000     0.00000000     0.00000000
 N      1   0   0     4.283243688624     0.00000000     0.00000000
 N      2   1   0     4.297625072562   178.58693313     0.00000000
 N      1   2   3     4.263554076788    62.36672748     0.00000000
 C      2   1   4     2.496827640339   147.43592649     0.00000000
 C      5   2   1     2.705594358113   122.66291059     0.00000000
 C      1   2   5     2.314744849914    29.83891550     0.00000000
 C      4   1   2     2.547587046317   150.93855096     0.00000000
 H      6   5   2     2.041632980404   122.30021550   180.00000000
 H      8   4   1     2.043744928786   116.52054977   180.00000000
 H      3   2   5     1.900032744395   152.67371854     0.00000000
 H      3   2   5     1.902230591943    89.38000759   180.00000000
 H      4   1   2     1.908982251910    89.47642326   180.00000000

---------------------
BASIS SET INFORMATION
---------------------
There are 4 groups of distinct atoms

 Group   1 Type O   : 8s4p1d contracted to 4s2p1d pattern {5111/31/1}
 Group   2 Type N   : 8s4p1d contracted to 4s2p1d pattern {5111/31/1}
 Group   3 Type C   : 8s4p1d contracted to 4s2p1d pattern {5111/31/1}
 Group   4 Type H   : 4s contracted to 2s pattern {31}

Atom   0O    basis set group =>   1
Atom   1N    basis set group =>   2
Atom   2N    basis set group =>   2
Atom   3N    basis set group =>   2
Atom   4C    basis set group =>   3
Atom   5C    basis set group =>   3
Atom   6C    basis set group =>   3
Atom   7C    basis set group =>   3
Atom   8H    basis set group =>   4
Atom   9H    basis set group =>   4
Atom  10H    basis set group =>   4
Atom  11H    basis set group =>   4
Atom  12H    basis set group =>   4
---------------------------------
AUXILIARY/J BASIS SET INFORMATION
---------------------------------
There are 4 groups of distinct atoms

 Group   1 Type O   : 12s5p4d2f1g contracted to 6s4p3d1f1g pattern {711111/2111/211/2/1}
 Group   2 Type N   : 12s5p4d2f1g contracted to 6s4p3d1f1g pattern {711111/2111/211/2/1}
 Group   3 Type C   : 12s5p4d2f1g contracted to 6s4p3d1f1g pattern {711111/2111/211/2/1}
 Group   4 Type H   : 5s2p1d contracted to 3s1p1d pattern {311/2/1}

Atom   0O    basis set group =>   1
Atom   1N    basis set group =>   2
Atom   2N    basis set group =>   2
Atom   3N    basis set group =>   2
Atom   4C    basis set group =>   3
Atom   5C    basis set group =>   3
Atom   6C    basis set group =>   3
Atom   7C    basis set group =>   3
Atom   8H    basis set group =>   4
Atom   9H    basis set group =>   4
Atom  10H    basis set group =>   4
Atom  11H    basis set group =>   4
Atom  12H    basis set group =>   4


           ************************************************************
           *        Program running with 4 parallel MPI-processes     *
           *              working on a common directory               *
           ************************************************************
------------------------------------------------------------------------------
                           ORCA GTO INTEGRAL CALCULATION
                           -- RI-GTO INTEGRALS CHOSEN --
------------------------------------------------------------------------------
------------------------------------------------------------------------------
                   ___                                                        
                  /   \      - P O W E R E D   B Y -                         
                 /     \                                                     
                 |  |  |   _    _      __       _____    __    __             
                 |  |  |  | |  | |    /  \     |  _  \  |  |  /  |          
                  \  \/   | |  | |   /    \    | | | |  |  | /  /          
                 / \  \   | |__| |  /  /\  \   | |_| |  |  |/  /          
                |  |  |   |  __  | /  /__\  \  |    /   |      \           
                |  |  |   | |  | | |   __   |  |    \   |  |\   \          
                \     /   | |  | | |  |  |  |  | |\  \  |  | \   \       
                 \___/    |_|  |_| |__|  |__|  |_| \__\ |__|  \__/        
                                                                              
                      - O R C A' S   B I G   F R I E N D -                    
                                      &                                       
                       - I N T E G R A L  F E E D E R -                       
                                                                              
 v1 FN, 2020, v2 2021                                                         
------------------------------------------------------------------------------


Reading SHARK input file pbeh-3c.SHARKINP.tmp ... ok
----------------------
SHARK INTEGRAL PACKAGE
----------------------

Number of atoms                             ...     13
Number of basis functions                   ...    130
Number of shells                            ...     66
Maximum angular momentum                    ...      2
Integral batch strategy                     ... SHARK/LIBINT Hybrid
RI-J (if used) integral strategy            ... SPLIT-RIJ (Revised 2003 algorithm where possible)
Printlevel                                  ...      1
Contraction scheme used                     ... SEGMENTED contraction
Coulomb Range Separation                    ... NOT USED
Exchange Range Separation                   ... NOT USED
Finite Nucleus Model                        ... NOT USED
Auxiliary Coulomb fitting basis             ... AVAILABLE
   # of basis functions in Aux-J            ...    447
   # of shells in Aux-J                     ...    145
   Maximum angular momentum in Aux-J        ...      4
Auxiliary J/K fitting basis                 ... NOT available
Auxiliary Correlation fitting basis         ... NOT available
Auxiliary 'external' fitting basis          ... NOT available
Integral threshold                          ...     2.500000e-11
Primitive cut-off                           ...     2.500000e-12
Primitive pair pre-selection threshold      ...     2.500000e-12

Calculating pre-screening integrals         ... done (  0.0 sec) Dimension = 66
Organizing shell pair data                  ... done (  0.3 sec)
Shell pair information
Total number of shell pairs                 ...      2211
Shell pairs after pre-screening             ...      2007
Total number of primitive shell pairs       ...      7869
Primitive shell pairs kept                  ...      5188
          la=0 lb=0:    755 shell pairs
          la=1 lb=0:    646 shell pairs
          la=1 lb=1:    135 shell pairs
          la=2 lb=0:    308 shell pairs
          la=2 lb=1:    127 shell pairs
          la=2 lb=2:     36 shell pairs

Calculating one electron integrals          ... done (  0.0 sec)
Calculating RI/J V-Matrix + Cholesky decomp.... done (  0.1 sec)
Calculating Nuclear repulsion               ... done (  0.1 sec) ENN=    358.843346055997 Eh

SHARK setup successfully completed in   0.9 seconds

Maximum memory used throughout the entire GTOINT-calculation: 10.7 MB


           ************************************************************
           *        Program running with 4 parallel MPI-processes     *
           *              working on a common directory               *
           ************************************************************
-------------------------------------------------------------------------------
                                 ORCA SCF
-------------------------------------------------------------------------------

------------
SCF SETTINGS
------------
Hamiltonian:
 Density Functional     Method          .... DFT(GTOs)
 Exchange Functional    Exchange        .... PBE
   PBE kappa parameter   XKappa         ....  1.024500
   PBE mue parameter    XMuePBE         ....  0.123457
 Correlation Functional Correlation     .... PBE
   PBE beta parameter  CBetaPBE         ....  0.030000
 LDA part of GGA corr.  LDAOpt          .... PW91-LDA
 Gradients option       PostSCFGGA      .... off
 Hybrid DFT is turned on
   Fraction HF Exchange ScalHFX         ....  0.420000
   Scaling of DF-GGA-X  ScalDFX         ....  0.580000
   Scaling of DF-GGA-C  ScalDFC         ....  1.000000
   Scaling of DF-LDA-C  ScalLDAC        ....  1.000000
   Perturbative correction              ....  0.000000
   Density functional embedding theory  .... OFF
 RI-approximation to the Coulomb term is turned on
   Number of AuxJ basis functions       .... 447
   RIJ-ON(X) (HFX calculated with O(N)) .... on
   Number of AuxJ basis functions       .... 447
   RIJ-COSX (HFX calculated with COS-X)).... on


General Settings:
 Integral files         IntName         .... pbeh-3c
 Hartree-Fock type      HFTyp           .... RHF
 Total Charge           Charge          ....    0
 Multiplicity           Mult            ....    1
 Number of Electrons    NEL             ....   58
 Basis Dimension        Dim             ....  130
 Nuclear Repulsion      ENuc            ....    358.8433460560 Eh

Convergence Acceleration:
 DIIS                   CNVDIIS         .... on
   Start iteration      DIISMaxIt       ....    12
   Startup error        DIISStart       ....  0.200000
   # of expansion vecs  DIISMaxEq       ....     5
   Bias factor          DIISBfac        ....   1.050
   Max. coefficient     DIISMaxC        ....  10.000
 Trust-Rad. Augm. Hess. CNVTRAH         .... auto
   Auto Start mean grad. ratio tolernc. ....  1.125000
   Auto Start start iteration           ....    20
   Auto Start num. interpolation iter.  ....    10
   Max. Number of Micro iterations      ....    16
   Max. Number of Macro iterations      .... Maxiter - #DIIS iter
   Number of Davidson start vectors     ....     2
   Converg. threshold I  (grad. norm)   ....   1.000e-05
   Converg. threshold II (energy diff.) ....   1.000e-08
   Grad. Scal. Fac. for Micro threshold ....   0.100
   Minimum threshold for Micro iter.    ....   0.010
   NR start threshold (gradient norm)   ....   0.001
   Initial trust radius                 ....   0.400
   Minimum AH scaling param. (alpha)    ....   1.000
   Maximum AH scaling param. (alpha)    .... 1000.000
   Orbital update algorithm             .... Taylor
   White noise on init. David. guess    .... on
   Maximum white noise                  ....   0.010
   Quad. conv. algorithm                .... NR
   COSX micro iterations for RIJONX calc.... off
 SOSCF                  CNVSOSCF        .... on
   Start iteration      SOSCFMaxIt      ....   150
   Startup grad/error   SOSCFStart      ....  0.003300
 Level Shifting         CNVShift        .... on
   Level shift para.    LevelShift      ....    0.2500
   Turn off err/grad.   ShiftErr        ....    0.0010
 Zerner damping         CNVZerner       .... off
 Static damping         CNVDamp         .... on
   Fraction old density DampFac         ....    0.7000
   Max. Damping (<1)    DampMax         ....    0.9800
   Min. Damping (>=0)   DampMin         ....    0.0000
   Turn off err/grad.   DampErr         ....    0.1000
 Fernandez-Rico         CNVRico         .... off

SCF Procedure:
 Maximum # iterations   MaxIter         ....   125
 SCF integral mode      SCFMode         .... Direct
   Integral package                     .... SHARK and LIBINT hybrid scheme
 Reset frequency        DirectResetFreq ....    20
 Integral Threshold     Thresh          ....  2.500e-11 Eh
 Primitive CutOff       TCut            ....  2.500e-12 Eh

Convergence Tolerance:
 Convergence Check Mode ConvCheckMode   .... Total+1el-Energy
 Convergence forced     ConvForced      .... 0
 Energy Change          TolE            ....  1.000e-08 Eh
 1-El. energy change                    ....  1.000e-05 Eh
 Orbital Gradient       TolG            ....  1.000e-05
 Orbital Rotation angle TolX            ....  1.000e-05
 DIIS Error             TolErr          ....  5.000e-07


Diagonalization of the overlap matrix:
Smallest eigenvalue                        ... 1.727e-03
Time for diagonalization                   ...    0.003 sec
Threshold for overlap eigenvalues          ... 1.000e-08
Number of eigenvalues below threshold      ... 0
Time for construction of square roots      ...    0.007 sec
Total time needed                          ...    0.032 sec

--------------------------------
INITIAL GUESS: MINIMAL BASIS EHT
--------------------------------
The minimal basis has 45 functions
EHT matrix was diagonalized
Basis set overlap was calculated now projecting the orbitals
Using GuessMode=FMatrix for the initial guess
C*T matrix was formed
Effective Fockian was calculated
Effective Fockian was diagonalized
Initial density was built
                      ------------------
                      INITIAL GUESS DONE
                      ------------------
-------------------
DFT GRID GENERATION
-------------------

General Integration Accuracy     IntAcc      ... 4.959
Radial Grid Type                 RadialGrid  ... OptM3 with GC (2021)
Angular Grid (max. ang.)         AngularGrid ... 6 (Lebedev-590)
Angular grid pruning method      GridPruning ... 4 (adaptive)
Weight generation scheme         WeightScheme... Becke
Basis function cutoff            BFCut       ... 1.0000e-11
Integration weight cutoff        WCut        ... 1.0000e-14
Angular grids for H and He will be reduced by one unit
Partially contracted basis set               ... off
Rotationally invariant grid construction     ... off

Total number of grid points                  ...   158452
Total number of batches                      ...     2482
Average number of points per batch           ...       63
Average number of grid points per atom       ...    12189
Time for grid setup =    2.573 sec

--------------------
COSX GRID GENERATION
--------------------

GRIDX 1
-------
General Integration Accuracy     IntAcc      ... 4.020
Radial Grid Type                 RadialGrid  ... OptM3 with GC (2021)
Angular Grid (max. ang.)         AngularGrid ... 2 (Lebedev-110)
Angular grid pruning method      GridPruning ... 4 (adaptive)
Weight generation scheme         WeightScheme... Becke
Basis function cutoff            BFCut       ... 1.0000e-11
Integration weight cutoff        WCut        ... 1.0000e-14
Angular grids for H and He will be reduced by one unit
Partially contracted basis set               ... on
Rotationally invariant grid construction     ... off

Total number of grid points                  ...    18336
Total number of batches                      ...      294
Average number of points per batch           ...       62
Average number of grid points per atom       ...     1410
UseSFitting                                  ... on

GRIDX 2
-------
General Integration Accuracy     IntAcc      ... 4.338
Radial Grid Type                 RadialGrid  ... OptM3 with GC (2021)
Angular Grid (max. ang.)         AngularGrid ... 3 (Lebedev-194)
Angular grid pruning method      GridPruning ... 4 (adaptive)
Weight generation scheme         WeightScheme... Becke
Basis function cutoff            BFCut       ... 1.0000e-11
Integration weight cutoff        WCut        ... 1.0000e-14
Angular grids for H and He will be reduced by one unit
Partially contracted basis set               ... on
Rotationally invariant grid construction     ... off

Total number of grid points                  ...    40465
Total number of batches                      ...      639
Average number of points per batch           ...       63
Average number of grid points per atom       ...     3113
UseSFitting                                  ... on

GRIDX 3
-------
General Integration Accuracy     IntAcc      ... 4.871
Radial Grid Type                 RadialGrid  ... OptM3 with GC (2021)
Angular Grid (max. ang.)         AngularGrid ... 4 (Lebedev-302)
Angular grid pruning method      GridPruning ... 4 (adaptive)
Weight generation scheme         WeightScheme... Becke
Basis function cutoff            BFCut       ... 1.0000e-11
Integration weight cutoff        WCut        ... 1.0000e-14
Angular grids for H and He will be reduced by one unit
Partially contracted basis set               ... on
Rotationally invariant grid construction     ... off

Total number of grid points                  ...    75612
Total number of batches                      ...     1188
Average number of points per batch           ...       63
Average number of grid points per atom       ...     5816
UseSFitting                                  ... on

Time for X-Grid setup             =    2.542 sec

--------------
SCF ITERATIONS
--------------
ITER       Energy         Delta-E        Max-DP      RMS-DP      [F,P]     Damp
               ***  Starting incremental Fock matrix formation  ***
  0   -392.6301386037   0.000000000000 0.22034199  0.00822077  0.6014688 0.7000
  1   -393.1828987971  -0.552760193334 0.12330117  0.00463254  0.3030769 0.7000
  2   -393.4536550907  -0.270756293621 0.06276301  0.00271246  0.2115382 0.7000
                               ***Turning on DIIS***
  3   -393.6409005034  -0.187245412665 0.04425079  0.00188751  0.1481858 0.7000
  4   -393.7764491740  -0.135548670685 0.03593053  0.00139375  0.1048032 0.7000
  5   -393.8724598741  -0.096010700057 0.08523371  0.00335917  0.0730770 0.0000
  6   -394.1003828479  -0.227922973781 0.00572195  0.00018318  0.0045824 0.0000
                      *** Initiating the SOSCF procedure ***
                           *** Shutting down DIIS ***
                      *** Re-Reading the Fockian *** 
                      *** Removing any level shift *** 
ITER      Energy       Delta-E        Grad      Rot      Max-DP    RMS-DP
  7   -394.10053799  -0.0001551379  0.000974  0.000974  0.001752  0.000079
               *** Restarting incremental Fock matrix formation ***
  8   -394.10058118  -0.0000431914  0.000617  0.002264  0.002239  0.000070
  9   -394.10059288  -0.0000117067  0.000448  0.001803  0.001622  0.000066
 10   -394.10059378  -0.0000008968  0.000393  0.000729  0.000849  0.000030
 11   -394.10059605  -0.0000022660  0.000019  0.000047  0.000082  0.000003
 12   -394.10059605  -0.0000000016  0.000027  0.000024  0.000053  0.000001
                  ***Gradient check signals convergence***
              ***Rediagonalizing the Fockian in SOSCF/NRSCF***

               *****************************************************
               *                     SUCCESS                       *
               *           SCF CONVERGED AFTER  13 CYCLES          *
               *****************************************************

Old exchange energy                            =    -21.271102109 Eh
New exchange energy                            =    -21.271100679 Eh
Exchange energy change after final integration =      0.000001430 Eh
Total energy after final integration           =   -394.100594631 Eh
Final COS-X integration done in                =     4.916 sec

----------------
TOTAL SCF ENERGY
----------------

Total Energy       :         -394.10059463 Eh          -10724.02238 eV

Components:
Nuclear Repulsion  :          358.84334606 Eh            9764.62387 eV
Electronic Energy  :         -752.94394069 Eh          -20488.64625 eV
One Electron Energy:        -1246.94945544 Eh          -33931.21971 eV
Two Electron Energy:          494.00551475 Eh           13442.57346 eV
Max COSX asymmetry :            0.00000246 Eh               0.00007 eV

Virial components:
Potential Energy   :         -785.45331111 Eh          -21373.27119 eV
Kinetic Energy     :          391.35271648 Eh           10649.24881 eV
Virial Ratio       :            2.00702149


DFT components:
N(Alpha)           :       29.000000836998 electrons
N(Beta)            :       29.000000836998 electrons
N(Total)           :       58.000001673997 electrons
E(X)               :      -28.318924013791 Eh       
E(C)               :       -2.585862484865 Eh       
E(XC)              :      -30.904786498656 Eh       
DFET-embed. en.    :        0.000000000000 Eh       

---------------
SCF CONVERGENCE
---------------

  Last Energy change         ...   -1.2378e-08  Tolerance :   1.0000e-08
  Last MAX-Density change    ...    9.9920e-16  Tolerance :   1.0000e-07
  Last RMS-Density change    ...    4.3194e-17  Tolerance :   5.0000e-09
  Last Orbital Gradient      ...    1.5180e-06  Tolerance :   1.0000e-05
  Last Orbital Rotation      ...    6.9352e-06  Tolerance :   1.0000e-05

             **** THE GBW FILE WAS UPDATED (pbeh-3c.gbw) ****
             **** DENSITY pbeh-3c.scfp WAS UPDATED ****
             **** ENERGY FILE WAS UPDATED (pbeh-3c.en.tmp) ****
             **** THE GBW FILE WAS UPDATED (pbeh-3c.gbw) ****
             **** DENSITY pbeh-3c.scfp WAS UPDATED ****
----------------
ORBITAL ENERGIES
----------------

  NO   OCC          E(Eh)            E(eV) 
   0   2.0000     -19.426831      -528.6310 
   1   2.0000     -14.693945      -399.8426 
   2   2.0000     -14.668936      -399.1620 
   3   2.0000     -14.608003      -397.5040 
   4   2.0000     -10.552542      -287.1493 
   5   2.0000     -10.545106      -286.9469 
   6   2.0000     -10.524007      -286.3728 
   7   2.0000     -10.458166      -284.5812 
   8   2.0000      -1.147774       -31.2325 
   9   2.0000      -1.077374       -29.3168 
  10   2.0000      -1.054337       -28.6900 
  11   2.0000      -0.971844       -26.4452 
  12   2.0000      -0.881014       -23.9736 
  13   2.0000      -0.752176       -20.4678 
  14   2.0000      -0.734763       -19.9939 
  15   2.0000      -0.643710       -17.5162 
  16   2.0000      -0.639631       -17.4052 
  17   2.0000      -0.604516       -16.4497 
  18   2.0000      -0.563847       -15.3431 
  19   2.0000      -0.519139       -14.1265 
  20   2.0000      -0.509943       -13.8763 
  21   2.0000      -0.498459       -13.5638 
  22   2.0000      -0.455813       -12.4033 
  23   2.0000      -0.443243       -12.0613 
  24   2.0000      -0.396320       -10.7844 
  25   2.0000      -0.318444        -8.6653 
  26   2.0000      -0.301212        -8.1964 
  27   2.0000      -0.298808        -8.1310 
  28   2.0000      -0.269927        -7.3451 
  29   0.0000      -0.006960        -0.1894 
  30   0.0000       0.056874         1.5476 
  31   0.0000       0.108899         2.9633 
  32   0.0000       0.125200         3.4069 
  33   0.0000       0.164566         4.4781 
  34   0.0000       0.180029         4.8988 
  35   0.0000       0.197059         5.3623 
  36   0.0000       0.213676         5.8144 
  37   0.0000       0.254534         6.9262 
  38   0.0000       0.274423         7.4674 
  39   0.0000       0.345740         9.4081 
  40   0.0000       0.354898         9.6573 
  41   0.0000       0.386214        10.5094 
  42   0.0000       0.391972        10.6661 
  43   0.0000       0.426830        11.6146 
  44   0.0000       0.480966        13.0877 
  45   0.0000       0.487326        13.2608 
  46   0.0000       0.510879        13.9017 
  47   0.0000       0.556048        15.1308 
  48   0.0000       0.569049        15.4846 
  49   0.0000       0.584440        15.9034 
  50   0.0000       0.589285        16.0353 
  51   0.0000       0.625582        17.0229 
  52   0.0000       0.647681        17.6243 
  53   0.0000       0.657282        17.8856 
  54   0.0000       0.693845        18.8805 
  55   0.0000       0.716165        19.4878 
  56   0.0000       0.737562        20.0701 
  57   0.0000       0.823884        22.4190 
  58   0.0000       0.830072        22.5874 
  59   0.0000       0.864437        23.5225 
  60   0.0000       0.895747        24.3745 
  61   0.0000       0.919126        25.0107 
  62   0.0000       0.930722        25.3262 
  63   0.0000       0.965219        26.2650 
  64   0.0000       0.967150        26.3175 
  65   0.0000       1.008760        27.4498 
  66   0.0000       1.012697        27.5569 
  67   0.0000       1.019279        27.7360 
  68   0.0000       1.044522        28.4229 
  69   0.0000       1.075089        29.2547 
  70   0.0000       1.112254        30.2660 
  71   0.0000       1.133754        30.8510 
  72   0.0000       1.174531        31.9606 
  73   0.0000       1.225445        33.3461 
  74   0.0000       1.252345        34.0780 
  75   0.0000       1.262073        34.3428 
  76   0.0000       1.365455        37.1559 
  77   0.0000       1.370096        37.2822 
  78   0.0000       1.403578        38.1933 
  79   0.0000       1.425959        38.8023 
  80   0.0000       1.453151        39.5423 
  81   0.0000       1.489214        40.5236 
  82   0.0000       1.508738        41.0548 
  83   0.0000       1.540450        41.9178 
  84   0.0000       1.608544        43.7707 
  85   0.0000       1.655311        45.0433 
  86   0.0000       1.702199        46.3192 
  87   0.0000       1.743516        47.4435 
  88   0.0000       1.826312        49.6965 
  89   0.0000       1.856281        50.5120 
  90   0.0000       1.909047        51.9478 
  91   0.0000       1.920467        52.2586 
  92   0.0000       1.957329        53.2616 
  93   0.0000       2.000971        54.4492 
  94   0.0000       2.013381        54.7869 
  95   0.0000       2.015383        54.8414 
  96   0.0000       2.083858        56.7047 
  97   0.0000       2.096601        57.0514 
  98   0.0000       2.151495        58.5452 
  99   0.0000       2.195853        59.7522 
 100   0.0000       2.252240        61.2866 
 101   0.0000       2.258499        61.4569 
 102   0.0000       2.287226        62.2386 
 103   0.0000       2.369531        64.4782 
 104   0.0000       2.377501        64.6951 
 105   0.0000       2.418461        65.8097 
 106   0.0000       2.447957        66.6123 
 107   0.0000       2.495053        67.8938 
 108   0.0000       2.523467        68.6670 
 109   0.0000       2.577985        70.1505 
 110   0.0000       2.627647        71.5019 
 111   0.0000       2.663423        72.4754 
 112   0.0000       2.761883        75.1547 
 113   0.0000       2.767337        75.3031 
 114   0.0000       2.787703        75.8573 
 115   0.0000       2.794741        76.0488 
 116   0.0000       2.873756        78.1989 
 117   0.0000       2.917926        79.4008 
 118   0.0000       3.017013        82.0971 
 119   0.0000       3.148810        85.6835 
 120   0.0000       3.339785        90.8802 
 121   0.0000       3.569971        97.1438 
 122   0.0000      13.440938       365.7465 
 123   0.0000      13.947652       379.5349 
 124   0.0000      14.033217       381.8632 
 125   0.0000      14.264893       388.1675 
 126   0.0000      19.224361       523.1215 
 127   0.0000      19.319384       525.7072 
 128   0.0000      19.565687       532.4094 
 129   0.0000      25.783429       701.6028 

                    ********************************
                    * MULLIKEN POPULATION ANALYSIS *
                    ********************************

-----------------------
MULLIKEN ATOMIC CHARGES
-----------------------
   0 O :   -0.438777
   1 N :   -0.476415
   2 N :   -0.808062
   3 N :   -0.654706
   4 C :    0.527375
   5 C :   -0.440009
   6 C :    0.568689
   7 C :    0.100289
   8 H :    0.231271
   9 H :    0.260275
  10 H :    0.365541
  11 H :    0.382495
  12 H :    0.382034
Sum of atomic charges:   -0.0000000

--------------------------------
MULLIKEN REDUCED ORBITAL CHARGES
--------------------------------
  0 O s       :     3.754047  s :     3.754047
      pz      :     1.483425  p :     4.655570
      px      :     1.494592
      py      :     1.677553
      dz2     :     0.002839  d :     0.029161
      dxz     :     0.007543
      dyz     :     0.003409
      dx2y2   :     0.006737
      dxy     :     0.008633
  1 N s       :     3.589737  s :     3.589737
      pz      :     1.308774  p :     3.848524
      px      :     0.994548
      py      :     1.545202
      dz2     :     0.005073  d :     0.038153
      dxz     :     0.004550
      dyz     :     0.007176
      dx2y2   :     0.005464
      dxy     :     0.015891
  2 N s       :     3.580584  s :     3.580584
      pz      :     1.744634  p :     4.199809
      px      :     1.191615
      py      :     1.263560
      dz2     :     0.004528  d :     0.027669
      dxz     :     0.002850
      dyz     :     0.000897
      dx2y2   :     0.010582
      dxy     :     0.008813
  3 N s       :     3.574611  s :     3.574611
      pz      :     1.615903  p :     4.043638
      px      :     1.228463
      py      :     1.199271
      dz2     :     0.004314  d :     0.036458
      dxz     :     0.003228
      dyz     :     0.004888
      dx2y2   :     0.011493
      dxy     :     0.012535
  4 C s       :     2.946087  s :     2.946087
      pz      :     0.816068  p :     2.429474
      px      :     0.726231
      py      :     0.887174
      dz2     :     0.005117  d :     0.097064
      dxz     :     0.022699
      dyz     :     0.011415
      dx2y2   :     0.029629
      dxy     :     0.028204
  5 C s       :     3.251152  s :     3.251152
      pz      :     1.181101  p :     3.153705
      px      :     1.059712
      py      :     0.912891
      dz2     :     0.004172  d :     0.035151
      dxz     :     0.004200
      dyz     :     0.003061
      dx2y2   :     0.011942
      dxy     :     0.011775
  6 C s       :     2.848332  s :     2.848332
      pz      :     0.818490  p :     2.438067
      px      :     0.844943
      py      :     0.774634
      dz2     :     0.006581  d :     0.144912
      dxz     :     0.025421
      dyz     :     0.015445
      dx2y2   :     0.059644
      dxy     :     0.037821
  7 C s       :     3.121370  s :     3.121370
      pz      :     0.894304  p :     2.716556
      px      :     0.869126
      py      :     0.953126
      dz2     :     0.004721  d :     0.061785
      dxz     :     0.017030
      dyz     :     0.003488
      dx2y2   :     0.018068
      dxy     :     0.018478
  8 H s       :     0.768729  s :     0.768729
  9 H s       :     0.739725  s :     0.739725
 10 H s       :     0.634459  s :     0.634459
 11 H s       :     0.617505  s :     0.617505
 12 H s       :     0.617966  s :     0.617966


                     *******************************
                     * LOEWDIN POPULATION ANALYSIS *
                     *******************************

----------------------
LOEWDIN ATOMIC CHARGES
----------------------
   0 O :   -0.287462
   1 N :   -0.234765
   2 N :   -0.332053
   3 N :   -0.171811
   4 C :    0.103177
   5 C :   -0.265536
   6 C :    0.102221
   7 C :   -0.002883
   8 H :    0.144726
   9 H :    0.143673
  10 H :    0.255293
  11 H :    0.268329
  12 H :    0.277091

-------------------------------
LOEWDIN REDUCED ORBITAL CHARGES
-------------------------------
  0 O s       :     3.523648  s :     3.523648
      pz      :     1.475613  p :     4.709663
      px      :     1.545854
      py      :     1.688196
      dz2     :     0.006703  d :     0.054151
      dxz     :     0.010609
      dyz     :     0.004511
      dx2y2   :     0.013154
      dxy     :     0.019173
  1 N s       :     3.200562  s :     3.200562
      pz      :     1.291959  p :     3.952561
      px      :     1.111175
      py      :     1.549428
      dz2     :     0.010004  d :     0.081642
      dxz     :     0.010826
      dyz     :     0.007451
      dx2y2   :     0.016279
      dxy     :     0.037082
  2 N s       :     3.127375  s :     3.127375
      pz      :     1.711849  p :     4.144901
      px      :     1.204935
      py      :     1.228117
      dz2     :     0.005535  d :     0.059777
      dxz     :     0.006221
      dyz     :     0.001634
      dx2y2   :     0.024573
      dxy     :     0.021814
  3 N s       :     3.097232  s :     3.097232
      pz      :     1.561307  p :     3.986808
      px      :     1.204061
      py      :     1.221440
      dz2     :     0.007005  d :     0.087770
      dxz     :     0.006195
      dyz     :     0.010613
      dx2y2   :     0.031221
      dxy     :     0.032736
  4 C s       :     2.808898  s :     2.808898
      pz      :     0.821399  p :     2.868936
      px      :     0.984866
      py      :     1.062672
      dz2     :     0.011620  d :     0.218989
      dxz     :     0.045796
      dyz     :     0.022490
      dx2y2   :     0.072340
      dxy     :     0.066742
  5 C s       :     2.891016  s :     2.891016
      pz      :     1.153627  p :     3.291439
      px      :     1.087754
      py      :     1.050058
      dz2     :     0.007033  d :     0.083081
      dxz     :     0.006919
      dyz     :     0.006485
      dx2y2   :     0.032124
      dxy     :     0.030520
  6 C s       :     2.787440  s :     2.787440
      pz      :     0.822991  p :     2.784566
      px      :     1.018794
      py      :     0.942781
      dz2     :     0.016174  d :     0.325773
      dxz     :     0.049977
      dyz     :     0.032148
      dx2y2   :     0.139360
      dxy     :     0.088115
  7 C s       :     2.877827  s :     2.877827
      pz      :     0.897410  p :     2.988224
      px      :     1.038535
      py      :     1.052279
      dz2     :     0.009060  d :     0.136832
      dxz     :     0.036166
      dyz     :     0.005803
      dx2y2   :     0.042782
      dxy     :     0.043021
  8 H s       :     0.855274  s :     0.855274
  9 H s       :     0.856327  s :     0.856327
 10 H s       :     0.744707  s :     0.744707
 11 H s       :     0.731671  s :     0.731671
 12 H s       :     0.722909  s :     0.722909


                      *****************************
                      * MAYER POPULATION ANALYSIS *
                      *****************************

  NA   - Mulliken gross atomic population
  ZA   - Total nuclear charge
  QA   - Mulliken gross atomic charge
  VA   - Mayer's total valence
  BVA  - Mayer's bonded valence
  FA   - Mayer's free valence

  ATOM       NA         ZA         QA         VA         BVA        FA
  0 O      8.4388     8.0000    -0.4388     2.1870     2.1870     0.0000
  1 N      7.4764     7.0000    -0.4764     3.0426     3.0426     0.0000
  2 N      7.8081     7.0000    -0.8081     2.9352     2.9352    -0.0000
  3 N      7.6547     7.0000    -0.6547     3.1254     3.1254    -0.0000
  4 C      5.4726     6.0000     0.5274     3.8861     3.8861     0.0000
  5 C      6.4400     6.0000    -0.4400     3.8011     3.8011    -0.0000
  6 C      5.4313     6.0000     0.5687     4.2394     4.2394     0.0000
  7 C      5.8997     6.0000     0.1003     3.6972     3.6972     0.0000
  8 H      0.7687     1.0000     0.2313     0.9164     0.9164     0.0000
  9 H      0.7397     1.0000     0.2603     0.8874     0.8874     0.0000
 10 H      0.6345     1.0000     0.3655     0.8450     0.8450    -0.0000
 11 H      0.6175     1.0000     0.3825     0.8422     0.8422    -0.0000
 12 H      0.6180     1.0000     0.3820     0.8383     0.8383    -0.0000

  Mayer bond orders larger than 0.100000
B(  0-O ,  6-C ) :   2.0046 B(  1-N ,  4-C ) :   1.6012 B(  1-N ,  6-C ) :   1.2404 
B(  2-N ,  4-C ) :   1.1460 B(  2-N , 10-H ) :   0.8391 B(  2-N , 11-H ) :   0.8188 
B(  3-N ,  6-C ) :   0.9723 B(  3-N ,  7-C ) :   1.1714 B(  3-N , 12-H ) :   0.8089 
B(  4-C ,  5-C ) :   1.1202 B(  5-C ,  7-C ) :   1.6123 B(  5-C ,  8-H ) :   0.9063 
B(  7-C ,  9-H ) :   0.9026 

-------
TIMINGS
-------

Total SCF time: 0 days 0 hours 1 min 22 sec 

Total time                  ....      82.969 sec
Sum of individual times     ....      78.007 sec  ( 94.0%)

Fock matrix formation       ....      68.055 sec  ( 82.0%)
  Split-RI-J                ....       7.038 sec  ( 10.3% of F)
  Chain of spheres X        ....      27.634 sec  ( 40.6% of F)
  XC integration            ....      18.273 sec  ( 26.8% of F)
    Basis function eval.    ....       3.110 sec  ( 17.0% of XC)
    Density eval.           ....       1.881 sec  ( 10.3% of XC)
    XC-Functional eval.     ....       1.194 sec  (  6.5% of XC)
    XC-Potential eval.      ....       1.138 sec  (  6.2% of XC)
Diagonalization             ....       0.445 sec  (  0.5%)
Density matrix formation    ....       0.050 sec  (  0.1%)
Population analysis         ....       0.963 sec  (  1.2%)
Initial guess               ....       0.017 sec  (  0.0%)
Orbital Transformation      ....       0.000 sec  (  0.0%)
Orbital Orthonormalization  ....       0.000 sec  (  0.0%)
DIIS solution               ....       1.486 sec  (  1.8%)
SOSCF solution              ....       1.876 sec  (  2.3%)
Grid generation             ....       5.115 sec  (  6.2%)

Maximum memory used throughout the entire SCF-calculation: 53.3 MB


-------------------------------------------------------------------------------
                          DFT DISPERSION CORRECTION                            
                                                                               
                              DFTD3 V3.1  Rev 1                                
                          USING Becke-Johnson damping                          
-------------------------------------------------------------------------------
The PBEh-3c composite method is recognized
Using three-body term ABC
Active option DFTDOPT                   ...         4   

molecular C6(AA) [au] = 1987.249786 


            DFT-D V3
 parameters
 s6 scaling factor         :     1.0000 
 a1 scaling factor         :     0.4860 
 s8 scaling factor         :     0.0000 
 a2 scaling factor         :     4.5000 
 Damping factor alpha9(ATM):    16.0000 
 ad hoc parameters k1-k3   :    16.0000     1.3333    -4.0000 

 Edisp/kcal,au: -4.282831609057  -0.006825125881 
 E6   /kcal   :  -4.287320036 
 E8   /kcal   :  -0.000000000 
 E6(ABC)      :   0.004488427 
 % E8         :   0.000000000 
 % E6(ABC)    :  -0.104800460 

-------------------------   ----------------
Dispersion correction           -0.006825126
-------------------------   ----------------

------------------   -----------------
gCP correction             0.023217286
------------------   -----------------

-------------------------   --------------------
FINAL SINGLE POINT ENERGY      -394.084202470559
-------------------------   --------------------


                            ***************************************
                            *     ORCA property calculations      *
                            ***************************************

                                    ---------------------
                                    Active property flags
                                    ---------------------
   (+) Dipole Moment


------------------------------------------------------------------------------
                       ORCA ELECTRIC PROPERTIES CALCULATION
------------------------------------------------------------------------------

Dipole Moment Calculation                       ... on
Quadrupole Moment Calculation                   ... off
Polarizability Calculation                      ... off
GBWName                                         ... pbeh-3c.gbw
Electron density                                ... pbeh-3c.scfp
The origin for moment calculation is the CENTER OF MASS  = ( 0.775219,  0.568253  0.000000)

-------------
DIPOLE MOMENT
-------------
                                X             Y             Z
Electronic contribution:      2.96813       1.50717      -0.00000
Nuclear contribution   :     -4.90001      -3.45823       0.00000
                        -----------------------------------------
Total Dipole Moment    :     -1.93188      -1.95107      -0.00000
                        -----------------------------------------
Magnitude (a.u.)       :      2.74569
Magnitude (Debye)      :      6.97900



--------------------
Rotational spectrum 
--------------------
 
Rotational constants in cm-1:     0.131268     0.068346     0.044945 
Rotational constants in MHz :  3935.318326  2048.964002  1347.417308 

 Dipole components along the rotational axes: 
x,y,z [a.u.] :     1.961852    -1.920930    -0.000000 
x,y,z [Debye]:     4.986632    -4.882615    -0.000000 

 

Timings for individual modules:

Sum of individual times         ...       84.512 sec (=   1.409 min)
GTO integral calculation        ...        1.136 sec (=   0.019 min)   1.3 %
SCF iterations                  ...       83.375 sec (=   1.390 min)  98.7 %
                             ****ORCA TERMINATED NORMALLY****
TOTAL RUN TIME: 0 days 0 hours 1 minutes 29 seconds 840 msec
