
                                 *****************
                                 * O   R   C   A *
                                 *****************

                                            #,                                       
                                            ###                                      
                                            ####                                     
                                            #####                                    
                                            ######                                   
                                           ########,                                 
                                     ,,################,,,,,                         
                               ,,#################################,,                 
                          ,,##########################################,,             
                       ,#########################################, ''#####,          
                    ,#############################################,,   '####,        
                  ,##################################################,,,,####,       
                ,###########''''           ''''###############################       
              ,#####''   ,,,,##########,,,,          '''####'''          '####       
            ,##' ,,,,###########################,,,                        '##       
           ' ,,###''''                  '''############,,,                           
         ,,##''                                '''############,,,,        ,,,,,,###''
      ,#''                                            '''#######################'''  
     '                                                          ''''####''''         
             ,#######,   #######,   ,#######,      ##                                
            ,#'     '#,  ##    ##  ,#'     '#,    #''#        ######   ,####,        
            ##       ##  ##   ,#'  ##            #'  '#       #        #'  '#        
            ##       ##  #######   ##           ,######,      #####,   #    #        
            '#,     ,#'  ##    ##  '#,     ,#' ,#      #,         ##   #,  ,#        
             '#######'   ##     ##  '#######'  #'      '#     #####' # '####'        



                  #######################################################
                  #                        -***-                        #
                  #          Department of theory and spectroscopy      #
                  #    Directorship and core code : Frank Neese         #
                  #        Max Planck Institute fuer Kohlenforschung    #
                  #                Kaiser Wilhelm Platz 1               #
                  #                 D-45470 Muelheim/Ruhr               #
                  #                      Germany                        #
                  #                                                     #
                  #                  All rights reserved                #
                  #                        -***-                        #
                  #######################################################


                         Program Version 5.0.3 -  RELEASE  -


 With contributions from (in alphabetic order):
   Daniel Aravena         : Magnetic Suceptibility
   Michael Atanasov       : Ab Initio Ligand Field Theory (pilot matlab implementation)
   Alexander A. Auer      : GIAO ZORA, VPT2 properties, NMR spectrum
   Ute Becker             : Parallelization
   Giovanni Bistoni       : ED, misc. LED, open-shell LED, HFLD
   Martin Brehm           : Molecular dynamics
   Dmytro Bykov           : SCF Hessian
   Vijay G. Chilkuri      : MRCI spin determinant printing, contributions to CSF-ICE
   Dipayan Datta          : RHF DLPNO-CCSD density
   Achintya Kumar Dutta   : EOM-CC, STEOM-CC
   Dmitry Ganyushin       : Spin-Orbit,Spin-Spin,Magnetic field MRCI
   Miquel Garcia          : C-PCM and meta-GGA Hessian, CC/C-PCM, Gaussian charge scheme
   Yang Guo               : DLPNO-NEVPT2, F12-NEVPT2, CIM, IAO-localization
   Andreas Hansen         : Spin unrestricted coupled pair/coupled cluster methods
   Benjamin Helmich-Paris : MC-RPA, TRAH-SCF, COSX integrals
   Lee Huntington         : MR-EOM, pCC
   Robert Izsak           : Overlap fitted RIJCOSX, COSX-SCS-MP3, EOM
   Marcus Kettner         : VPT2
   Christian Kollmar      : KDIIS, OOCD, Brueckner-CCSD(T), CCSD density, CASPT2, CASPT2-K
   Simone Kossmann        : Meta GGA functionals, TD-DFT gradient, OOMP2, MP2 Hessian
   Martin Krupicka        : Initial AUTO-CI
   Lucas Lang             : DCDCAS
   Marvin Lechner         : AUTO-CI (C++ implementation), FIC-MRCC
   Dagmar Lenk            : GEPOL surface, SMD
   Dimitrios Liakos       : Extrapolation schemes; Compound Job, initial MDCI parallelization
   Dimitrios Manganas     : Further ROCIS development; embedding schemes
   Dimitrios Pantazis     : SARC Basis sets
   Anastasios Papadopoulos: AUTO-CI, single reference methods and gradients
   Taras Petrenko         : DFT Hessian,TD-DFT gradient, ASA, ECA, R-Raman, ABS, FL, XAS/XES, NRVS
   Peter Pinski           : DLPNO-MP2, DLPNO-MP2 Gradient
   Christoph Reimann      : Effective Core Potentials
   Marius Retegan         : Local ZFS, SOC
   Christoph Riplinger    : Optimizer, TS searches, QM/MM, DLPNO-CCSD(T), (RO)-DLPNO pert. Triples
   Tobias Risthaus        : Range-separated hybrids, TD-DFT gradient, RPA, STAB
   Michael Roemelt        : Original ROCIS implementation
   Masaaki Saitow         : Open-shell DLPNO-CCSD energy and density
   Barbara Sandhoefer     : DKH picture change effects
   Avijit Sen             : IP-ROCIS
   Kantharuban Sivalingam : CASSCF convergence, NEVPT2, FIC-MRCI
   Bernardo de Souza      : ESD, SOC TD-DFT
   Georgi Stoychev        : AutoAux, RI-MP2 NMR, DLPNO-MP2 response
   Willem Van den Heuvel  : Paramagnetic NMR
   Boris Wezisla          : Elementary symmetry handling
   Frank Wennmohs         : Technical directorship


 We gratefully acknowledge several colleagues who have allowed us to
 interface, adapt or use parts of their codes:
   Stefan Grimme, W. Hujo, H. Kruse, P. Pracht,  : VdW corrections, initial TS optimization,
                  C. Bannwarth, S. Ehlert          DFT functionals, gCP, sTDA/sTD-DF
   Ed Valeev, F. Pavosevic, A. Kumar             : LibInt (2-el integral package), F12 methods
   Garnet Chan, S. Sharma, J. Yang, R. Olivares  : DMRG
   Ulf Ekstrom                                   : XCFun DFT Library
   Mihaly Kallay                                 : mrcc  (arbitrary order and MRCC methods)
   Jiri Pittner, Ondrej Demel                    : Mk-CCSD
   Frank Weinhold                                : gennbo (NPA and NBO analysis)
   Christopher J. Cramer and Donald G. Truhlar   : smd solvation model
   Lars Goerigk                                  : TD-DFT with DH, B97 family of functionals
   V. Asgeirsson, H. Jonsson                     : NEB implementation
   FAccTs GmbH                                   : IRC, NEB, NEB-TS, DLPNO-Multilevel, CI-OPT
                                                   MM, QMMM, 2- and 3-layer-ONIOM, Crystal-QMMM,
                                                   LR-CPCM, SF, NACMEs, symmetry and pop. for TD-DFT,
                                                   nearIR, NL-DFT gradient (VV10), updates on ESD,
                                                   ML-optimized integration grids
   S Lehtola, MJT Oliveira, MAL Marques          : LibXC Library
   Liviu Ungur et al                             : ANISO software


 Your calculation uses the libint2 library for the computation of 2-el integrals
 For citations please refer to: http://libint.valeyev.net

 Your ORCA version has been built with support for libXC version: 5.1.0
 For citations please refer to: https://tddft.org/programs/libxc/

 This ORCA versions uses:
   CBLAS   interface :  Fast vector & matrix operations
   LAPACKE interface :  Fast linear algebra routines
   SCALAPACK package :  Parallel linear algebra routines
   Shared memory     :  Shared parallel matrices
   BLAS/LAPACK       :  OpenBLAS 0.3.15  USE64BITINT DYNAMIC_ARCH NO_AFFINITY Haswell SINGLE_THREADED
        Core in use  :  Haswell
   Copyright (c) 2011-2014, The OpenBLAS Project




***************************************
The coordinates will be read from file: 13-Cyclopentadiene.xyz
***************************************


Your calculation utilizes the geometrical counterpoise correction gCP
Please cite in your paper:
H.Kruse, S. Grimme J.Chem.Phys., 136, (2012), 154101 
   

Your calculation utilizes the atom-pairwise dispersion correction
with the Becke-Johnson damping scheme (D3BJ)
Cite in your paper:
S.Grimme, S.Ehrlich, L.Goerigk, J Comput Chem, (2011), 32, 1456–1465 
S.Grimme, J.Antony, S.Ehrlich and H.Krieg, J.Chem.Phys., 132, (2010), 154104 
   

Your calculation employs the composite approach PBEh-3c.
Please cite in your paper:
S. Grimme, J. G. Brandenburg, C. Bannwarth, A. Hansen J.Chem.Phys., 143, (2015), 054107 
   

================================================================================

----- Orbital basis set information -----
Your calculation utilizes the basis: def2-mSVP

----- AuxJ basis set information -----
Your calculation utilizes the auxiliary basis: def2/J
   F. Weigend, Phys. Chem. Chem. Phys. 8, 1057 (2006).

================================================================================
                                        WARNINGS
                       Please study these warnings very carefully!
================================================================================


INFO   : the flag for use of the SHARK integral package has been found!

================================================================================
                                       INPUT FILE
================================================================================
NAME = pbeh-3c.inp
|  1> ! PBEh-3c def2/J TightSCF DefGrid3
|  2> 
|  3> %maxcore 60000
|  4> 
|  5> %pal
|  6> nprocs 4
|  7> end
|  8> 
|  9> *xyzfile 0 1 13-Cyclopentadiene.xyz
| 10> 
| 11>                          ****END OF INPUT****
================================================================================

                       ****************************
                       * Single Point Calculation *
                       ****************************

---------------------------------
CARTESIAN COORDINATES (ANGSTROEM)
---------------------------------
  H     -1.789359    0.878783    0.000098
  C     -1.126632    0.000111   -0.000003
  C     -0.191681    0.000025   -1.181349
  C      1.084681   -0.000333   -0.734692
  C      1.084677    0.000367    0.734696
  C     -0.191686   -0.000408    1.181348
  H     -1.789840   -0.878175   -0.000107
  H     -0.518503   -0.000637    2.214542
  H     -0.518493    0.000086   -2.214545
  H      1.978424   -0.000428   -1.349346
  H      1.978412    0.000610    1.349358

----------------------------
CARTESIAN COORDINATES (A.U.)
----------------------------
  NO LB      ZA    FRAG     MASS         X           Y           Z
   0 H     1.0000    0     1.008   -3.381398    1.660660    0.000185
   1 C     6.0000    0    12.011   -2.129025    0.000210   -0.000006
   2 C     6.0000    0    12.011   -0.362225    0.000047   -2.232427
   3 C     6.0000    0    12.011    2.049750   -0.000629   -1.388367
   4 C     6.0000    0    12.011    2.049742    0.000693    1.388374
   5 C     6.0000    0    12.011   -0.362235   -0.000771    2.232425
   6 H     1.0000    0     1.008   -3.382307   -1.659511   -0.000202
   7 H     1.0000    0     1.008   -0.979829   -0.001204    4.184877
   8 H     1.0000    0     1.008   -0.979811    0.000162   -4.184883
   9 H     1.0000    0     1.008    3.738680   -0.000809   -2.549893
  10 H     1.0000    0     1.008    3.738657    0.001153    2.549918

--------------------------------
INTERNAL COORDINATES (ANGSTROEM)
--------------------------------
 H      0   0   0     0.000000000000     0.00000000     0.00000000
 C      1   0   0     1.100578194681     0.00000000     0.00000000
 C      2   1   0     1.506556056504   111.95093039     0.00000000
 C      3   2   1     1.352258634288   109.07181270   120.61369930
 C      4   3   2     1.469388566741   109.28709199   359.96399016
 C      5   4   3     1.352258101342   109.28717847     0.06996368
 H      2   1   3     1.100559755976   105.91800151   237.71784995
 H      6   5   4     1.083650250061   126.84011869   179.96906294
 H      3   2   1     1.083650626526   124.08813911   300.60488831
 H      4   3   2     1.084700719826   126.19530920   180.00309810
 H      5   4   3     1.084699251232   124.51790936   180.02242859

---------------------------
INTERNAL COORDINATES (A.U.)
---------------------------
 H      0   0   0     0.000000000000     0.00000000     0.00000000
 C      1   0   0     2.079791376913     0.00000000     0.00000000
 C      2   1   0     2.846978352194   111.95093039     0.00000000
 C      3   2   1     2.555398481034   109.07181270   120.61369930
 C      4   3   2     2.776741975456   109.28709199   359.96399016
 C      5   4   3     2.555397473914   109.28717847     0.06996368
 H      2   1   3     2.079756532810   105.91800151   237.71784995
 H      6   5   4     2.047802197571   126.84011869   179.96906294
 H      3   2   1     2.047802908986   124.08813911   300.60488831
 H      4   3   2     2.049787297738   126.19530920   180.00309810
 H      5   4   3     2.049784522499   124.51790936   180.02242859

---------------------
BASIS SET INFORMATION
---------------------
There are 2 groups of distinct atoms

 Group   1 Type H   : 4s contracted to 2s pattern {31}
 Group   2 Type C   : 8s4p1d contracted to 4s2p1d pattern {5111/31/1}

Atom   0H    basis set group =>   1
Atom   1C    basis set group =>   2
Atom   2C    basis set group =>   2
Atom   3C    basis set group =>   2
Atom   4C    basis set group =>   2
Atom   5C    basis set group =>   2
Atom   6H    basis set group =>   1
Atom   7H    basis set group =>   1
Atom   8H    basis set group =>   1
Atom   9H    basis set group =>   1
Atom  10H    basis set group =>   1
---------------------------------
AUXILIARY/J BASIS SET INFORMATION
---------------------------------
There are 2 groups of distinct atoms

 Group   1 Type H   : 5s2p1d contracted to 3s1p1d pattern {311/2/1}
 Group   2 Type C   : 12s5p4d2f1g contracted to 6s4p3d1f1g pattern {711111/2111/211/2/1}

Atom   0H    basis set group =>   1
Atom   1C    basis set group =>   2
Atom   2C    basis set group =>   2
Atom   3C    basis set group =>   2
Atom   4C    basis set group =>   2
Atom   5C    basis set group =>   2
Atom   6H    basis set group =>   1
Atom   7H    basis set group =>   1
Atom   8H    basis set group =>   1
Atom   9H    basis set group =>   1
Atom  10H    basis set group =>   1


           ************************************************************
           *        Program running with 4 parallel MPI-processes     *
           *              working on a common directory               *
           ************************************************************
------------------------------------------------------------------------------
                           ORCA GTO INTEGRAL CALCULATION
                           -- RI-GTO INTEGRALS CHOSEN --
------------------------------------------------------------------------------
------------------------------------------------------------------------------
                   ___                                                        
                  /   \      - P O W E R E D   B Y -                         
                 /     \                                                     
                 |  |  |   _    _      __       _____    __    __             
                 |  |  |  | |  | |    /  \     |  _  \  |  |  /  |          
                  \  \/   | |  | |   /    \    | | | |  |  | /  /          
                 / \  \   | |__| |  /  /\  \   | |_| |  |  |/  /          
                |  |  |   |  __  | /  /__\  \  |    /   |      \           
                |  |  |   | |  | | |   __   |  |    \   |  |\   \          
                \     /   | |  | | |  |  |  |  | |\  \  |  | \   \       
                 \___/    |_|  |_| |__|  |__|  |_| \__\ |__|  \__/        
                                                                              
                      - O R C A' S   B I G   F R I E N D -                    
                                      &                                       
                       - I N T E G R A L  F E E D E R -                       
                                                                              
 v1 FN, 2020, v2 2021                                                         
------------------------------------------------------------------------------


Reading SHARK input file pbeh-3c.SHARKINP.tmp ... ok
----------------------
SHARK INTEGRAL PACKAGE
----------------------

Number of atoms                             ...     11
Number of basis functions                   ...     87
Number of shells                            ...     47
Maximum angular momentum                    ...      2
Integral batch strategy                     ... SHARK/LIBINT Hybrid
RI-J (if used) integral strategy            ... SPLIT-RIJ (Revised 2003 algorithm where possible)
Printlevel                                  ...      1
Contraction scheme used                     ... SEGMENTED contraction
Coulomb Range Separation                    ... NOT USED
Exchange Range Separation                   ... NOT USED
Finite Nucleus Model                        ... NOT USED
Auxiliary Coulomb fitting basis             ... AVAILABLE
   # of basis functions in Aux-J            ...    311
   # of shells in Aux-J                     ...    105
   Maximum angular momentum in Aux-J        ...      4
Auxiliary J/K fitting basis                 ... NOT available
Auxiliary Correlation fitting basis         ... NOT available
Auxiliary 'external' fitting basis          ... NOT available
Integral threshold                          ...     2.500000e-11
Primitive cut-off                           ...     2.500000e-12
Primitive pair pre-selection threshold      ...     2.500000e-12

Calculating pre-screening integrals         ... done (  0.1 sec) Dimension = 47
Organizing shell pair data                  ... done (  0.4 sec)
Shell pair information
Total number of shell pairs                 ...      1128
Shell pairs after pre-screening             ...      1103
Total number of primitive shell pairs       ...      4088
Primitive shell pairs kept                  ...      3114
          la=0 lb=0:    503 shell pairs
          la=1 lb=0:    320 shell pairs
          la=1 lb=1:     55 shell pairs
          la=2 lb=0:    160 shell pairs
          la=2 lb=1:     50 shell pairs
          la=2 lb=2:     15 shell pairs

Calculating one electron integrals          ... done (  0.0 sec)
Calculating RI/J V-Matrix + Cholesky decomp.... done (  0.3 sec)
Calculating Nuclear repulsion               ... done (  0.1 sec) ENN=    156.316032130234 Eh

SHARK setup successfully completed in   1.6 seconds

Maximum memory used throughout the entire GTOINT-calculation: 9.8 MB


           ************************************************************
           *        Program running with 4 parallel MPI-processes     *
           *              working on a common directory               *
           ************************************************************
-------------------------------------------------------------------------------
                                 ORCA SCF
-------------------------------------------------------------------------------

------------
SCF SETTINGS
------------
Hamiltonian:
 Density Functional     Method          .... DFT(GTOs)
 Exchange Functional    Exchange        .... PBE
   PBE kappa parameter   XKappa         ....  1.024500
   PBE mue parameter    XMuePBE         ....  0.123457
 Correlation Functional Correlation     .... PBE
   PBE beta parameter  CBetaPBE         ....  0.030000
 LDA part of GGA corr.  LDAOpt          .... PW91-LDA
 Gradients option       PostSCFGGA      .... off
 Hybrid DFT is turned on
   Fraction HF Exchange ScalHFX         ....  0.420000
   Scaling of DF-GGA-X  ScalDFX         ....  0.580000
   Scaling of DF-GGA-C  ScalDFC         ....  1.000000
   Scaling of DF-LDA-C  ScalLDAC        ....  1.000000
   Perturbative correction              ....  0.000000
   Density functional embedding theory  .... OFF
 RI-approximation to the Coulomb term is turned on
   Number of AuxJ basis functions       .... 311
   RIJ-ON(X) (HFX calculated with O(N)) .... on
   Number of AuxJ basis functions       .... 311
   RIJ-COSX (HFX calculated with COS-X)).... on


General Settings:
 Integral files         IntName         .... pbeh-3c
 Hartree-Fock type      HFTyp           .... RHF
 Total Charge           Charge          ....    0
 Multiplicity           Mult            ....    1
 Number of Electrons    NEL             ....   36
 Basis Dimension        Dim             ....   87
 Nuclear Repulsion      ENuc            ....    156.3160321302 Eh

Convergence Acceleration:
 DIIS                   CNVDIIS         .... on
   Start iteration      DIISMaxIt       ....    12
   Startup error        DIISStart       ....  0.200000
   # of expansion vecs  DIISMaxEq       ....     5
   Bias factor          DIISBfac        ....   1.050
   Max. coefficient     DIISMaxC        ....  10.000
 Trust-Rad. Augm. Hess. CNVTRAH         .... auto
   Auto Start mean grad. ratio tolernc. ....  1.125000
   Auto Start start iteration           ....    20
   Auto Start num. interpolation iter.  ....    10
   Max. Number of Micro iterations      ....    16
   Max. Number of Macro iterations      .... Maxiter - #DIIS iter
   Number of Davidson start vectors     ....     2
   Converg. threshold I  (grad. norm)   ....   1.000e-05
   Converg. threshold II (energy diff.) ....   1.000e-08
   Grad. Scal. Fac. for Micro threshold ....   0.100
   Minimum threshold for Micro iter.    ....   0.010
   NR start threshold (gradient norm)   ....   0.001
   Initial trust radius                 ....   0.400
   Minimum AH scaling param. (alpha)    ....   1.000
   Maximum AH scaling param. (alpha)    .... 1000.000
   Orbital update algorithm             .... Taylor
   White noise on init. David. guess    .... on
   Maximum white noise                  ....   0.010
   Quad. conv. algorithm                .... NR
   COSX micro iterations for RIJONX calc.... off
 SOSCF                  CNVSOSCF        .... on
   Start iteration      SOSCFMaxIt      ....   150
   Startup grad/error   SOSCFStart      ....  0.003300
 Level Shifting         CNVShift        .... on
   Level shift para.    LevelShift      ....    0.2500
   Turn off err/grad.   ShiftErr        ....    0.0010
 Zerner damping         CNVZerner       .... off
 Static damping         CNVDamp         .... on
   Fraction old density DampFac         ....    0.7000
   Max. Damping (<1)    DampMax         ....    0.9800
   Min. Damping (>=0)   DampMin         ....    0.0000
   Turn off err/grad.   DampErr         ....    0.1000
 Fernandez-Rico         CNVRico         .... off

SCF Procedure:
 Maximum # iterations   MaxIter         ....   125
 SCF integral mode      SCFMode         .... Direct
   Integral package                     .... SHARK and LIBINT hybrid scheme
 Reset frequency        DirectResetFreq ....    20
 Integral Threshold     Thresh          ....  2.500e-11 Eh
 Primitive CutOff       TCut            ....  2.500e-12 Eh

Convergence Tolerance:
 Convergence Check Mode ConvCheckMode   .... Total+1el-Energy
 Convergence forced     ConvForced      .... 0
 Energy Change          TolE            ....  1.000e-08 Eh
 1-El. energy change                    ....  1.000e-05 Eh
 Orbital Gradient       TolG            ....  1.000e-05
 Orbital Rotation angle TolX            ....  1.000e-05
 DIIS Error             TolErr          ....  5.000e-07


Diagonalization of the overlap matrix:
Smallest eigenvalue                        ... 1.694e-03
Time for diagonalization                   ...    0.003 sec
Threshold for overlap eigenvalues          ... 1.000e-08
Number of eigenvalues below threshold      ... 0
Time for construction of square roots      ...    0.104 sec
Total time needed                          ...    0.107 sec

--------------------------------
INITIAL GUESS: MINIMAL BASIS EHT
--------------------------------
The minimal basis has 31 functions
EHT matrix was diagonalized
Basis set overlap was calculated now projecting the orbitals
Using GuessMode=FMatrix for the initial guess
C*T matrix was formed
Effective Fockian was calculated
Effective Fockian was diagonalized
Initial density was built
                      ------------------
                      INITIAL GUESS DONE
                      ------------------
-------------------
DFT GRID GENERATION
-------------------

General Integration Accuracy     IntAcc      ... 4.959
Radial Grid Type                 RadialGrid  ... OptM3 with GC (2021)
Angular Grid (max. ang.)         AngularGrid ... 6 (Lebedev-590)
Angular grid pruning method      GridPruning ... 4 (adaptive)
Weight generation scheme         WeightScheme... Becke
Basis function cutoff            BFCut       ... 1.0000e-11
Integration weight cutoff        WCut        ... 1.0000e-14
Angular grids for H and He will be reduced by one unit
Partially contracted basis set               ... off
Rotationally invariant grid construction     ... off

Total number of grid points                  ...   124461
Total number of batches                      ...     1951
Average number of points per batch           ...       63
Average number of grid points per atom       ...    11315
Time for grid setup =    2.217 sec

--------------------
COSX GRID GENERATION
--------------------

GRIDX 1
-------
General Integration Accuracy     IntAcc      ... 4.020
Radial Grid Type                 RadialGrid  ... OptM3 with GC (2021)
Angular Grid (max. ang.)         AngularGrid ... 2 (Lebedev-110)
Angular grid pruning method      GridPruning ... 4 (adaptive)
Weight generation scheme         WeightScheme... Becke
Basis function cutoff            BFCut       ... 1.0000e-11
Integration weight cutoff        WCut        ... 1.0000e-14
Angular grids for H and He will be reduced by one unit
Partially contracted basis set               ... on
Rotationally invariant grid construction     ... off

Total number of grid points                  ...    13739
Total number of batches                      ...      220
Average number of points per batch           ...       62
Average number of grid points per atom       ...     1249
UseSFitting                                  ... on

GRIDX 2
-------
General Integration Accuracy     IntAcc      ... 4.338
Radial Grid Type                 RadialGrid  ... OptM3 with GC (2021)
Angular Grid (max. ang.)         AngularGrid ... 3 (Lebedev-194)
Angular grid pruning method      GridPruning ... 4 (adaptive)
Weight generation scheme         WeightScheme... Becke
Basis function cutoff            BFCut       ... 1.0000e-11
Integration weight cutoff        WCut        ... 1.0000e-14
Angular grids for H and He will be reduced by one unit
Partially contracted basis set               ... on
Rotationally invariant grid construction     ... off

Total number of grid points                  ...    30145
Total number of batches                      ...      478
Average number of points per batch           ...       63
Average number of grid points per atom       ...     2740
UseSFitting                                  ... on

GRIDX 3
-------
General Integration Accuracy     IntAcc      ... 4.871
Radial Grid Type                 RadialGrid  ... OptM3 with GC (2021)
Angular Grid (max. ang.)         AngularGrid ... 4 (Lebedev-302)
Angular grid pruning method      GridPruning ... 4 (adaptive)
Weight generation scheme         WeightScheme... Becke
Basis function cutoff            BFCut       ... 1.0000e-11
Integration weight cutoff        WCut        ... 1.0000e-14
Angular grids for H and He will be reduced by one unit
Partially contracted basis set               ... on
Rotationally invariant grid construction     ... off

Total number of grid points                  ...    58434
Total number of batches                      ...      916
Average number of points per batch           ...       63
Average number of grid points per atom       ...     5312
UseSFitting                                  ... on

Time for X-Grid setup             =    3.223 sec

--------------
SCF ITERATIONS
--------------
ITER       Energy         Delta-E        Max-DP      RMS-DP      [F,P]     Damp
               ***  Starting incremental Fock matrix formation  ***
  0   -193.2202340102   0.000000000000 0.10257788  0.00634814  0.4011902 0.7000
  1   -193.3509919115  -0.130757901304 0.07541972  0.00464249  0.2851321 0.7000
  2   -193.4449890050  -0.093997093486 0.05479226  0.00340231  0.2015362 0.7000
                               ***Turning on DIIS***
  3   -193.5120772837  -0.067088278684 0.03970132  0.00249644  0.1421363 0.7000
  4   -193.5598075596  -0.047730275929 0.03014794  0.00193078  0.1000435 0.7000
  5   -193.5936769285  -0.033869368826 0.07301348  0.00476319  0.0700390 0.0000
                      *** Initiating the SOSCF procedure ***
                           *** Shutting down DIIS ***
                      *** Re-Reading the Fockian *** 
                      *** Removing any level shift *** 
ITER      Energy       Delta-E        Grad      Rot      Max-DP    RMS-DP
  6   -193.67453983  -0.0808629000  0.002225  0.002225  0.002270  0.000138
               *** Restarting incremental Fock matrix formation ***
  7   -193.67457242  -0.0000325940  0.000778  0.000921  0.001001  0.000058
  8   -193.67457738  -0.0000049617  0.000120  0.000285  0.000441  0.000019
  9   -193.67457755  -0.0000001642  0.000115  0.000086  0.000178  0.000007
 10   -193.67457769  -0.0000001427  0.000018  0.000043  0.000047  0.000002
 11   -193.67457769   0.0000000034  0.000021  0.000024  0.000023  0.000001
                  ***Gradient check signals convergence***
              ***Rediagonalizing the Fockian in SOSCF/NRSCF***

               *****************************************************
               *                     SUCCESS                       *
               *           SCF CONVERGED AFTER  12 CYCLES          *
               *****************************************************

Old exchange energy                            =    -11.753615449 Eh
New exchange energy                            =    -11.753612828 Eh
Exchange energy change after final integration =      0.000002621 Eh
Total energy after final integration           =   -193.674575073 Eh
Final COS-X integration done in                =     1.582 sec

----------------
TOTAL SCF ENERGY
----------------

Total Energy       :         -193.67457507 Eh           -5270.15312 eV

Components:
Nuclear Repulsion  :          156.31603213 Eh            4253.57548 eV
Electronic Energy  :         -349.99060720 Eh           -9523.72860 eV
One Electron Energy:         -569.21691439 Eh          -15489.17970 eV
Two Electron Energy:          219.22630718 Eh            5965.45110 eV
Max COSX asymmetry :            0.00000054 Eh               0.00001 eV

Virial components:
Potential Energy   :         -385.66030065 Eh          -10494.35030 eV
Kinetic Energy     :          191.98572558 Eh            5224.19719 eV
Virial Ratio       :            2.00879675


DFT components:
N(Alpha)           :       17.999999716577 electrons
N(Beta)            :       17.999999716577 electrons
N(Total)           :       35.999999433153 electrons
E(X)               :      -15.597333368150 Eh       
E(C)               :       -1.536780819187 Eh       
E(XC)              :      -17.134114187337 Eh       
DFET-embed. en.    :        0.000000000000 Eh       

---------------
SCF CONVERGENCE
---------------

  Last Energy change         ...   -5.7138e-09  Tolerance :   1.0000e-08
  Last MAX-Density change    ...    9.0466e-16  Tolerance :   1.0000e-07
  Last RMS-Density change    ...    4.4981e-17  Tolerance :   5.0000e-09
  Last Orbital Gradient      ...    5.0114e-07  Tolerance :   1.0000e-05
  Last Orbital Rotation      ...    1.6259e-06  Tolerance :   1.0000e-05

             **** THE GBW FILE WAS UPDATED (pbeh-3c.gbw) ****
             **** DENSITY pbeh-3c.scfp WAS UPDATED ****
             **** ENERGY FILE WAS UPDATED (pbeh-3c.en.tmp) ****
             **** THE GBW FILE WAS UPDATED (pbeh-3c.gbw) ****
             **** DENSITY pbeh-3c.scfp WAS UPDATED ****
----------------
ORBITAL ENERGIES
----------------

  NO   OCC          E(Eh)            E(eV) 
   0   2.0000     -10.445598      -284.2392 
   1   2.0000     -10.441445      -284.1262 
   2   2.0000     -10.441320      -284.1228 
   3   2.0000     -10.440621      -284.1038 
   4   2.0000     -10.440477      -284.0998 
   5   2.0000      -0.950367       -25.8608 
   6   2.0000      -0.787921       -21.4404 
   7   2.0000      -0.785732       -21.3809 
   8   2.0000      -0.619910       -16.8686 
   9   2.0000      -0.596499       -16.2316 
  10   2.0000      -0.577002       -15.7010 
  11   2.0000      -0.491413       -13.3720 
  12   2.0000      -0.453520       -12.3409 
  13   2.0000      -0.428583       -11.6623 
  14   2.0000      -0.412043       -11.2123 
  15   2.0000      -0.410581       -11.1725 
  16   2.0000      -0.344465        -9.3734 
  17   2.0000      -0.257183        -6.9983 
  18   0.0000       0.007567         0.2059 
  19   0.0000       0.111288         3.0283 
  20   0.0000       0.167649         4.5620 
  21   0.0000       0.192790         5.2461 
  22   0.0000       0.216792         5.8992 
  23   0.0000       0.223515         6.0822 
  24   0.0000       0.226744         6.1700 
  25   0.0000       0.228066         6.2060 
  26   0.0000       0.231996         6.3129 
  27   0.0000       0.250866         6.8264 
  28   0.0000       0.324231         8.8228 
  29   0.0000       0.351986         9.5780 
  30   0.0000       0.460343        12.5266 
  31   0.0000       0.520252        14.1568 
  32   0.0000       0.543020        14.7763 
  33   0.0000       0.587779        15.9943 
  34   0.0000       0.593743        16.1566 
  35   0.0000       0.601747        16.3744 
  36   0.0000       0.638465        17.3735 
  37   0.0000       0.647962        17.6319 
  38   0.0000       0.677327        18.4310 
  39   0.0000       0.680775        18.5248 
  40   0.0000       0.685417        18.6511 
  41   0.0000       0.685802        18.6616 
  42   0.0000       0.760325        20.6895 
  43   0.0000       0.851079        23.1590 
  44   0.0000       0.895707        24.3734 
  45   0.0000       0.917139        24.9566 
  46   0.0000       0.941225        25.6120 
  47   0.0000       0.970833        26.4177 
  48   0.0000       0.984062        26.7777 
  49   0.0000       1.021100        27.7855 
  50   0.0000       1.029679        28.0190 
  51   0.0000       1.086448        29.5638 
  52   0.0000       1.109613        30.1941 
  53   0.0000       1.153882        31.3987 
  54   0.0000       1.193886        32.4873 
  55   0.0000       1.326129        36.0858 
  56   0.0000       1.399901        38.0932 
  57   0.0000       1.433645        39.0115 
  58   0.0000       1.448335        39.4112 
  59   0.0000       1.516439        41.2644 
  60   0.0000       1.594421        43.3864 
  61   0.0000       1.714572        46.6559 
  62   0.0000       1.869796        50.8797 
  63   0.0000       1.921717        52.2926 
  64   0.0000       1.966012        53.4979 
  65   0.0000       2.033975        55.3473 
  66   0.0000       2.067038        56.2470 
  67   0.0000       2.107697        57.3533 
  68   0.0000       2.157904        58.7196 
  69   0.0000       2.200301        59.8732 
  70   0.0000       2.303852        62.6910 
  71   0.0000       2.341017        63.7023 
  72   0.0000       2.346397        63.8487 
  73   0.0000       2.457614        66.8751 
  74   0.0000       2.512803        68.3768 
  75   0.0000       2.565948        69.8230 
  76   0.0000       2.610213        71.0275 
  77   0.0000       2.668691        72.6188 
  78   0.0000       2.731709        74.3336 
  79   0.0000       2.896149        78.8082 
  80   0.0000       2.994826        81.4933 
  81   0.0000       3.080000        83.8111 
  82   0.0000      13.299567       361.8996 
  83   0.0000      13.641204       371.1960 
  84   0.0000      13.855158       377.0180 
  85   0.0000      14.158751       385.2792 
  86   0.0000      14.253553       387.8589 

                    ********************************
                    * MULLIKEN POPULATION ANALYSIS *
                    ********************************

-----------------------
MULLIKEN ATOMIC CHARGES
-----------------------
   0 H :    0.247275
   1 C :   -0.493106
   2 C :   -0.232290
   3 C :   -0.205035
   4 C :   -0.205035
   5 C :   -0.232290
   6 H :    0.247233
   7 H :    0.220538
   8 H :    0.220538
   9 H :    0.216086
  10 H :    0.216086
Sum of atomic charges:   -0.0000000

--------------------------------
MULLIKEN REDUCED ORBITAL CHARGES
--------------------------------
  0 H s       :     0.752725  s :     0.752725
  1 C s       :     3.344597  s :     3.344597
      pz      :     0.929729  p :     3.104358
      px      :     1.038329
      py      :     1.136299
      dz2     :     0.010967  d :     0.044151
      dxz     :     0.010874
      dyz     :     0.006316
      dx2y2   :     0.003333
      dxy     :     0.012661
  2 C s       :     3.263876  s :     3.263876
      pz      :     1.013483  p :     2.929827
      px      :     0.915453
      py      :     1.000891
      dz2     :     0.011673  d :     0.038587
      dxz     :     0.013374
      dyz     :     0.001939
      dx2y2   :     0.004681
      dxy     :     0.006920
  3 C s       :     3.241327  s :     3.241327
      pz      :     0.938791  p :     2.923359
      px      :     0.982841
      py      :     1.001727
      dz2     :     0.010413  d :     0.040349
      dxz     :     0.013466
      dyz     :     0.004879
      dx2y2   :     0.006552
      dxy     :     0.005040
  4 C s       :     3.241326  s :     3.241326
      pz      :     0.938792  p :     2.923360
      px      :     0.982842
      py      :     1.001727
      dz2     :     0.010412  d :     0.040349
      dxz     :     0.013466
      dyz     :     0.004879
      dx2y2   :     0.006552
      dxy     :     0.005040
  5 C s       :     3.263876  s :     3.263876
      pz      :     1.013482  p :     2.929827
      px      :     0.915454
      py      :     1.000891
      dz2     :     0.011673  d :     0.038587
      dxz     :     0.013374
      dyz     :     0.001939
      dx2y2   :     0.004681
      dxy     :     0.006920
  6 H s       :     0.752767  s :     0.752767
  7 H s       :     0.779462  s :     0.779462
  8 H s       :     0.779462  s :     0.779462
  9 H s       :     0.783914  s :     0.783914
 10 H s       :     0.783914  s :     0.783914


                     *******************************
                     * LOEWDIN POPULATION ANALYSIS *
                     *******************************

----------------------
LOEWDIN ATOMIC CHARGES
----------------------
   0 H :    0.154937
   1 C :   -0.237614
   2 C :   -0.152649
   3 C :   -0.149416
   4 C :   -0.149416
   5 C :   -0.152649
   6 H :    0.154900
   7 H :    0.133372
   8 H :    0.133372
   9 H :    0.132581
  10 H :    0.132581

-------------------------------
LOEWDIN REDUCED ORBITAL CHARGES
-------------------------------
  0 H s       :     0.845063  s :     0.845063
  1 C s       :     2.907906  s :     2.907906
      pz      :     1.057453  p :     3.240699
      px      :     1.079073
      py      :     1.104173
      dz2     :     0.022525  d :     0.089009
      dxz     :     0.026654
      dyz     :     0.012208
      dx2y2   :     0.005387
      dxy     :     0.022235
  2 C s       :     2.916972  s :     2.916972
      pz      :     1.063425  p :     3.151382
      px      :     1.082662
      py      :     1.005295
      dz2     :     0.022757  d :     0.084295
      dxz     :     0.033646
      dyz     :     0.003434
      dx2y2   :     0.011548
      dxy     :     0.012910
  3 C s       :     2.912133  s :     2.912133
      pz      :     1.055696  p :     3.148455
      px      :     1.099170
      py      :     0.993589
      dz2     :     0.026162  d :     0.088827
      dxz     :     0.030094
      dyz     :     0.009874
      dx2y2   :     0.014178
      dxy     :     0.008520
  4 C s       :     2.912133  s :     2.912133
      pz      :     1.055696  p :     3.148455
      px      :     1.099170
      py      :     0.993589
      dz2     :     0.026162  d :     0.088827
      dxz     :     0.030094
      dyz     :     0.009874
      dx2y2   :     0.014178
      dxy     :     0.008520
  5 C s       :     2.916972  s :     2.916972
      pz      :     1.063425  p :     3.151382
      px      :     1.082662
      py      :     1.005295
      dz2     :     0.022757  d :     0.084295
      dxz     :     0.033646
      dyz     :     0.003434
      dx2y2   :     0.011548
      dxy     :     0.012910
  6 H s       :     0.845100  s :     0.845100
  7 H s       :     0.866628  s :     0.866628
  8 H s       :     0.866628  s :     0.866628
  9 H s       :     0.867419  s :     0.867419
 10 H s       :     0.867419  s :     0.867419


                      *****************************
                      * MAYER POPULATION ANALYSIS *
                      *****************************

  NA   - Mulliken gross atomic population
  ZA   - Total nuclear charge
  QA   - Mulliken gross atomic charge
  VA   - Mayer's total valence
  BVA  - Mayer's bonded valence
  FA   - Mayer's free valence

  ATOM       NA         ZA         QA         VA         BVA        FA
  0 H      0.7527     1.0000     0.2473     0.8943     0.8943    -0.0000
  1 C      6.4931     6.0000    -0.4931     3.7590     3.7590    -0.0000
  2 C      6.2323     6.0000    -0.2323     3.7760     3.7760    -0.0000
  3 C      6.2050     6.0000    -0.2050     3.8169     3.8169    -0.0000
  4 C      6.2050     6.0000    -0.2050     3.8169     3.8169    -0.0000
  5 C      6.2323     6.0000    -0.2323     3.7760     3.7760    -0.0000
  6 H      0.7528     1.0000     0.2472     0.8943     0.8943    -0.0000
  7 H      0.7795     1.0000     0.2205     0.9224     0.9224    -0.0000
  8 H      0.7795     1.0000     0.2205     0.9224     0.9224    -0.0000
  9 H      0.7839     1.0000     0.2161     0.9179     0.9179    -0.0000
 10 H      0.7839     1.0000     0.2161     0.9179     0.9179     0.0000

  Mayer bond orders larger than 0.100000
B(  0-H ,  1-C ) :   0.8858 B(  1-C ,  2-C ) :   1.0205 B(  1-C ,  5-C ) :   1.0205 
B(  1-C ,  6-H ) :   0.8858 B(  2-C ,  3-C ) :   1.7944 B(  2-C ,  8-H ) :   0.9232 
B(  3-C ,  4-C ) :   1.1200 B(  3-C ,  9-H ) :   0.9212 B(  4-C ,  5-C ) :   1.7944 
B(  4-C , 10-H ) :   0.9212 B(  5-C ,  7-H ) :   0.9232 

-------
TIMINGS
-------

Total SCF time: 0 days 0 hours 0 min 56 sec 

Total time                  ....      56.039 sec
Sum of individual times     ....      49.947 sec  ( 89.1%)

Fock matrix formation       ....      40.897 sec  ( 73.0%)
  Split-RI-J                ....       5.304 sec  ( 13.0% of F)
  Chain of spheres X        ....      12.053 sec  ( 29.5% of F)
  XC integration            ....      12.623 sec  ( 30.9% of F)
    Basis function eval.    ....       1.695 sec  ( 13.4% of XC)
    Density eval.           ....       1.082 sec  (  8.6% of XC)
    XC-Functional eval.     ....       1.025 sec  (  8.1% of XC)
    XC-Potential eval.      ....       0.627 sec  (  5.0% of XC)
Diagonalization             ....       1.001 sec  (  1.8%)
Density matrix formation    ....       0.071 sec  (  0.1%)
Population analysis         ....       0.996 sec  (  1.8%)
Initial guess               ....       0.010 sec  (  0.0%)
Orbital Transformation      ....       0.000 sec  (  0.0%)
Orbital Orthonormalization  ....       0.000 sec  (  0.0%)
DIIS solution               ....       0.867 sec  (  1.5%)
SOSCF solution              ....       0.666 sec  (  1.2%)
Grid generation             ....       5.441 sec  (  9.7%)

Maximum memory used throughout the entire SCF-calculation: 49.3 MB


-------------------------------------------------------------------------------
                          DFT DISPERSION CORRECTION                            
                                                                               
                              DFTD3 V3.1  Rev 1                                
                          USING Becke-Johnson damping                          
-------------------------------------------------------------------------------
The PBEh-3c composite method is recognized
Using three-body term ABC
Active option DFTDOPT                   ...         4   

molecular C6(AA) [au] = 1211.742554 


            DFT-D V3
 parameters
 s6 scaling factor         :     1.0000 
 a1 scaling factor         :     0.4860 
 s8 scaling factor         :     0.0000 
 a2 scaling factor         :     4.5000 
 Damping factor alpha9(ATM):    16.0000 
 ad hoc parameters k1-k3   :    16.0000     1.3333    -4.0000 

 Edisp/kcal,au: -2.940745596484  -0.004686375910 
 E6   /kcal   :  -2.945554105 
 E8   /kcal   :  -0.000000000 
 E6(ABC)      :   0.004808509 
 % E8         :   0.000000000 
 % E6(ABC)    :  -0.163513250 

-------------------------   ----------------
Dispersion correction           -0.004686376
-------------------------   ----------------

------------------   -----------------
gCP correction             0.013847747
------------------   -----------------

-------------------------   --------------------
FINAL SINGLE POINT ENERGY      -193.665413701943
-------------------------   --------------------


                            ***************************************
                            *     ORCA property calculations      *
                            ***************************************

                                    ---------------------
                                    Active property flags
                                    ---------------------
   (+) Dipole Moment


------------------------------------------------------------------------------
                       ORCA ELECTRIC PROPERTIES CALCULATION
------------------------------------------------------------------------------

Dipole Moment Calculation                       ... on
Quadrupole Moment Calculation                   ... off
Polarizability Calculation                      ... off
GBWName                                         ... pbeh-3c.gbw
Electron density                                ... pbeh-3c.scfp
The origin for moment calculation is the CENTER OF MASS  = ( 0.207401, -0.000075 -0.000000)

-------------
DIPOLE MOMENT
-------------
                                X             Y             Z
Electronic contribution:      1.04543      -0.00026      -0.00000
Nuclear contribution   :     -1.23639       0.00045       0.00000
                        -----------------------------------------
Total Dipole Moment    :     -0.19096       0.00018       0.00000
                        -----------------------------------------
Magnitude (a.u.)       :      0.19096
Magnitude (Debye)      :      0.48538



--------------------
Rotational spectrum 
--------------------
 
Rotational constants in cm-1:     0.280775     0.273643     0.142219 
Rotational constants in MHz :  8417.411499  8203.607817  4263.629118 

 Dipole components along the rotational axes: 
x,y,z [a.u.] :     0.000001     0.190961    -0.000183 
x,y,z [Debye]:     0.000002     0.485384    -0.000466 

 

Timings for individual modules:

Sum of individual times         ...       59.347 sec (=   0.989 min)
GTO integral calculation        ...        2.264 sec (=   0.038 min)   3.8 %
SCF iterations                  ...       57.083 sec (=   0.951 min)  96.2 %
                             ****ORCA TERMINATED NORMALLY****
TOTAL RUN TIME: 0 days 0 hours 1 minutes 4 seconds 456 msec
