
                                 *****************
                                 * O   R   C   A *
                                 *****************

                                            #,                                       
                                            ###                                      
                                            ####                                     
                                            #####                                    
                                            ######                                   
                                           ########,                                 
                                     ,,################,,,,,                         
                               ,,#################################,,                 
                          ,,##########################################,,             
                       ,#########################################, ''#####,          
                    ,#############################################,,   '####,        
                  ,##################################################,,,,####,       
                ,###########''''           ''''###############################       
              ,#####''   ,,,,##########,,,,          '''####'''          '####       
            ,##' ,,,,###########################,,,                        '##       
           ' ,,###''''                  '''############,,,                           
         ,,##''                                '''############,,,,        ,,,,,,###''
      ,#''                                            '''#######################'''  
     '                                                          ''''####''''         
             ,#######,   #######,   ,#######,      ##                                
            ,#'     '#,  ##    ##  ,#'     '#,    #''#        ######   ,####,        
            ##       ##  ##   ,#'  ##            #'  '#       #        #'  '#        
            ##       ##  #######   ##           ,######,      #####,   #    #        
            '#,     ,#'  ##    ##  '#,     ,#' ,#      #,         ##   #,  ,#        
             '#######'   ##     ##  '#######'  #'      '#     #####' # '####'        



                  #######################################################
                  #                        -***-                        #
                  #          Department of theory and spectroscopy      #
                  #    Directorship and core code : Frank Neese         #
                  #        Max Planck Institute fuer Kohlenforschung    #
                  #                Kaiser Wilhelm Platz 1               #
                  #                 D-45470 Muelheim/Ruhr               #
                  #                      Germany                        #
                  #                                                     #
                  #                  All rights reserved                #
                  #                        -***-                        #
                  #######################################################


                         Program Version 5.0.3 -  RELEASE  -


 With contributions from (in alphabetic order):
   Daniel Aravena         : Magnetic Suceptibility
   Michael Atanasov       : Ab Initio Ligand Field Theory (pilot matlab implementation)
   Alexander A. Auer      : GIAO ZORA, VPT2 properties, NMR spectrum
   Ute Becker             : Parallelization
   Giovanni Bistoni       : ED, misc. LED, open-shell LED, HFLD
   Martin Brehm           : Molecular dynamics
   Dmytro Bykov           : SCF Hessian
   Vijay G. Chilkuri      : MRCI spin determinant printing, contributions to CSF-ICE
   Dipayan Datta          : RHF DLPNO-CCSD density
   Achintya Kumar Dutta   : EOM-CC, STEOM-CC
   Dmitry Ganyushin       : Spin-Orbit,Spin-Spin,Magnetic field MRCI
   Miquel Garcia          : C-PCM and meta-GGA Hessian, CC/C-PCM, Gaussian charge scheme
   Yang Guo               : DLPNO-NEVPT2, F12-NEVPT2, CIM, IAO-localization
   Andreas Hansen         : Spin unrestricted coupled pair/coupled cluster methods
   Benjamin Helmich-Paris : MC-RPA, TRAH-SCF, COSX integrals
   Lee Huntington         : MR-EOM, pCC
   Robert Izsak           : Overlap fitted RIJCOSX, COSX-SCS-MP3, EOM
   Marcus Kettner         : VPT2
   Christian Kollmar      : KDIIS, OOCD, Brueckner-CCSD(T), CCSD density, CASPT2, CASPT2-K
   Simone Kossmann        : Meta GGA functionals, TD-DFT gradient, OOMP2, MP2 Hessian
   Martin Krupicka        : Initial AUTO-CI
   Lucas Lang             : DCDCAS
   Marvin Lechner         : AUTO-CI (C++ implementation), FIC-MRCC
   Dagmar Lenk            : GEPOL surface, SMD
   Dimitrios Liakos       : Extrapolation schemes; Compound Job, initial MDCI parallelization
   Dimitrios Manganas     : Further ROCIS development; embedding schemes
   Dimitrios Pantazis     : SARC Basis sets
   Anastasios Papadopoulos: AUTO-CI, single reference methods and gradients
   Taras Petrenko         : DFT Hessian,TD-DFT gradient, ASA, ECA, R-Raman, ABS, FL, XAS/XES, NRVS
   Peter Pinski           : DLPNO-MP2, DLPNO-MP2 Gradient
   Christoph Reimann      : Effective Core Potentials
   Marius Retegan         : Local ZFS, SOC
   Christoph Riplinger    : Optimizer, TS searches, QM/MM, DLPNO-CCSD(T), (RO)-DLPNO pert. Triples
   Tobias Risthaus        : Range-separated hybrids, TD-DFT gradient, RPA, STAB
   Michael Roemelt        : Original ROCIS implementation
   Masaaki Saitow         : Open-shell DLPNO-CCSD energy and density
   Barbara Sandhoefer     : DKH picture change effects
   Avijit Sen             : IP-ROCIS
   Kantharuban Sivalingam : CASSCF convergence, NEVPT2, FIC-MRCI
   Bernardo de Souza      : ESD, SOC TD-DFT
   Georgi Stoychev        : AutoAux, RI-MP2 NMR, DLPNO-MP2 response
   Willem Van den Heuvel  : Paramagnetic NMR
   Boris Wezisla          : Elementary symmetry handling
   Frank Wennmohs         : Technical directorship


 We gratefully acknowledge several colleagues who have allowed us to
 interface, adapt or use parts of their codes:
   Stefan Grimme, W. Hujo, H. Kruse, P. Pracht,  : VdW corrections, initial TS optimization,
                  C. Bannwarth, S. Ehlert          DFT functionals, gCP, sTDA/sTD-DF
   Ed Valeev, F. Pavosevic, A. Kumar             : LibInt (2-el integral package), F12 methods
   Garnet Chan, S. Sharma, J. Yang, R. Olivares  : DMRG
   Ulf Ekstrom                                   : XCFun DFT Library
   Mihaly Kallay                                 : mrcc  (arbitrary order and MRCC methods)
   Jiri Pittner, Ondrej Demel                    : Mk-CCSD
   Frank Weinhold                                : gennbo (NPA and NBO analysis)
   Christopher J. Cramer and Donald G. Truhlar   : smd solvation model
   Lars Goerigk                                  : TD-DFT with DH, B97 family of functionals
   V. Asgeirsson, H. Jonsson                     : NEB implementation
   FAccTs GmbH                                   : IRC, NEB, NEB-TS, DLPNO-Multilevel, CI-OPT
                                                   MM, QMMM, 2- and 3-layer-ONIOM, Crystal-QMMM,
                                                   LR-CPCM, SF, NACMEs, symmetry and pop. for TD-DFT,
                                                   nearIR, NL-DFT gradient (VV10), updates on ESD,
                                                   ML-optimized integration grids
   S Lehtola, MJT Oliveira, MAL Marques          : LibXC Library
   Liviu Ungur et al                             : ANISO software


 Your calculation uses the libint2 library for the computation of 2-el integrals
 For citations please refer to: http://libint.valeyev.net

 Your ORCA version has been built with support for libXC version: 5.1.0
 For citations please refer to: https://tddft.org/programs/libxc/

 This ORCA versions uses:
   CBLAS   interface :  Fast vector & matrix operations
   LAPACKE interface :  Fast linear algebra routines
   SCALAPACK package :  Parallel linear algebra routines
   Shared memory     :  Shared parallel matrices
   BLAS/LAPACK       :  OpenBLAS 0.3.15  USE64BITINT DYNAMIC_ARCH NO_AFFINITY Haswell SINGLE_THREADED
        Core in use  :  Haswell
   Copyright (c) 2011-2014, The OpenBLAS Project




***************************************
The coordinates will be read from file: E11.xyz
***************************************


Your calculation utilizes the geometrical counterpoise correction gCP
Please cite in your paper:
H.Kruse, S. Grimme J.Chem.Phys., 136, (2012), 154101 
   

Your calculation utilizes the atom-pairwise dispersion correction
with the Becke-Johnson damping scheme (D3BJ)
Cite in your paper:
S.Grimme, S.Ehrlich, L.Goerigk, J Comput Chem, (2011), 32, 1456–1465 
S.Grimme, J.Antony, S.Ehrlich and H.Krieg, J.Chem.Phys., 132, (2010), 154104 
   

Your calculation employs the composite approach PBEh-3c.
Please cite in your paper:
S. Grimme, J. G. Brandenburg, C. Bannwarth, A. Hansen J.Chem.Phys., 143, (2015), 054107 
   

================================================================================

----- Orbital basis set information -----
Your calculation utilizes the basis: def2-mSVP

----- AuxJ basis set information -----
Your calculation utilizes the auxiliary basis: def2/J
   F. Weigend, Phys. Chem. Chem. Phys. 8, 1057 (2006).

================================================================================
                                        WARNINGS
                       Please study these warnings very carefully!
================================================================================


INFO   : the flag for use of the SHARK integral package has been found!

================================================================================
                                       INPUT FILE
================================================================================
NAME = pbeh-3c.inp
|  1> ! PBEh-3c def2/J TightSCF DefGrid3
|  2> 
|  3> %maxcore 60000
|  4> 
|  5> %pal
|  6> nprocs 4
|  7> end
|  8> 
|  9> *xyzfile 0 1 E11.xyz
| 10> 
| 11>                          ****END OF INPUT****
================================================================================

                       ****************************
                       * Single Point Calculation *
                       ****************************

---------------------------------
CARTESIAN COORDINATES (ANGSTROEM)
---------------------------------
  C     -0.124290    1.431827   -1.357121
  C      0.000000    0.000000   -0.794831
  C      0.000000    0.000000    0.794831
  C     -0.124290   -1.431827    1.357121
  C     -1.177854   -0.823552   -1.357121
  C      1.302144   -0.608275   -1.357121
  C     -1.177854    0.823552    1.357121
  C      1.302144    0.608275    1.357121
  H     -1.095391    1.877015   -1.134855
  H      0.649420    2.097493   -0.969594
  H     -0.018572    1.410699   -2.444932
  H     -1.095391   -1.877015    1.134855
  H      0.649420   -2.097493    0.969594
  H     -0.018572   -1.410699    2.444932
  H     -2.141193   -0.486332   -0.969594
  H     -1.212416   -0.721434   -2.444932
  H     -1.077847   -1.887144   -1.134855
  H      2.173238    0.010129   -1.134855
  H      1.491772   -1.611161   -0.969594
  H      1.230988   -0.689266   -2.444932
  H     -2.141193    0.486332    0.969594
  H     -1.212416    0.721434    2.444932
  H     -1.077847    1.887144    1.134855
  H      2.173238   -0.010129    1.134855
  H      1.491772    1.611161    0.969594
  H      1.230988    0.689266    2.444932

----------------------------
CARTESIAN COORDINATES (A.U.)
----------------------------
  NO LB      ZA    FRAG     MASS         X           Y           Z
   0 C     6.0000    0    12.011   -0.234875    2.705762   -2.564587
   1 C     6.0000    0    12.011    0.000000    0.000000   -1.502013
   2 C     6.0000    0    12.011    0.000000    0.000000    1.502013
   3 C     6.0000    0    12.011   -0.234875   -2.705762    2.564587
   4 C     6.0000    0    12.011   -2.225821   -1.556288   -2.564587
   5 C     6.0000    0    12.011    2.460696   -1.149473   -2.564587
   6 C     6.0000    0    12.011   -2.225821    1.556288    2.564587
   7 C     6.0000    0    12.011    2.460696    1.149473    2.564587
   8 H     1.0000    0     1.008   -2.069990    3.547043   -2.144565
   9 H     1.0000    0     1.008    1.227227    3.963688   -1.832266
  10 H     1.0000    0     1.008   -0.035096    2.665836   -4.620253
  11 H     1.0000    0     1.008   -2.069990   -3.547043    2.144565
  12 H     1.0000    0     1.008    1.227227   -3.963688    1.832266
  13 H     1.0000    0     1.008   -0.035096   -2.665836    4.620253
  14 H     1.0000    0     1.008   -4.046268   -0.919034   -1.832266
  15 H     1.0000    0     1.008   -2.291133   -1.363312   -4.620253
  16 H     1.0000    0     1.008   -2.036835   -3.566185   -2.144565
  17 H     1.0000    0     1.008    4.106824    0.019142   -2.144565
  18 H     1.0000    0     1.008    2.819041   -3.044654   -1.832266
  19 H     1.0000    0     1.008    2.326229   -1.302524   -4.620253
  20 H     1.0000    0     1.008   -4.046268    0.919034    1.832266
  21 H     1.0000    0     1.008   -2.291133    1.363312    4.620253
  22 H     1.0000    0     1.008   -2.036835    3.566185    2.144565
  23 H     1.0000    0     1.008    4.106824   -0.019142    2.144565
  24 H     1.0000    0     1.008    2.819041    3.044654    1.832266
  25 H     1.0000    0     1.008    2.326229    1.302524    4.620253

--------------------------------
INTERNAL COORDINATES (ANGSTROEM)
--------------------------------
 C      0   0   0     0.000000000000     0.00000000     0.00000000
 C      1   0   0     1.543291186898     0.00000000     0.00000000
 C      2   1   0     1.589662400000   111.36724546     0.00000000
 C      3   2   1     1.543291186898   111.36724546   170.07770282
 C      2   1   3     1.543291198701   107.51044570   122.25451208
 C      2   1   3     1.543291193891   107.51044538   237.74548804
 C      3   2   1     1.543291198701   111.36724529    50.07770287
 C      3   2   1     1.543291193891   111.36724536   290.07770240
 H      1   2   3     1.091160227537   112.08524671   293.25345138
 H      1   2   3     1.091749381349   112.28935179    55.08839988
 H      1   2   3     1.093140810993   109.68493007   174.22897237
 H      4   3   2     1.091160227537   112.08524671   293.25345138
 H      4   3   2     1.091749381349   112.28935179    55.08839988
 H      4   3   2     1.093140810993   109.68493007   174.22897237
 H      5   2   1     1.091749348498   112.28934851   292.83388946
 H      5   2   1     1.093140813214   109.68493027    51.97445873
 H      5   2   1     1.091160179870   112.08524621   170.99893942
 H      6   2   1     1.091160198600   112.08524875    55.50796495
 H      6   2   1     1.091749422417   112.28934918   177.34291505
 H      6   2   1     1.093140810831   109.68493129   296.48348402
 H      7   3   2     1.091749348498   112.28934851    55.08840165
 H      7   3   2     1.093140813214   109.68493027   174.22897093
 H      7   3   2     1.091160179870   112.08524621   293.25345161
 H      8   3   2     1.091160198600   112.08524875   293.25345293
 H      8   3   2     1.091749422417   112.28934918    55.08840303
 H      8   3   2     1.093140810831   109.68493129   174.22897200

---------------------------
INTERNAL COORDINATES (A.U.)
---------------------------
 C      0   0   0     0.000000000000     0.00000000     0.00000000
 C      1   0   0     2.916397688131     0.00000000     0.00000000
 C      2   1   0     3.004026581392   111.36724546     0.00000000
 C      3   2   1     2.916397688131   111.36724546   170.07770282
 C      2   1   3     2.916397710436   107.51044570   122.25451208
 C      2   1   3     2.916397701347   107.51044538   237.74548804
 C      3   2   1     2.916397710436   111.36724529    50.07770287
 C      3   2   1     2.916397701347   111.36724536   290.07770240
 H      1   2   3     2.061993998272   112.08524671   293.25345138
 H      1   2   3     2.063107337627   112.28935179    55.08839988
 H      1   2   3     2.065736758590   109.68493007   174.22897237
 H      4   3   2     2.061993998272   112.08524671   293.25345138
 H      4   3   2     2.063107337627   112.28935179    55.08839988
 H      4   3   2     2.065736758590   109.68493007   174.22897237
 H      5   2   1     2.063107275548   112.28934851   292.83388946
 H      5   2   1     2.065736762787   109.68493027    51.97445873
 H      5   2   1     2.061993908194   112.08524621   170.99893942
 H      6   2   1     2.061993943589   112.08524875    55.50796495
 H      6   2   1     2.063107415236   112.28934918   177.34291505
 H      6   2   1     2.065736758284   109.68493129   296.48348402
 H      7   3   2     2.063107275548   112.28934851    55.08840165
 H      7   3   2     2.065736762787   109.68493027   174.22897093
 H      7   3   2     2.061993908194   112.08524621   293.25345161
 H      8   3   2     2.061993943589   112.08524875   293.25345293
 H      8   3   2     2.063107415236   112.28934918    55.08840303
 H      8   3   2     2.065736758284   109.68493129   174.22897200

---------------------
BASIS SET INFORMATION
---------------------
There are 2 groups of distinct atoms

 Group   1 Type C   : 8s4p1d contracted to 4s2p1d pattern {5111/31/1}
 Group   2 Type H   : 4s contracted to 2s pattern {31}

Atom   0C    basis set group =>   1
Atom   1C    basis set group =>   1
Atom   2C    basis set group =>   1
Atom   3C    basis set group =>   1
Atom   4C    basis set group =>   1
Atom   5C    basis set group =>   1
Atom   6C    basis set group =>   1
Atom   7C    basis set group =>   1
Atom   8H    basis set group =>   2
Atom   9H    basis set group =>   2
Atom  10H    basis set group =>   2
Atom  11H    basis set group =>   2
Atom  12H    basis set group =>   2
Atom  13H    basis set group =>   2
Atom  14H    basis set group =>   2
Atom  15H    basis set group =>   2
Atom  16H    basis set group =>   2
Atom  17H    basis set group =>   2
Atom  18H    basis set group =>   2
Atom  19H    basis set group =>   2
Atom  20H    basis set group =>   2
Atom  21H    basis set group =>   2
Atom  22H    basis set group =>   2
Atom  23H    basis set group =>   2
Atom  24H    basis set group =>   2
Atom  25H    basis set group =>   2
---------------------------------
AUXILIARY/J BASIS SET INFORMATION
---------------------------------
There are 2 groups of distinct atoms

 Group   1 Type C   : 12s5p4d2f1g contracted to 6s4p3d1f1g pattern {711111/2111/211/2/1}
 Group   2 Type H   : 5s2p1d contracted to 3s1p1d pattern {311/2/1}

Atom   0C    basis set group =>   1
Atom   1C    basis set group =>   1
Atom   2C    basis set group =>   1
Atom   3C    basis set group =>   1
Atom   4C    basis set group =>   1
Atom   5C    basis set group =>   1
Atom   6C    basis set group =>   1
Atom   7C    basis set group =>   1
Atom   8H    basis set group =>   2
Atom   9H    basis set group =>   2
Atom  10H    basis set group =>   2
Atom  11H    basis set group =>   2
Atom  12H    basis set group =>   2
Atom  13H    basis set group =>   2
Atom  14H    basis set group =>   2
Atom  15H    basis set group =>   2
Atom  16H    basis set group =>   2
Atom  17H    basis set group =>   2
Atom  18H    basis set group =>   2
Atom  19H    basis set group =>   2
Atom  20H    basis set group =>   2
Atom  21H    basis set group =>   2
Atom  22H    basis set group =>   2
Atom  23H    basis set group =>   2
Atom  24H    basis set group =>   2
Atom  25H    basis set group =>   2


           ************************************************************
           *        Program running with 4 parallel MPI-processes     *
           *              working on a common directory               *
           ************************************************************
------------------------------------------------------------------------------
                           ORCA GTO INTEGRAL CALCULATION
                           -- RI-GTO INTEGRALS CHOSEN --
------------------------------------------------------------------------------
------------------------------------------------------------------------------
                   ___                                                        
                  /   \      - P O W E R E D   B Y -                         
                 /     \                                                     
                 |  |  |   _    _      __       _____    __    __             
                 |  |  |  | |  | |    /  \     |  _  \  |  |  /  |          
                  \  \/   | |  | |   /    \    | | | |  |  | /  /          
                 / \  \   | |__| |  /  /\  \   | |_| |  |  |/  /          
                |  |  |   |  __  | /  /__\  \  |    /   |      \           
                |  |  |   | |  | | |   __   |  |    \   |  |\   \          
                \     /   | |  | | |  |  |  |  | |\  \  |  | \   \       
                 \___/    |_|  |_| |__|  |__|  |_| \__\ |__|  \__/        
                                                                              
                      - O R C A' S   B I G   F R I E N D -                    
                                      &                                       
                       - I N T E G R A L  F E E D E R -                       
                                                                              
 v1 FN, 2020, v2 2021                                                         
------------------------------------------------------------------------------


Reading SHARK input file pbeh-3c.SHARKINP.tmp ... ok
----------------------
SHARK INTEGRAL PACKAGE
----------------------

Number of atoms                             ...     26
Number of basis functions                   ...    156
Number of shells                            ...     92
Maximum angular momentum                    ...      2
Integral batch strategy                     ... SHARK/LIBINT Hybrid
RI-J (if used) integral strategy            ... SPLIT-RIJ (Revised 2003 algorithm where possible)
Printlevel                                  ...      1
Contraction scheme used                     ... SEGMENTED contraction
Coulomb Range Separation                    ... NOT USED
Exchange Range Separation                   ... NOT USED
Finite Nucleus Model                        ... NOT USED
Auxiliary Coulomb fitting basis             ... AVAILABLE
   # of basis functions in Aux-J            ...    590
   # of shells in Aux-J                     ...    210
   Maximum angular momentum in Aux-J        ...      4
Auxiliary J/K fitting basis                 ... NOT available
Auxiliary Correlation fitting basis         ... NOT available
Auxiliary 'external' fitting basis          ... NOT available
Integral threshold                          ...     2.500000e-11
Primitive cut-off                           ...     2.500000e-12
Primitive pair pre-selection threshold      ...     2.500000e-12

Calculating pre-screening integrals         ... done (  0.1 sec) Dimension = 92
Organizing shell pair data                  ... done (  0.2 sec)
Shell pair information
Total number of shell pairs                 ...      4278
Shell pairs after pre-screening             ...      4040
Total number of primitive shell pairs       ...     15734
Primitive shell pairs kept                  ...     10451
          la=0 lb=0:   2126 shell pairs
          la=1 lb=0:   1082 shell pairs
          la=1 lb=1:    136 shell pairs
          la=2 lb=0:    532 shell pairs
          la=2 lb=1:    128 shell pairs
          la=2 lb=2:     36 shell pairs

Calculating one electron integrals          ... done (  0.0 sec)
Calculating RI/J V-Matrix + Cholesky decomp.... done (  0.4 sec)
Calculating Nuclear repulsion               ... done (  0.0 sec) ENN=    436.251129419223 Eh

SHARK setup successfully completed in   1.4 seconds

Maximum memory used throughout the entire GTOINT-calculation: 12.6 MB


           ************************************************************
           *        Program running with 4 parallel MPI-processes     *
           *              working on a common directory               *
           ************************************************************
-------------------------------------------------------------------------------
                                 ORCA SCF
-------------------------------------------------------------------------------

------------
SCF SETTINGS
------------
Hamiltonian:
 Density Functional     Method          .... DFT(GTOs)
 Exchange Functional    Exchange        .... PBE
   PBE kappa parameter   XKappa         ....  1.024500
   PBE mue parameter    XMuePBE         ....  0.123457
 Correlation Functional Correlation     .... PBE
   PBE beta parameter  CBetaPBE         ....  0.030000
 LDA part of GGA corr.  LDAOpt          .... PW91-LDA
 Gradients option       PostSCFGGA      .... off
 Hybrid DFT is turned on
   Fraction HF Exchange ScalHFX         ....  0.420000
   Scaling of DF-GGA-X  ScalDFX         ....  0.580000
   Scaling of DF-GGA-C  ScalDFC         ....  1.000000
   Scaling of DF-LDA-C  ScalLDAC        ....  1.000000
   Perturbative correction              ....  0.000000
   Density functional embedding theory  .... OFF
 RI-approximation to the Coulomb term is turned on
   Number of AuxJ basis functions       .... 590
   RIJ-ON(X) (HFX calculated with O(N)) .... on
   Number of AuxJ basis functions       .... 590
   RIJ-COSX (HFX calculated with COS-X)).... on


General Settings:
 Integral files         IntName         .... pbeh-3c
 Hartree-Fock type      HFTyp           .... RHF
 Total Charge           Charge          ....    0
 Multiplicity           Mult            ....    1
 Number of Electrons    NEL             ....   66
 Basis Dimension        Dim             ....  156
 Nuclear Repulsion      ENuc            ....    436.2511294192 Eh

Convergence Acceleration:
 DIIS                   CNVDIIS         .... on
   Start iteration      DIISMaxIt       ....    12
   Startup error        DIISStart       ....  0.200000
   # of expansion vecs  DIISMaxEq       ....     5
   Bias factor          DIISBfac        ....   1.050
   Max. coefficient     DIISMaxC        ....  10.000
 Trust-Rad. Augm. Hess. CNVTRAH         .... auto
   Auto Start mean grad. ratio tolernc. ....  1.125000
   Auto Start start iteration           ....    20
   Auto Start num. interpolation iter.  ....    10
   Max. Number of Micro iterations      ....    16
   Max. Number of Macro iterations      .... Maxiter - #DIIS iter
   Number of Davidson start vectors     ....     2
   Converg. threshold I  (grad. norm)   ....   1.000e-05
   Converg. threshold II (energy diff.) ....   1.000e-08
   Grad. Scal. Fac. for Micro threshold ....   0.100
   Minimum threshold for Micro iter.    ....   0.010
   NR start threshold (gradient norm)   ....   0.001
   Initial trust radius                 ....   0.400
   Minimum AH scaling param. (alpha)    ....   1.000
   Maximum AH scaling param. (alpha)    .... 1000.000
   Orbital update algorithm             .... Taylor
   White noise on init. David. guess    .... on
   Maximum white noise                  ....   0.010
   Quad. conv. algorithm                .... NR
   COSX micro iterations for RIJONX calc.... off
 SOSCF                  CNVSOSCF        .... on
   Start iteration      SOSCFMaxIt      ....   150
   Startup grad/error   SOSCFStart      ....  0.003300
 Level Shifting         CNVShift        .... on
   Level shift para.    LevelShift      ....    0.2500
   Turn off err/grad.   ShiftErr        ....    0.0010
 Zerner damping         CNVZerner       .... off
 Static damping         CNVDamp         .... on
   Fraction old density DampFac         ....    0.7000
   Max. Damping (<1)    DampMax         ....    0.9800
   Min. Damping (>=0)   DampMin         ....    0.0000
   Turn off err/grad.   DampErr         ....    0.1000
 Fernandez-Rico         CNVRico         .... off

SCF Procedure:
 Maximum # iterations   MaxIter         ....   125
 SCF integral mode      SCFMode         .... Direct
   Integral package                     .... SHARK and LIBINT hybrid scheme
 Reset frequency        DirectResetFreq ....    20
 Integral Threshold     Thresh          ....  2.500e-11 Eh
 Primitive CutOff       TCut            ....  2.500e-12 Eh

Convergence Tolerance:
 Convergence Check Mode ConvCheckMode   .... Total+1el-Energy
 Convergence forced     ConvForced      .... 0
 Energy Change          TolE            ....  1.000e-08 Eh
 1-El. energy change                    ....  1.000e-05 Eh
 Orbital Gradient       TolG            ....  1.000e-05
 Orbital Rotation angle TolX            ....  1.000e-05
 DIIS Error             TolErr          ....  5.000e-07


Diagonalization of the overlap matrix:
Smallest eigenvalue                        ... 4.538e-03
Time for diagonalization                   ...    0.006 sec
Threshold for overlap eigenvalues          ... 1.000e-08
Number of eigenvalues below threshold      ... 0
Time for construction of square roots      ...    0.221 sec
Total time needed                          ...    0.228 sec

--------------------------------
INITIAL GUESS: MINIMAL BASIS EHT
--------------------------------
The minimal basis has 58 functions
EHT matrix was diagonalized
Basis set overlap was calculated now projecting the orbitals
Using GuessMode=FMatrix for the initial guess
C*T matrix was formed
Effective Fockian was calculated
Effective Fockian was diagonalized
Initial density was built
                      ------------------
                      INITIAL GUESS DONE
                      ------------------
-------------------
DFT GRID GENERATION
-------------------

General Integration Accuracy     IntAcc      ... 4.959
Radial Grid Type                 RadialGrid  ... OptM3 with GC (2021)
Angular Grid (max. ang.)         AngularGrid ... 6 (Lebedev-590)
Angular grid pruning method      GridPruning ... 4 (adaptive)
Weight generation scheme         WeightScheme... Becke
Basis function cutoff            BFCut       ... 1.0000e-11
Integration weight cutoff        WCut        ... 1.0000e-14
Angular grids for H and He will be reduced by one unit
Partially contracted basis set               ... off
Rotationally invariant grid construction     ... off

Total number of grid points                  ...   266058
Total number of batches                      ...     4168
Average number of points per batch           ...       63
Average number of grid points per atom       ...    10233
Time for grid setup =    5.478 sec

--------------------
COSX GRID GENERATION
--------------------

GRIDX 1
-------
General Integration Accuracy     IntAcc      ... 4.020
Radial Grid Type                 RadialGrid  ... OptM3 with GC (2021)
Angular Grid (max. ang.)         AngularGrid ... 2 (Lebedev-110)
Angular grid pruning method      GridPruning ... 4 (adaptive)
Weight generation scheme         WeightScheme... Becke
Basis function cutoff            BFCut       ... 1.0000e-11
Integration weight cutoff        WCut        ... 1.0000e-14
Angular grids for H and He will be reduced by one unit
Partially contracted basis set               ... on
Rotationally invariant grid construction     ... off

Total number of grid points                  ...    27168
Total number of batches                      ...      432
Average number of points per batch           ...       62
Average number of grid points per atom       ...     1045
UseSFitting                                  ... on

GRIDX 2
-------
General Integration Accuracy     IntAcc      ... 4.338
Radial Grid Type                 RadialGrid  ... OptM3 with GC (2021)
Angular Grid (max. ang.)         AngularGrid ... 3 (Lebedev-194)
Angular grid pruning method      GridPruning ... 4 (adaptive)
Weight generation scheme         WeightScheme... Becke
Basis function cutoff            BFCut       ... 1.0000e-11
Integration weight cutoff        WCut        ... 1.0000e-14
Angular grids for H and He will be reduced by one unit
Partially contracted basis set               ... on
Rotationally invariant grid construction     ... off

Total number of grid points                  ...    59018
Total number of batches                      ...      936
Average number of points per batch           ...       63
Average number of grid points per atom       ...     2270
UseSFitting                                  ... on

GRIDX 3
-------
General Integration Accuracy     IntAcc      ... 4.871
Radial Grid Type                 RadialGrid  ... OptM3 with GC (2021)
Angular Grid (max. ang.)         AngularGrid ... 4 (Lebedev-302)
Angular grid pruning method      GridPruning ... 4 (adaptive)
Weight generation scheme         WeightScheme... Becke
Basis function cutoff            BFCut       ... 1.0000e-11
Integration weight cutoff        WCut        ... 1.0000e-14
Angular grids for H and He will be reduced by one unit
Partially contracted basis set               ... on
Rotationally invariant grid construction     ... off

Total number of grid points                  ...   117858
Total number of batches                      ...     1854
Average number of points per batch           ...       63
Average number of grid points per atom       ...     4533
UseSFitting                                  ... on

Time for X-Grid setup             =    5.140 sec

--------------
SCF ITERATIONS
--------------
ITER       Energy         Delta-E        Max-DP      RMS-DP      [F,P]     Damp
               ***  Starting incremental Fock matrix formation  ***
  0   -314.4734826685   0.000000000000 0.05295621  0.00210889  0.3971866 0.7000
  1   -314.6381481797  -0.164665511221 0.03751065  0.00161911  0.2813468 0.7000
                               ***Turning on DIIS***
  2   -314.7558982975  -0.117750117811 0.02789226  0.00122263  0.1983794 0.7000
  3   -314.8393460027  -0.083447705197 0.02325572  0.00097176  0.1397698 0.7000
  4   -314.8983486492  -0.059002646440 0.05732186  0.00244808  0.0979296 0.0000
                      *** Initiating the SOSCF procedure ***
                           *** Shutting down DIIS ***
                      *** Re-Reading the Fockian *** 
                      *** Removing any level shift *** 
ITER      Energy       Delta-E        Grad      Rot      Max-DP    RMS-DP
  5   -315.03822980  -0.1398811490  0.000621  0.000621  0.002501  0.000149
               *** Restarting incremental Fock matrix formation ***
  6   -315.03824849  -0.0000186941  0.000243  0.000370  0.000816  0.000045
  7   -315.03824925  -0.0000007591  0.000245  0.000183  0.000392  0.000018
  8   -315.03825206  -0.0000028040  0.000029  0.000026  0.000072  0.000003
  9   -315.03825205   0.0000000081  0.000031  0.000014  0.000035  0.000001
                  ***Gradient check signals convergence***
              ***Rediagonalizing the Fockian in SOSCF/NRSCF***

               *****************************************************
               *                     SUCCESS                       *
               *           SCF CONVERGED AFTER  10 CYCLES          *
               *****************************************************

Old exchange energy                            =    -20.102142941 Eh
New exchange energy                            =    -20.102137793 Eh
Exchange energy change after final integration =      0.000005148 Eh
Total energy after final integration           =   -315.038246914 Eh
Final COS-X integration done in                =     7.212 sec

----------------
TOTAL SCF ENERGY
----------------

Total Energy       :         -315.03824691 Eh           -8572.62652 eV

Components:
Nuclear Repulsion  :          436.25112942 Eh           11870.99674 eV
Electronic Energy  :         -751.28937633 Eh          -20443.62326 eV
One Electron Energy:        -1288.34234663 Eh          -35057.57754 eV
Two Electron Energy:          537.05297029 Eh           14613.95428 eV
Max COSX asymmetry :            0.00000100 Eh               0.00003 eV

Virial components:
Potential Energy   :         -627.17377675 Eh          -17066.26610 eV
Kinetic Energy     :          312.13552983 Eh            8493.63958 eV
Virial Ratio       :            2.00929954


DFT components:
N(Alpha)           :       33.000009489534 electrons
N(Beta)            :       33.000009489534 electrons
N(Total)           :       66.000018979069 electrons
E(X)               :      -26.617466391361 Eh       
E(C)               :       -2.794018656197 Eh       
E(XC)              :      -29.411485047558 Eh       
DFET-embed. en.    :        0.000000000000 Eh       

---------------
SCF CONVERGENCE
---------------

  Last Energy change         ...   -1.5381e-08  Tolerance :   1.0000e-08
  Last MAX-Density change    ...    1.2212e-15  Tolerance :   1.0000e-07
  Last RMS-Density change    ...    3.6471e-17  Tolerance :   5.0000e-09
  Last Orbital Gradient      ...    2.9928e-07  Tolerance :   1.0000e-05
  Last Orbital Rotation      ...    5.8856e-07  Tolerance :   1.0000e-05

             **** THE GBW FILE WAS UPDATED (pbeh-3c.gbw) ****
             **** DENSITY pbeh-3c.scfp WAS UPDATED ****
             **** ENERGY FILE WAS UPDATED (pbeh-3c.en.tmp) ****
             **** THE GBW FILE WAS UPDATED (pbeh-3c.gbw) ****
             **** DENSITY pbeh-3c.scfp WAS UPDATED ****
----------------
ORBITAL ENERGIES
----------------

  NO   OCC          E(Eh)            E(eV) 
   0   2.0000     -10.451860      -284.4096 
   1   2.0000     -10.451697      -284.4051 
   2   2.0000     -10.417974      -283.4875 
   3   2.0000     -10.417973      -283.4875 
   4   2.0000     -10.417947      -283.4867 
   5   2.0000     -10.417946      -283.4867 
   6   2.0000     -10.417906      -283.4856 
   7   2.0000     -10.417847      -283.4840 
   8   2.0000      -0.925710       -25.1899 
   9   2.0000      -0.853469       -23.2241 
  10   2.0000      -0.771305       -20.9883 
  11   2.0000      -0.771305       -20.9883 
  12   2.0000      -0.744944       -20.2709 
  13   2.0000      -0.744942       -20.2709 
  14   2.0000      -0.657422       -17.8894 
  15   2.0000      -0.565862       -15.3979 
  16   2.0000      -0.534299       -14.5390 
  17   2.0000      -0.497614       -13.5408 
  18   2.0000      -0.497609       -13.5406 
  19   2.0000      -0.485287       -13.2053 
  20   2.0000      -0.485284       -13.2053 
  21   2.0000      -0.450314       -12.2537 
  22   2.0000      -0.432084       -11.7576 
  23   2.0000      -0.432083       -11.7576 
  24   2.0000      -0.423450       -11.5227 
  25   2.0000      -0.412280       -11.2187 
  26   2.0000      -0.412278       -11.2186 
  27   2.0000      -0.398333       -10.8392 
  28   2.0000      -0.388515       -10.5720 
  29   2.0000      -0.388513       -10.5720 
  30   2.0000      -0.347962        -9.4685 
  31   2.0000      -0.347960        -9.4685 
  32   2.0000      -0.340419        -9.2633 
  33   0.0000       0.112012         3.0480 
  34   0.0000       0.165945         4.5156 
  35   0.0000       0.169966         4.6250 
  36   0.0000       0.169967         4.6250 
  37   0.0000       0.179593         4.8870 
  38   0.0000       0.185938         5.0596 
  39   0.0000       0.189099         5.1456 
  40   0.0000       0.189104         5.1458 
  41   0.0000       0.213877         5.8199 
  42   0.0000       0.213877         5.8199 
  43   0.0000       0.237730         6.4690 
  44   0.0000       0.237730         6.4690 
  45   0.0000       0.240629         6.5478 
  46   0.0000       0.245586         6.6827 
  47   0.0000       0.245590         6.6828 
  48   0.0000       0.248681         6.7670 
  49   0.0000       0.256513         6.9801 
  50   0.0000       0.266330         7.2472 
  51   0.0000       0.276178         7.5152 
  52   0.0000       0.276178         7.5152 
  53   0.0000       0.300048         8.1647 
  54   0.0000       0.300050         8.1648 
  55   0.0000       0.311450         8.4750 
  56   0.0000       0.311452         8.4750 
  57   0.0000       0.370727        10.0880 
  58   0.0000       0.503833        13.7100 
  59   0.0000       0.503853        13.7105 
  60   0.0000       0.514749        14.0070 
  61   0.0000       0.514753        14.0072 
  62   0.0000       0.517753        14.0888 
  63   0.0000       0.570570        15.5260 
  64   0.0000       0.570577        15.5262 
  65   0.0000       0.618532        16.8311 
  66   0.0000       0.626053        17.0358 
  67   0.0000       0.632982        17.2243 
  68   0.0000       0.632990        17.2245 
  69   0.0000       0.657399        17.8887 
  70   0.0000       0.681509        18.5448 
  71   0.0000       0.681517        18.5450 
  72   0.0000       0.729263        19.8443 
  73   0.0000       0.729275        19.8446 
  74   0.0000       0.731187        19.8966 
  75   0.0000       0.808960        22.0129 
  76   0.0000       0.834308        22.7027 
  77   0.0000       0.837764        22.7967 
  78   0.0000       0.854279        23.2461 
  79   0.0000       0.854290        23.2464 
  80   0.0000       0.941014        25.6063 
  81   0.0000       0.985566        26.8186 
  82   0.0000       0.985566        26.8186 
  83   0.0000       1.013813        27.5873 
  84   0.0000       1.024958        27.8905 
  85   0.0000       1.024963        27.8907 
  86   0.0000       1.028203        27.9788 
  87   0.0000       1.037014        28.2186 
  88   0.0000       1.041109        28.3300 
  89   0.0000       1.041114        28.3302 
  90   0.0000       1.074190        29.2302 
  91   0.0000       1.080064        29.3900 
  92   0.0000       1.080064        29.3900 
  93   0.0000       1.086201        29.5570 
  94   0.0000       1.112752        30.2795 
  95   0.0000       1.112761        30.2798 
  96   0.0000       1.128151        30.6985 
  97   0.0000       1.128154        30.6986 
  98   0.0000       1.129718        30.7412 
  99   0.0000       1.179322        32.0910 
 100   0.0000       1.179325        32.0911 
 101   0.0000       1.321122        35.9496 
 102   0.0000       1.399828        38.0913 
 103   0.0000       1.399844        38.0917 
 104   0.0000       1.438233        39.1363 
 105   0.0000       1.438234        39.1363 
 106   0.0000       1.524067        41.4720 
 107   0.0000       1.582519        43.0625 
 108   0.0000       1.604610        43.6637 
 109   0.0000       1.604613        43.6637 
 110   0.0000       1.648417        44.8557 
 111   0.0000       1.648417        44.8557 
 112   0.0000       1.785687        48.5910 
 113   0.0000       1.824295        49.6416 
 114   0.0000       1.835889        49.9571 
 115   0.0000       1.913379        52.0657 
 116   0.0000       1.913384        52.0658 
 117   0.0000       1.928570        52.4791 
 118   0.0000       1.928576        52.4792 
 119   0.0000       1.995450        54.2990 
 120   0.0000       1.995457        54.2991 
 121   0.0000       2.078427        56.5569 
 122   0.0000       2.078428        56.5569 
 123   0.0000       2.116278        57.5869 
 124   0.0000       2.163349        58.8677 
 125   0.0000       2.176117        59.2152 
 126   0.0000       2.176118        59.2152 
 127   0.0000       2.192693        59.6662 
 128   0.0000       2.192695        59.6663 
 129   0.0000       2.233994        60.7901 
 130   0.0000       2.333528        63.4985 
 131   0.0000       2.341785        63.7232 
 132   0.0000       2.352599        64.0175 
 133   0.0000       2.352602        64.0176 
 134   0.0000       2.370229        64.4972 
 135   0.0000       2.372235        64.5518 
 136   0.0000       2.372235        64.5518 
 137   0.0000       2.381006        64.7905 
 138   0.0000       2.436476        66.2999 
 139   0.0000       2.545376        69.2632 
 140   0.0000       2.545377        69.2632 
 141   0.0000       2.636049        71.7305 
 142   0.0000       2.636050        71.7306 
 143   0.0000       2.790628        75.9368 
 144   0.0000       2.790630        75.9369 
 145   0.0000       2.821561        76.7786 
 146   0.0000       2.825820        76.8945 
 147   0.0000       2.825823        76.8946 
 148   0.0000      13.502661       367.4261 
 149   0.0000      13.744807       374.0152 
 150   0.0000      13.866055       377.3145 
 151   0.0000      13.866057       377.3146 
 152   0.0000      13.939519       379.3136 
 153   0.0000      13.939524       379.3137 
 154   0.0000      14.110739       383.9727 
 155   0.0000      14.157672       385.2498 

                    ********************************
                    * MULLIKEN POPULATION ANALYSIS *
                    ********************************

-----------------------
MULLIKEN ATOMIC CHARGES
-----------------------
   0 C :   -0.633498
   1 C :   -0.049431
   2 C :   -0.049431
   3 C :   -0.633498
   4 C :   -0.633538
   5 C :   -0.633521
   6 C :   -0.633538
   7 C :   -0.633521
   8 H :    0.220186
   9 H :    0.214339
  10 H :    0.215474
  11 H :    0.220186
  12 H :    0.214339
  13 H :    0.215474
  14 H :    0.214326
  15 H :    0.215469
  16 H :    0.220203
  17 H :    0.220200
  18 H :    0.214313
  19 H :    0.215478
  20 H :    0.214326
  21 H :    0.215469
  22 H :    0.220202
  23 H :    0.220200
  24 H :    0.214313
  25 H :    0.215478
Sum of atomic charges:    0.0000000

--------------------------------
MULLIKEN REDUCED ORBITAL CHARGES
--------------------------------
  0 C s       :     3.379865  s :     3.379865
      pz      :     1.105466  p :     3.216870
      px      :     1.128875
      py      :     0.982530
      dz2     :     0.012536  d :     0.036763
      dxz     :     0.002536
      dyz     :     0.004580
      dx2y2   :     0.005837
      dxy     :     0.011274
  1 C s       :     3.249992  s :     3.249992
      pz      :     0.925507  p :     2.747957
      px      :     0.911218
      py      :     0.911232
      dz2     :     0.012594  d :     0.051482
      dxz     :     0.008689
      dyz     :     0.008689
      dx2y2   :     0.010755
      dxy     :     0.010755
  2 C s       :     3.249992  s :     3.249992
      pz      :     0.925507  p :     2.747957
      px      :     0.911218
      py      :     0.911232
      dz2     :     0.012594  d :     0.051482
      dxz     :     0.008689
      dyz     :     0.008689
      dx2y2   :     0.010755
      dxy     :     0.010755
  3 C s       :     3.379865  s :     3.379865
      pz      :     1.105466  p :     3.216870
      px      :     1.128875
      py      :     0.982530
      dz2     :     0.012536  d :     0.036763
      dxz     :     0.002536
      dyz     :     0.004580
      dx2y2   :     0.005837
      dxy     :     0.011274
  4 C s       :     3.379863  s :     3.379863
      pz      :     1.105474  p :     3.216912
      px      :     1.028646
      py      :     1.082792
      dz2     :     0.012536  d :     0.036763
      dxz     :     0.004645
      dyz     :     0.002471
      dx2y2   :     0.011812
      dxy     :     0.005299
  5 C s       :     3.379851  s :     3.379851
      pz      :     1.105482  p :     3.216906
      px      :     1.009610
      py      :     1.101814
      dz2     :     0.012536  d :     0.036764
      dxz     :     0.003493
      dyz     :     0.003623
      dx2y2   :     0.008017
      dxy     :     0.009094
  6 C s       :     3.379863  s :     3.379863
      pz      :     1.105474  p :     3.216912
      px      :     1.028646
      py      :     1.082792
      dz2     :     0.012536  d :     0.036763
      dxz     :     0.004645
      dyz     :     0.002471
      dx2y2   :     0.011812
      dxy     :     0.005299
  7 C s       :     3.379851  s :     3.379851
      pz      :     1.105482  p :     3.216906
      px      :     1.009610
      py      :     1.101814
      dz2     :     0.012536  d :     0.036764
      dxz     :     0.003493
      dyz     :     0.003623
      dx2y2   :     0.008017
      dxy     :     0.009094
  8 H s       :     0.779814  s :     0.779814
  9 H s       :     0.785661  s :     0.785661
 10 H s       :     0.784526  s :     0.784526
 11 H s       :     0.779814  s :     0.779814
 12 H s       :     0.785661  s :     0.785661
 13 H s       :     0.784526  s :     0.784526
 14 H s       :     0.785674  s :     0.785674
 15 H s       :     0.784531  s :     0.784531
 16 H s       :     0.779797  s :     0.779797
 17 H s       :     0.779800  s :     0.779800
 18 H s       :     0.785687  s :     0.785687
 19 H s       :     0.784522  s :     0.784522
 20 H s       :     0.785674  s :     0.785674
 21 H s       :     0.784531  s :     0.784531
 22 H s       :     0.779798  s :     0.779798
 23 H s       :     0.779800  s :     0.779800
 24 H s       :     0.785687  s :     0.785687
 25 H s       :     0.784522  s :     0.784522


                     *******************************
                     * LOEWDIN POPULATION ANALYSIS *
                     *******************************

----------------------
LOEWDIN ATOMIC CHARGES
----------------------
   0 C :   -0.345488
   1 C :   -0.085475
   2 C :   -0.085475
   3 C :   -0.345488
   4 C :   -0.345497
   5 C :   -0.345493
   6 C :   -0.345497
   7 C :   -0.345493
   8 H :    0.125595
   9 H :    0.122748
  10 H :    0.125643
  11 H :    0.125595
  12 H :    0.122748
  13 H :    0.125643
  14 H :    0.122744
  15 H :    0.125642
  16 H :    0.125599
  17 H :    0.125598
  18 H :    0.122739
  19 H :    0.125645
  20 H :    0.122744
  21 H :    0.125642
  22 H :    0.125599
  23 H :    0.125598
  24 H :    0.122739
  25 H :    0.125645

-------------------------------
LOEWDIN REDUCED ORBITAL CHARGES
-------------------------------
  0 C s       :     2.953230  s :     2.953230
      pz      :     1.119078  p :     3.323693
      px      :     1.127344
      py      :     1.077271
      dz2     :     0.021849  d :     0.068565
      dxz     :     0.004054
      dyz     :     0.010097
      dx2y2   :     0.012141
      dxy     :     0.020424
  1 C s       :     2.854295  s :     2.854295
      pz      :     1.032025  p :     3.113706
      px      :     1.040838
      py      :     1.040843
      dz2     :     0.029921  d :     0.117474
      dxz     :     0.019074
      dyz     :     0.019074
      dx2y2   :     0.024702
      dxy     :     0.024702
  2 C s       :     2.854295  s :     2.854295
      pz      :     1.032025  p :     3.113707
      px      :     1.040838
      py      :     1.040843
      dz2     :     0.029921  d :     0.117474
      dxz     :     0.019074
      dyz     :     0.019074
      dx2y2   :     0.024702
      dxy     :     0.024702
  3 C s       :     2.953230  s :     2.953230
      pz      :     1.119077  p :     3.323693
      px      :     1.127344
      py      :     1.077271
      dz2     :     0.021849  d :     0.068565
      dxz     :     0.004054
      dyz     :     0.010097
      dx2y2   :     0.012141
      dxy     :     0.020424
  4 C s       :     2.953229  s :     2.953229
      pz      :     1.119079  p :     3.323703
      px      :     1.093095
      py      :     1.111529
      dz2     :     0.021849  d :     0.068565
      dxz     :     0.009372
      dyz     :     0.004779
      dx2y2   :     0.021446
      dxy     :     0.011119
  5 C s       :     2.953226  s :     2.953226
      pz      :     1.119081  p :     3.323702
      px      :     1.086492
      py      :     1.118129
      dz2     :     0.021849  d :     0.068565
      dxz     :     0.007801
      dyz     :     0.006350
      dx2y2   :     0.015261
      dxy     :     0.017304
  6 C s       :     2.953229  s :     2.953229
      pz      :     1.119079  p :     3.323703
      px      :     1.093095
      py      :     1.111529
      dz2     :     0.021849  d :     0.068565
      dxz     :     0.009372
      dyz     :     0.004779
      dx2y2   :     0.021446
      dxy     :     0.011119
  7 C s       :     2.953226  s :     2.953226
      pz      :     1.119081  p :     3.323702
      px      :     1.086492
      py      :     1.118129
      dz2     :     0.021849  d :     0.068565
      dxz     :     0.007801
      dyz     :     0.006350
      dx2y2   :     0.015261
      dxy     :     0.017304
  8 H s       :     0.874405  s :     0.874405
  9 H s       :     0.877252  s :     0.877252
 10 H s       :     0.874357  s :     0.874357
 11 H s       :     0.874405  s :     0.874405
 12 H s       :     0.877252  s :     0.877252
 13 H s       :     0.874357  s :     0.874357
 14 H s       :     0.877256  s :     0.877256
 15 H s       :     0.874358  s :     0.874358
 16 H s       :     0.874401  s :     0.874401
 17 H s       :     0.874402  s :     0.874402
 18 H s       :     0.877261  s :     0.877261
 19 H s       :     0.874355  s :     0.874355
 20 H s       :     0.877256  s :     0.877256
 21 H s       :     0.874358  s :     0.874358
 22 H s       :     0.874401  s :     0.874401
 23 H s       :     0.874402  s :     0.874402
 24 H s       :     0.877261  s :     0.877261
 25 H s       :     0.874355  s :     0.874355


                      *****************************
                      * MAYER POPULATION ANALYSIS *
                      *****************************

  NA   - Mulliken gross atomic population
  ZA   - Total nuclear charge
  QA   - Mulliken gross atomic charge
  VA   - Mayer's total valence
  BVA  - Mayer's bonded valence
  FA   - Mayer's free valence

  ATOM       NA         ZA         QA         VA         BVA        FA
  0 C      6.6335     6.0000    -0.6335     3.6949     3.6949     0.0000
  1 C      6.0494     6.0000    -0.0494     3.7431     3.7431     0.0000
  2 C      6.0494     6.0000    -0.0494     3.7431     3.7431     0.0000
  3 C      6.6335     6.0000    -0.6335     3.6949     3.6949    -0.0000
  4 C      6.6335     6.0000    -0.6335     3.6949     3.6949    -0.0000
  5 C      6.6335     6.0000    -0.6335     3.6949     3.6949    -0.0000
  6 C      6.6335     6.0000    -0.6335     3.6949     3.6949     0.0000
  7 C      6.6335     6.0000    -0.6335     3.6949     3.6949    -0.0000
  8 H      0.7798     1.0000     0.2202     0.9142     0.9142    -0.0000
  9 H      0.7857     1.0000     0.2143     0.9197     0.9197     0.0000
 10 H      0.7845     1.0000     0.2155     0.9171     0.9171     0.0000
 11 H      0.7798     1.0000     0.2202     0.9142     0.9142    -0.0000
 12 H      0.7857     1.0000     0.2143     0.9197     0.9197     0.0000
 13 H      0.7845     1.0000     0.2155     0.9171     0.9171    -0.0000
 14 H      0.7857     1.0000     0.2143     0.9197     0.9197    -0.0000
 15 H      0.7845     1.0000     0.2155     0.9171     0.9171    -0.0000
 16 H      0.7798     1.0000     0.2202     0.9142     0.9142     0.0000
 17 H      0.7798     1.0000     0.2202     0.9142     0.9142    -0.0000
 18 H      0.7857     1.0000     0.2143     0.9197     0.9197     0.0000
 19 H      0.7845     1.0000     0.2155     0.9171     0.9171     0.0000
 20 H      0.7857     1.0000     0.2143     0.9197     0.9197    -0.0000
 21 H      0.7845     1.0000     0.2155     0.9171     0.9171     0.0000
 22 H      0.7798     1.0000     0.2202     0.9142     0.9142     0.0000
 23 H      0.7798     1.0000     0.2202     0.9142     0.9142    -0.0000
 24 H      0.7857     1.0000     0.2143     0.9197     0.9197     0.0000
 25 H      0.7845     1.0000     0.2155     0.9171     0.9171     0.0000

  Mayer bond orders larger than 0.100000
B(  0-C ,  1-C ) :   0.9804 B(  0-C ,  8-H ) :   0.9255 B(  0-C ,  9-H ) :   0.9247 
B(  0-C , 10-H ) :   0.9260 B(  1-C ,  2-C ) :   0.9245 B(  1-C ,  4-C ) :   0.9804 
B(  1-C ,  5-C ) :   0.9804 B(  2-C ,  3-C ) :   0.9804 B(  2-C ,  6-C ) :   0.9804 
B(  2-C ,  7-C ) :   0.9804 B(  3-C , 11-H ) :   0.9255 B(  3-C , 12-H ) :   0.9247 
B(  3-C , 13-H ) :   0.9260 B(  4-C , 14-H ) :   0.9247 B(  4-C , 15-H ) :   0.9260 
B(  4-C , 16-H ) :   0.9255 B(  5-C , 17-H ) :   0.9255 B(  5-C , 18-H ) :   0.9247 
B(  5-C , 19-H ) :   0.9260 B(  6-C , 20-H ) :   0.9247 B(  6-C , 21-H ) :   0.9260 
B(  6-C , 22-H ) :   0.9255 B(  7-C , 23-H ) :   0.9255 B(  7-C , 24-H ) :   0.9247 
B(  7-C , 25-H ) :   0.9260 

-------
TIMINGS
-------

Total SCF time: 0 days 0 hours 1 min 34 sec 

Total time                  ....      94.064 sec
Sum of individual times     ....      90.649 sec  ( 96.4%)

Fock matrix formation       ....      77.197 sec  ( 82.1%)
  Split-RI-J                ....       6.591 sec  (  8.5% of F)
  Chain of spheres X        ....      45.809 sec  ( 59.3% of F)
  XC integration            ....      18.168 sec  ( 23.5% of F)
    Basis function eval.    ....       5.274 sec  ( 29.0% of XC)
    Density eval.           ....       3.056 sec  ( 16.8% of XC)
    XC-Functional eval.     ....       1.886 sec  ( 10.4% of XC)
    XC-Potential eval.      ....       2.112 sec  ( 11.6% of XC)
Diagonalization             ....       0.654 sec  (  0.7%)
Density matrix formation    ....       0.052 sec  (  0.1%)
Population analysis         ....       0.217 sec  (  0.2%)
Initial guess               ....       0.171 sec  (  0.2%)
Orbital Transformation      ....       0.000 sec  (  0.0%)
Orbital Orthonormalization  ....       0.000 sec  (  0.0%)
DIIS solution               ....       1.443 sec  (  1.5%)
SOSCF solution              ....       0.298 sec  (  0.3%)
Grid generation             ....      10.617 sec  ( 11.3%)

Maximum memory used throughout the entire SCF-calculation: 62.1 MB


-------------------------------------------------------------------------------
                          DFT DISPERSION CORRECTION                            
                                                                               
                              DFTD3 V3.1  Rev 1                                
                          USING Becke-Johnson damping                          
-------------------------------------------------------------------------------
The PBEh-3c composite method is recognized
Using three-body term ABC
Active option DFTDOPT                   ...         4   

molecular C6(AA) [au] = 4317.553230 


            DFT-D V3
 parameters
 s6 scaling factor         :     1.0000 
 a1 scaling factor         :     0.4860 
 s8 scaling factor         :     0.0000 
 a2 scaling factor         :     4.5000 
 Damping factor alpha9(ATM):    16.0000 
 ad hoc parameters k1-k3   :    16.0000     1.3333    -4.0000 

 Edisp/kcal,au: -9.623650865903  -0.015336262219 
 E6   /kcal   :  -9.780428933 
 E8   /kcal   :  -0.000000000 
 E6(ABC)      :   0.156778067 
 % E8         :   0.000000000 
 % E6(ABC)    :  -1.629091381 

-------------------------   ----------------
Dispersion correction           -0.015336262
-------------------------   ----------------

------------------   -----------------
gCP correction             0.032627628
------------------   -----------------

-------------------------   --------------------
FINAL SINGLE POINT ENERGY      -315.020955548140
-------------------------   --------------------


                            ***************************************
                            *     ORCA property calculations      *
                            ***************************************

                                    ---------------------
                                    Active property flags
                                    ---------------------
   (+) Dipole Moment


------------------------------------------------------------------------------
                       ORCA ELECTRIC PROPERTIES CALCULATION
------------------------------------------------------------------------------

Dipole Moment Calculation                       ... on
Quadrupole Moment Calculation                   ... off
Polarizability Calculation                      ... off
GBWName                                         ... pbeh-3c.gbw
Electron density                                ... pbeh-3c.scfp
The origin for moment calculation is the CENTER OF MASS  = (-0.000000,  0.000000  0.000000)

-------------
DIPOLE MOMENT
-------------
                                X             Y             Z
Electronic contribution:      0.00003      -0.00000      -0.00000
Nuclear contribution   :      0.00000      -0.00000       0.00000
                        -----------------------------------------
Total Dipole Moment    :      0.00003      -0.00000      -0.00000
                        -----------------------------------------
Magnitude (a.u.)       :      0.00003
Magnitude (Debye)      :      0.00009



--------------------
Rotational spectrum 
--------------------
 
Rotational constants in cm-1:     0.077109     0.054939     0.054939 
Rotational constants in MHz :  2311.681411  1647.026496  1647.026490 

 Dipole components along the rotational axes: 
x,y,z [a.u.] :    -0.000000    -0.000034     0.000000 
x,y,z [Debye]:    -0.000000    -0.000085     0.000000 

 

Timings for individual modules:

Sum of individual times         ...       97.474 sec (=   1.625 min)
GTO integral calculation        ...        2.675 sec (=   0.045 min)   2.7 %
SCF iterations                  ...       94.799 sec (=   1.580 min)  97.3 %
                             ****ORCA TERMINATED NORMALLY****
TOTAL RUN TIME: 0 days 0 hours 1 minutes 38 seconds 408 msec
