
                                 *****************
                                 * O   R   C   A *
                                 *****************

                                            #,                                       
                                            ###                                      
                                            ####                                     
                                            #####                                    
                                            ######                                   
                                           ########,                                 
                                     ,,################,,,,,                         
                               ,,#################################,,                 
                          ,,##########################################,,             
                       ,#########################################, ''#####,          
                    ,#############################################,,   '####,        
                  ,##################################################,,,,####,       
                ,###########''''           ''''###############################       
              ,#####''   ,,,,##########,,,,          '''####'''          '####       
            ,##' ,,,,###########################,,,                        '##       
           ' ,,###''''                  '''############,,,                           
         ,,##''                                '''############,,,,        ,,,,,,###''
      ,#''                                            '''#######################'''  
     '                                                          ''''####''''         
             ,#######,   #######,   ,#######,      ##                                
            ,#'     '#,  ##    ##  ,#'     '#,    #''#        ######   ,####,        
            ##       ##  ##   ,#'  ##            #'  '#       #        #'  '#        
            ##       ##  #######   ##           ,######,      #####,   #    #        
            '#,     ,#'  ##    ##  '#,     ,#' ,#      #,         ##   #,  ,#        
             '#######'   ##     ##  '#######'  #'      '#     #####' # '####'        



                  #######################################################
                  #                        -***-                        #
                  #          Department of theory and spectroscopy      #
                  #    Directorship and core code : Frank Neese         #
                  #        Max Planck Institute fuer Kohlenforschung    #
                  #                Kaiser Wilhelm Platz 1               #
                  #                 D-45470 Muelheim/Ruhr               #
                  #                      Germany                        #
                  #                                                     #
                  #                  All rights reserved                #
                  #                        -***-                        #
                  #######################################################


                         Program Version 5.0.3 -  RELEASE  -


 With contributions from (in alphabetic order):
   Daniel Aravena         : Magnetic Suceptibility
   Michael Atanasov       : Ab Initio Ligand Field Theory (pilot matlab implementation)
   Alexander A. Auer      : GIAO ZORA, VPT2 properties, NMR spectrum
   Ute Becker             : Parallelization
   Giovanni Bistoni       : ED, misc. LED, open-shell LED, HFLD
   Martin Brehm           : Molecular dynamics
   Dmytro Bykov           : SCF Hessian
   Vijay G. Chilkuri      : MRCI spin determinant printing, contributions to CSF-ICE
   Dipayan Datta          : RHF DLPNO-CCSD density
   Achintya Kumar Dutta   : EOM-CC, STEOM-CC
   Dmitry Ganyushin       : Spin-Orbit,Spin-Spin,Magnetic field MRCI
   Miquel Garcia          : C-PCM and meta-GGA Hessian, CC/C-PCM, Gaussian charge scheme
   Yang Guo               : DLPNO-NEVPT2, F12-NEVPT2, CIM, IAO-localization
   Andreas Hansen         : Spin unrestricted coupled pair/coupled cluster methods
   Benjamin Helmich-Paris : MC-RPA, TRAH-SCF, COSX integrals
   Lee Huntington         : MR-EOM, pCC
   Robert Izsak           : Overlap fitted RIJCOSX, COSX-SCS-MP3, EOM
   Marcus Kettner         : VPT2
   Christian Kollmar      : KDIIS, OOCD, Brueckner-CCSD(T), CCSD density, CASPT2, CASPT2-K
   Simone Kossmann        : Meta GGA functionals, TD-DFT gradient, OOMP2, MP2 Hessian
   Martin Krupicka        : Initial AUTO-CI
   Lucas Lang             : DCDCAS
   Marvin Lechner         : AUTO-CI (C++ implementation), FIC-MRCC
   Dagmar Lenk            : GEPOL surface, SMD
   Dimitrios Liakos       : Extrapolation schemes; Compound Job, initial MDCI parallelization
   Dimitrios Manganas     : Further ROCIS development; embedding schemes
   Dimitrios Pantazis     : SARC Basis sets
   Anastasios Papadopoulos: AUTO-CI, single reference methods and gradients
   Taras Petrenko         : DFT Hessian,TD-DFT gradient, ASA, ECA, R-Raman, ABS, FL, XAS/XES, NRVS
   Peter Pinski           : DLPNO-MP2, DLPNO-MP2 Gradient
   Christoph Reimann      : Effective Core Potentials
   Marius Retegan         : Local ZFS, SOC
   Christoph Riplinger    : Optimizer, TS searches, QM/MM, DLPNO-CCSD(T), (RO)-DLPNO pert. Triples
   Tobias Risthaus        : Range-separated hybrids, TD-DFT gradient, RPA, STAB
   Michael Roemelt        : Original ROCIS implementation
   Masaaki Saitow         : Open-shell DLPNO-CCSD energy and density
   Barbara Sandhoefer     : DKH picture change effects
   Avijit Sen             : IP-ROCIS
   Kantharuban Sivalingam : CASSCF convergence, NEVPT2, FIC-MRCI
   Bernardo de Souza      : ESD, SOC TD-DFT
   Georgi Stoychev        : AutoAux, RI-MP2 NMR, DLPNO-MP2 response
   Willem Van den Heuvel  : Paramagnetic NMR
   Boris Wezisla          : Elementary symmetry handling
   Frank Wennmohs         : Technical directorship


 We gratefully acknowledge several colleagues who have allowed us to
 interface, adapt or use parts of their codes:
   Stefan Grimme, W. Hujo, H. Kruse, P. Pracht,  : VdW corrections, initial TS optimization,
                  C. Bannwarth, S. Ehlert          DFT functionals, gCP, sTDA/sTD-DF
   Ed Valeev, F. Pavosevic, A. Kumar             : LibInt (2-el integral package), F12 methods
   Garnet Chan, S. Sharma, J. Yang, R. Olivares  : DMRG
   Ulf Ekstrom                                   : XCFun DFT Library
   Mihaly Kallay                                 : mrcc  (arbitrary order and MRCC methods)
   Jiri Pittner, Ondrej Demel                    : Mk-CCSD
   Frank Weinhold                                : gennbo (NPA and NBO analysis)
   Christopher J. Cramer and Donald G. Truhlar   : smd solvation model
   Lars Goerigk                                  : TD-DFT with DH, B97 family of functionals
   V. Asgeirsson, H. Jonsson                     : NEB implementation
   FAccTs GmbH                                   : IRC, NEB, NEB-TS, DLPNO-Multilevel, CI-OPT
                                                   MM, QMMM, 2- and 3-layer-ONIOM, Crystal-QMMM,
                                                   LR-CPCM, SF, NACMEs, symmetry and pop. for TD-DFT,
                                                   nearIR, NL-DFT gradient (VV10), updates on ESD,
                                                   ML-optimized integration grids
   S Lehtola, MJT Oliveira, MAL Marques          : LibXC Library
   Liviu Ungur et al                             : ANISO software


 Your calculation uses the libint2 library for the computation of 2-el integrals
 For citations please refer to: http://libint.valeyev.net

 Your ORCA version has been built with support for libXC version: 5.1.0
 For citations please refer to: https://tddft.org/programs/libxc/

 This ORCA versions uses:
   CBLAS   interface :  Fast vector & matrix operations
   LAPACKE interface :  Fast linear algebra routines
   SCALAPACK package :  Parallel linear algebra routines
   Shared memory     :  Shared parallel matrices
   BLAS/LAPACK       :  OpenBLAS 0.3.15  USE64BITINT DYNAMIC_ARCH NO_AFFINITY Haswell SINGLE_THREADED
        Core in use  :  Haswell
   Copyright (c) 2011-2014, The OpenBLAS Project




***************************************
The coordinates will be read from file: 24.xyz
***************************************


Your calculation utilizes the geometrical counterpoise correction gCP
Please cite in your paper:
H.Kruse, S. Grimme J.Chem.Phys., 136, (2012), 154101 
   

Your calculation utilizes the atom-pairwise dispersion correction
with the Becke-Johnson damping scheme (D3BJ)
Cite in your paper:
S.Grimme, S.Ehrlich, L.Goerigk, J Comput Chem, (2011), 32, 1456–1465 
S.Grimme, J.Antony, S.Ehrlich and H.Krieg, J.Chem.Phys., 132, (2010), 154104 
   

Your calculation employs the composite approach PBEh-3c.
Please cite in your paper:
S. Grimme, J. G. Brandenburg, C. Bannwarth, A. Hansen J.Chem.Phys., 143, (2015), 054107 
   

================================================================================

----- Orbital basis set information -----
Your calculation utilizes the basis: def2-mSVP

----- AuxJ basis set information -----
Your calculation utilizes the auxiliary basis: def2/J
   F. Weigend, Phys. Chem. Chem. Phys. 8, 1057 (2006).

================================================================================
                                        WARNINGS
                       Please study these warnings very carefully!
================================================================================


INFO   : the flag for use of the SHARK integral package has been found!

================================================================================
                                       INPUT FILE
================================================================================
NAME = pbeh-3c.inp
|  1> ! PBEh-3c def2/J TightSCF DefGrid3
|  2> 
|  3> %maxcore 60000
|  4> 
|  5> %pal
|  6> nprocs 4
|  7> end
|  8> 
|  9> *xyzfile 0 1 24.xyz
| 10> 
| 11>                          ****END OF INPUT****
================================================================================

                       ****************************
                       * Single Point Calculation *
                       ****************************

---------------------------------
CARTESIAN COORDINATES (ANGSTROEM)
---------------------------------
  N      1.243526    2.976933    0.005775
  C     -0.047852    2.612398    0.325297
  C     -0.150259    1.240872    0.376059
  C      1.155934    0.730233    0.066525
  C      1.688041   -0.569559   -0.031159
  C      3.025230   -0.715350   -0.356327
  C      3.855245    0.404215   -0.586879
  C      3.357306    1.694128   -0.488177
  C      2.004807    1.843452   -0.158019
  H      1.573396    3.920160   -0.084770
  H     -0.805241    3.360289    0.496161
  H      1.082152   -1.451616    0.131801
  H      4.887827    0.235842   -0.861669
  H      3.994647    2.549707   -0.671200
  O      3.550428   -1.988792   -0.499609
  C      4.344216   -2.378402    0.617712
  H      5.190601   -1.702593    0.758539
  H      3.745635   -2.392519    1.531856
  H      4.712269   -3.379169    0.406691
  C     -1.387214    0.440418    0.634970
  C     -1.983234   -0.105365   -0.670684
  N     -3.177585   -0.905682   -0.454949
  C     -4.386266   -0.323177   -0.218190
  C     -5.532817   -1.277549    0.049495
  H     -1.162552   -0.396783    1.301492
  H     -2.142995    1.055605    1.123746
  H     -2.250362    0.730508   -1.315282
  H     -1.250622   -0.718675   -1.195106
  H     -3.095539   -1.902105   -0.370972
  O     -4.541120    0.890795   -0.225510
  H     -6.342317   -1.046352   -0.639367
  H     -5.256979   -2.324985   -0.058851
  H     -5.898304   -1.106876    1.060609

----------------------------
CARTESIAN COORDINATES (A.U.)
----------------------------
  NO LB      ZA    FRAG     MASS         X           Y           Z
   0 N     7.0000    0    14.007    2.349923    5.625589    0.010912
   1 C     6.0000    0    12.011   -0.090427    4.936716    0.614721
   2 C     6.0000    0    12.011   -0.283949    2.344907    0.710649
   3 C     6.0000    0    12.011    2.184398    1.379940    0.125713
   4 C     6.0000    0    12.011    3.189935   -1.076311   -0.058883
   5 C     6.0000    0    12.011    5.716855   -1.351816   -0.673361
   6 C     6.0000    0    12.011    7.285356    0.763855   -1.109041
   7 C     6.0000    0    12.011    6.344388    3.201439   -0.922522
   8 C     6.0000    0    12.011    3.788536    3.483620   -0.298613
   9 H     1.0000    0     1.008    2.973287    7.408030   -0.160193
  10 H     1.0000    0     1.008   -1.521685    6.350027    0.937607
  11 H     1.0000    0     1.008    2.044971   -2.743157    0.249067
  12 H     1.0000    0     1.008    9.236655    0.445676   -1.628319
  13 H     1.0000    0     1.008    7.548788    4.818247   -1.268385
  14 O     8.0000    0    15.999    6.709336   -3.758273   -0.944125
  15 C     6.0000    0    12.011    8.209379   -4.494529    1.167307
  16 H     1.0000    0     1.008    9.808815   -3.217435    1.433430
  17 H     1.0000    0     1.008    7.078224   -4.521206    2.894787
  18 H     1.0000    0     1.008    8.904897   -6.385704    0.768536
  19 C     6.0000    0    12.011   -2.621455    0.832269    1.199920
  20 C     6.0000    0    12.011   -3.747769   -0.199112   -1.267410
  21 N     7.0000    0    14.007   -6.004765   -1.711492   -0.859730
  22 C     6.0000    0    12.011   -8.288841   -0.610717   -0.412320
  23 C     6.0000    0    12.011  -10.455509   -2.414218    0.093531
  24 H     1.0000    0     1.008   -2.196905   -0.749812    2.459463
  25 H     1.0000    0     1.008   -4.049674    1.994804    2.123573
  26 H     1.0000    0     1.008   -4.252568    1.380459   -2.485523
  27 H     1.0000    0     1.008   -2.363333   -1.358099   -2.258424
  28 H     1.0000    0     1.008   -5.849721   -3.594458   -0.701036
  29 O     8.0000    0    15.999   -8.581473    1.683358   -0.426153
  30 H     1.0000    0     1.008  -11.985242   -1.977319   -1.208229
  31 H     1.0000    0     1.008   -9.934250   -4.393585   -0.111213
  32 H     1.0000    0     1.008  -11.146179   -2.091693    2.004261

--------------------------------
INTERNAL COORDINATES (ANGSTROEM)
--------------------------------
 N      0   0   0     0.000000000000     0.00000000     0.00000000
 C      1   0   0     1.379361332062     0.00000000     0.00000000
 C      2   1   0     1.376280262169   109.97269242     0.00000000
 C      3   2   1     1.436211660811   106.18238188   359.87892859
 C      4   3   2     1.407884547891   133.38792970   179.56925168
 C      5   4   3     1.383858156817   118.60494979   180.06966741
 C      6   5   4     1.412623336294   121.50740981     0.10091288
 C      7   6   5     1.386204603202   120.98463101     0.32476377
 C      1   2   3     1.375193172068   109.14944700     0.04140694
 H      1   2   3     1.003339191318   125.25040144   180.48735915
 H      2   1   3     1.078042143763   120.73829529   179.89926465
 H      5   4   3     1.082442467562   122.02667347     0.59010629
 H      7   6   5     1.081705330914   118.61908905   181.46573133
 H      8   7   6     1.082457704898   120.79448512   180.36289779
 O      6   5   4     1.384924887279   119.18403054   182.14526266
 C     15   6   5     1.424887714202   112.43014972   255.88515913
 H     16  15   6     1.092207551238   111.32287801   299.74073654
 H     16  15   6     1.092774910558   110.75332164    61.11046256
 H     16  15   6     1.086980462235   106.74692428   180.40041196
 C      3   2   1     1.495934217826   126.95219426   182.59466982
 C     20   3   2     1.535530336080   111.34467267   100.28721500
 N     21  20   3     1.453796052768   112.85322004   179.16530218
 C     22  21  20     1.362452354077   121.28143961    78.49795667
 C     23  22  21     1.515605548398   115.63180000   182.59804768
 H     20   3   2     1.093448034726   110.20001074   221.39368003
 H     20   3   2     1.090211810590   110.41898888   340.04132986
 H     21  20   3     1.088828419000   109.01101901   299.15010720
 H     21  20   3     1.089902601759   110.37933388    57.84059089
 H     22  21  20     1.003315642402   119.46941453   265.78112553
 O     23  22  21     1.223830510204   122.36489840     2.87295371
 H     24  23  22     1.087783503145   108.49862658   233.90106640
 H     24  23  22     1.088552999195   113.36811252   355.48142324
 H     24  23  22     1.088606105930   108.62103636   117.01995696

---------------------------
INTERNAL COORDINATES (A.U.)
---------------------------
 N      0   0   0     0.000000000000     0.00000000     0.00000000
 C      1   0   0     2.606615157318     0.00000000     0.00000000
 C      2   1   0     2.600792779021   109.97269242     0.00000000
 C      3   2   1     2.714046709277   106.18238188   359.87892859
 C      4   3   2     2.660516223693   133.38792970   179.56925168
 C      5   4   3     2.615112924577   118.60494979   180.06966741
 C      6   5   4     2.669471235981   121.50740981     0.10091288
 C      7   6   5     2.619547065633   120.98463101     0.32476377
 C      1   2   3     2.598738476447   109.14944700     0.04140694
 H      1   2   3     1.896036291021   125.25040144   180.48735915
 H      2   1   3     2.037204412538   120.73829529   179.89926465
 H      5   4   3     2.045519819417   122.02667347     0.59010629
 H      7   6   5     2.044126833029   118.61908905   181.46573133
 H      8   7   6     2.045548613811   120.79448512   180.36289779
 O      6   5   4     2.617128753008   119.18403054   182.14526266
 C     15   6   5     2.692647551430   112.43014972   255.88515913
 H     16  15   6     2.063973153241   111.32287801   299.74073654
 H     16  15   6     2.065045306975   110.75332164    61.11046256
 H     16  15   6     2.054095386547   106.74692428   180.40041196
 C      3   2   1     2.826905986052   126.95219426   182.59466982
 C     20   3   2     2.901731805520   111.34467267   100.28721500
 N     21  20   3     2.747276394308   112.85322004   179.16530218
 C     22  21  20     2.574661819722   121.28143961    78.49795667
 C     23  22  21     2.864079413524   115.63180000   182.59804768
 H     20   3   2     2.066317327306   110.20001074   221.39368003
 H     20   3   2     2.060201749981   110.41898888   340.04132986
 H     21  20   3     2.057587518741   109.01101901   299.15010720
 H     21  20   3     2.059617429973   110.37933388    57.84059089
 H     22  21  20     1.895991790020   119.46941453   265.78112553
 O     23  22  21     2.312704498622   122.36489840     2.87295371
 H     24  23  22     2.055612913941   108.49862658   233.90106640
 H     24  23  22     2.057067050737   113.36811252   355.48142324
 H     24  23  22     2.057167407922   108.62103636   117.01995696

---------------------
BASIS SET INFORMATION
---------------------
There are 4 groups of distinct atoms

 Group   1 Type N   : 8s4p1d contracted to 4s2p1d pattern {5111/31/1}
 Group   2 Type C   : 8s4p1d contracted to 4s2p1d pattern {5111/31/1}
 Group   3 Type H   : 4s contracted to 2s pattern {31}
 Group   4 Type O   : 8s4p1d contracted to 4s2p1d pattern {5111/31/1}

Atom   0N    basis set group =>   1
Atom   1C    basis set group =>   2
Atom   2C    basis set group =>   2
Atom   3C    basis set group =>   2
Atom   4C    basis set group =>   2
Atom   5C    basis set group =>   2
Atom   6C    basis set group =>   2
Atom   7C    basis set group =>   2
Atom   8C    basis set group =>   2
Atom   9H    basis set group =>   3
Atom  10H    basis set group =>   3
Atom  11H    basis set group =>   3
Atom  12H    basis set group =>   3
Atom  13H    basis set group =>   3
Atom  14O    basis set group =>   4
Atom  15C    basis set group =>   2
Atom  16H    basis set group =>   3
Atom  17H    basis set group =>   3
Atom  18H    basis set group =>   3
Atom  19C    basis set group =>   2
Atom  20C    basis set group =>   2
Atom  21N    basis set group =>   1
Atom  22C    basis set group =>   2
Atom  23C    basis set group =>   2
Atom  24H    basis set group =>   3
Atom  25H    basis set group =>   3
Atom  26H    basis set group =>   3
Atom  27H    basis set group =>   3
Atom  28H    basis set group =>   3
Atom  29O    basis set group =>   4
Atom  30H    basis set group =>   3
Atom  31H    basis set group =>   3
Atom  32H    basis set group =>   3
---------------------------------
AUXILIARY/J BASIS SET INFORMATION
---------------------------------
There are 4 groups of distinct atoms

 Group   1 Type N   : 12s5p4d2f1g contracted to 6s4p3d1f1g pattern {711111/2111/211/2/1}
 Group   2 Type C   : 12s5p4d2f1g contracted to 6s4p3d1f1g pattern {711111/2111/211/2/1}
 Group   3 Type H   : 5s2p1d contracted to 3s1p1d pattern {311/2/1}
 Group   4 Type O   : 12s5p4d2f1g contracted to 6s4p3d1f1g pattern {711111/2111/211/2/1}

Atom   0N    basis set group =>   1
Atom   1C    basis set group =>   2
Atom   2C    basis set group =>   2
Atom   3C    basis set group =>   2
Atom   4C    basis set group =>   2
Atom   5C    basis set group =>   2
Atom   6C    basis set group =>   2
Atom   7C    basis set group =>   2
Atom   8C    basis set group =>   2
Atom   9H    basis set group =>   3
Atom  10H    basis set group =>   3
Atom  11H    basis set group =>   3
Atom  12H    basis set group =>   3
Atom  13H    basis set group =>   3
Atom  14O    basis set group =>   4
Atom  15C    basis set group =>   2
Atom  16H    basis set group =>   3
Atom  17H    basis set group =>   3
Atom  18H    basis set group =>   3
Atom  19C    basis set group =>   2
Atom  20C    basis set group =>   2
Atom  21N    basis set group =>   1
Atom  22C    basis set group =>   2
Atom  23C    basis set group =>   2
Atom  24H    basis set group =>   3
Atom  25H    basis set group =>   3
Atom  26H    basis set group =>   3
Atom  27H    basis set group =>   3
Atom  28H    basis set group =>   3
Atom  29O    basis set group =>   4
Atom  30H    basis set group =>   3
Atom  31H    basis set group =>   3
Atom  32H    basis set group =>   3


           ************************************************************
           *        Program running with 4 parallel MPI-processes     *
           *              working on a common directory               *
           ************************************************************
------------------------------------------------------------------------------
                           ORCA GTO INTEGRAL CALCULATION
                           -- RI-GTO INTEGRALS CHOSEN --
------------------------------------------------------------------------------
------------------------------------------------------------------------------
                   ___                                                        
                  /   \      - P O W E R E D   B Y -                         
                 /     \                                                     
                 |  |  |   _    _      __       _____    __    __             
                 |  |  |  | |  | |    /  \     |  _  \  |  |  /  |          
                  \  \/   | |  | |   /    \    | | | |  |  | /  /          
                 / \  \   | |__| |  /  /\  \   | |_| |  |  |/  /          
                |  |  |   |  __  | /  /__\  \  |    /   |      \           
                |  |  |   | |  | | |   __   |  |    \   |  |\   \          
                \     /   | |  | | |  |  |  |  | |\  \  |  | \   \       
                 \___/    |_|  |_| |__|  |__|  |_| \__\ |__|  \__/        
                                                                              
                      - O R C A' S   B I G   F R I E N D -                    
                                      &                                       
                       - I N T E G R A L  F E E D E R -                       
                                                                              
 v1 FN, 2020, v2 2021                                                         
------------------------------------------------------------------------------


Reading SHARK input file pbeh-3c.SHARKINP.tmp ... ok
----------------------
SHARK INTEGRAL PACKAGE
----------------------

Number of atoms                             ...     33
Number of basis functions                   ...    287
Number of shells                            ...    151
Maximum angular momentum                    ...      2
Integral batch strategy                     ... SHARK/LIBINT Hybrid
RI-J (if used) integral strategy            ... SPLIT-RIJ (Revised 2003 algorithm where possible)
Printlevel                                  ...      1
Contraction scheme used                     ... SEGMENTED contraction
Coulomb Range Separation                    ... NOT USED
Exchange Range Separation                   ... NOT USED
Finite Nucleus Model                        ... NOT USED
Auxiliary Coulomb fitting basis             ... AVAILABLE
   # of basis functions in Aux-J            ...   1009
   # of shells in Aux-J                     ...    335
   Maximum angular momentum in Aux-J        ...      4
Auxiliary J/K fitting basis                 ... NOT available
Auxiliary Correlation fitting basis         ... NOT available
Auxiliary 'external' fitting basis          ... NOT available
Integral threshold                          ...     2.500000e-11
Primitive cut-off                           ...     2.500000e-12
Primitive pair pre-selection threshold      ...     2.500000e-12

Calculating pre-screening integrals         ... done (  0.1 sec) Dimension = 151
Organizing shell pair data                  ... done (  0.3 sec)
Shell pair information
Total number of shell pairs                 ...     11476
Shell pairs after pre-screening             ...      7718
Total number of primitive shell pairs       ...     41024
Primitive shell pairs kept                  ...     17870
          la=0 lb=0:   3040 shell pairs
          la=1 lb=0:   2578 shell pairs
          la=1 lb=1:    517 shell pairs
          la=2 lb=0:   1040 shell pairs
          la=2 lb=1:    445 shell pairs
          la=2 lb=2:     98 shell pairs

Calculating one electron integrals          ... done (  0.0 sec)
Calculating RI/J V-Matrix + Cholesky decomp.... done (  0.6 sec)
Calculating Nuclear repulsion               ... done (  0.0 sec) ENN=   1141.087622731584 Eh

SHARK setup successfully completed in   1.8 seconds

Maximum memory used throughout the entire GTOINT-calculation: 17.6 MB


           ************************************************************
           *        Program running with 4 parallel MPI-processes     *
           *              working on a common directory               *
           ************************************************************
-------------------------------------------------------------------------------
                                 ORCA SCF
-------------------------------------------------------------------------------

------------
SCF SETTINGS
------------
Hamiltonian:
 Density Functional     Method          .... DFT(GTOs)
 Exchange Functional    Exchange        .... PBE
   PBE kappa parameter   XKappa         ....  1.024500
   PBE mue parameter    XMuePBE         ....  0.123457
 Correlation Functional Correlation     .... PBE
   PBE beta parameter  CBetaPBE         ....  0.030000
 LDA part of GGA corr.  LDAOpt          .... PW91-LDA
 Gradients option       PostSCFGGA      .... off
 Hybrid DFT is turned on
   Fraction HF Exchange ScalHFX         ....  0.420000
   Scaling of DF-GGA-X  ScalDFX         ....  0.580000
   Scaling of DF-GGA-C  ScalDFC         ....  1.000000
   Scaling of DF-LDA-C  ScalLDAC        ....  1.000000
   Perturbative correction              ....  0.000000
   Density functional embedding theory  .... OFF
 RI-approximation to the Coulomb term is turned on
   Number of AuxJ basis functions       .... 1009
   RIJ-ON(X) (HFX calculated with O(N)) .... on
   Number of AuxJ basis functions       .... 1009
   RIJ-COSX (HFX calculated with COS-X)).... on


General Settings:
 Integral files         IntName         .... pbeh-3c
 Hartree-Fock type      HFTyp           .... RHF
 Total Charge           Charge          ....    0
 Multiplicity           Mult            ....    1
 Number of Electrons    NEL             ....  124
 Basis Dimension        Dim             ....  287
 Nuclear Repulsion      ENuc            ....   1141.0876227316 Eh

Convergence Acceleration:
 DIIS                   CNVDIIS         .... on
   Start iteration      DIISMaxIt       ....    12
   Startup error        DIISStart       ....  0.200000
   # of expansion vecs  DIISMaxEq       ....     5
   Bias factor          DIISBfac        ....   1.050
   Max. coefficient     DIISMaxC        ....  10.000
 Trust-Rad. Augm. Hess. CNVTRAH         .... auto
   Auto Start mean grad. ratio tolernc. ....  1.125000
   Auto Start start iteration           ....    20
   Auto Start num. interpolation iter.  ....    10
   Max. Number of Micro iterations      ....    16
   Max. Number of Macro iterations      .... Maxiter - #DIIS iter
   Number of Davidson start vectors     ....     2
   Converg. threshold I  (grad. norm)   ....   1.000e-05
   Converg. threshold II (energy diff.) ....   1.000e-08
   Grad. Scal. Fac. for Micro threshold ....   0.100
   Minimum threshold for Micro iter.    ....   0.010
   NR start threshold (gradient norm)   ....   0.001
   Initial trust radius                 ....   0.400
   Minimum AH scaling param. (alpha)    ....   1.000
   Maximum AH scaling param. (alpha)    .... 1000.000
   Orbital update algorithm             .... Taylor
   White noise on init. David. guess    .... on
   Maximum white noise                  ....   0.010
   Quad. conv. algorithm                .... NR
   COSX micro iterations for RIJONX calc.... off
 SOSCF                  CNVSOSCF        .... on
   Start iteration      SOSCFMaxIt      ....   150
   Startup grad/error   SOSCFStart      ....  0.003300
 Level Shifting         CNVShift        .... on
   Level shift para.    LevelShift      ....    0.2500
   Turn off err/grad.   ShiftErr        ....    0.0010
 Zerner damping         CNVZerner       .... off
 Static damping         CNVDamp         .... on
   Fraction old density DampFac         ....    0.7000
   Max. Damping (<1)    DampMax         ....    0.9800
   Min. Damping (>=0)   DampMin         ....    0.0000
   Turn off err/grad.   DampErr         ....    0.1000
 Fernandez-Rico         CNVRico         .... off

SCF Procedure:
 Maximum # iterations   MaxIter         ....   125
 SCF integral mode      SCFMode         .... Direct
   Integral package                     .... SHARK and LIBINT hybrid scheme
 Reset frequency        DirectResetFreq ....    20
 Integral Threshold     Thresh          ....  2.500e-11 Eh
 Primitive CutOff       TCut            ....  2.500e-12 Eh

Convergence Tolerance:
 Convergence Check Mode ConvCheckMode   .... Total+1el-Energy
 Convergence forced     ConvForced      .... 0
 Energy Change          TolE            ....  1.000e-08 Eh
 1-El. energy change                    ....  1.000e-05 Eh
 Orbital Gradient       TolG            ....  1.000e-05
 Orbital Rotation angle TolX            ....  1.000e-05
 DIIS Error             TolErr          ....  5.000e-07


Diagonalization of the overlap matrix:
Smallest eigenvalue                        ... 4.032e-04
Time for diagonalization                   ...    0.072 sec
Threshold for overlap eigenvalues          ... 1.000e-08
Number of eigenvalues below threshold      ... 0
Time for construction of square roots      ...    0.168 sec
Total time needed                          ...    0.592 sec

--------------------------------
INITIAL GUESS: MINIMAL BASIS EHT
--------------------------------
The minimal basis has 101 functions
EHT matrix was diagonalized
Basis set overlap was calculated now projecting the orbitals
Using GuessMode=FMatrix for the initial guess
C*T matrix was formed
Effective Fockian was calculated
Effective Fockian was diagonalized
Initial density was built
                      ------------------
                      INITIAL GUESS DONE
                      ------------------
-------------------
DFT GRID GENERATION
-------------------

General Integration Accuracy     IntAcc      ... 4.959
Radial Grid Type                 RadialGrid  ... OptM3 with GC (2021)
Angular Grid (max. ang.)         AngularGrid ... 6 (Lebedev-590)
Angular grid pruning method      GridPruning ... 4 (adaptive)
Weight generation scheme         WeightScheme... Becke
Basis function cutoff            BFCut       ... 1.0000e-11
Integration weight cutoff        WCut        ... 1.0000e-14
Angular grids for H and He will be reduced by one unit
Partially contracted basis set               ... off
Rotationally invariant grid construction     ... off

Total number of grid points                  ...   379466
Total number of batches                      ...     5946
Average number of points per batch           ...       63
Average number of grid points per atom       ...    11499
Time for grid setup =    7.874 sec

--------------------
COSX GRID GENERATION
--------------------

GRIDX 1
-------
General Integration Accuracy     IntAcc      ... 4.020
Radial Grid Type                 RadialGrid  ... OptM3 with GC (2021)
Angular Grid (max. ang.)         AngularGrid ... 2 (Lebedev-110)
Angular grid pruning method      GridPruning ... 4 (adaptive)
Weight generation scheme         WeightScheme... Becke
Basis function cutoff            BFCut       ... 1.0000e-11
Integration weight cutoff        WCut        ... 1.0000e-14
Angular grids for H and He will be reduced by one unit
Partially contracted basis set               ... on
Rotationally invariant grid construction     ... off

Total number of grid points                  ...    42079
Total number of batches                      ...      673
Average number of points per batch           ...       62
Average number of grid points per atom       ...     1275
UseSFitting                                  ... on

GRIDX 2
-------
General Integration Accuracy     IntAcc      ... 4.338
Radial Grid Type                 RadialGrid  ... OptM3 with GC (2021)
Angular Grid (max. ang.)         AngularGrid ... 3 (Lebedev-194)
Angular grid pruning method      GridPruning ... 4 (adaptive)
Weight generation scheme         WeightScheme... Becke
Basis function cutoff            BFCut       ... 1.0000e-11
Integration weight cutoff        WCut        ... 1.0000e-14
Angular grids for H and He will be reduced by one unit
Partially contracted basis set               ... on
Rotationally invariant grid construction     ... off

Total number of grid points                  ...    92020
Total number of batches                      ...     1451
Average number of points per batch           ...       63
Average number of grid points per atom       ...     2788
UseSFitting                                  ... on

GRIDX 3
-------
General Integration Accuracy     IntAcc      ... 4.871
Radial Grid Type                 RadialGrid  ... OptM3 with GC (2021)
Angular Grid (max. ang.)         AngularGrid ... 4 (Lebedev-302)
Angular grid pruning method      GridPruning ... 4 (adaptive)
Weight generation scheme         WeightScheme... Becke
Basis function cutoff            BFCut       ... 1.0000e-11
Integration weight cutoff        WCut        ... 1.0000e-14
Angular grids for H and He will be reduced by one unit
Partially contracted basis set               ... on
Rotationally invariant grid construction     ... off

Total number of grid points                  ...   174346
Total number of batches                      ...     2738
Average number of points per batch           ...       63
Average number of grid points per atom       ...     5283
UseSFitting                                  ... on

Time for X-Grid setup             =    6.788 sec

--------------
SCF ITERATIONS
--------------
ITER       Energy         Delta-E        Max-DP      RMS-DP      [F,P]     Damp
               ***  Starting incremental Fock matrix formation  ***
  0   -761.2570277861   0.000000000000 0.20627867  0.00488051  0.5755519 0.7000
  1   -761.9742648445  -0.717237058446 0.13120799  0.00318130  0.2926327 0.7000
  2   -762.3808782532  -0.406613408660 0.09987975  0.00211754  0.2051421 0.7000
                               ***Turning on DIIS***
  3   -762.6675901949  -0.286711941702 0.07288893  0.00149825  0.1441787 0.7000
  4   -762.8732046740  -0.205614479186 0.05139360  0.00111790  0.1011405 0.7000
  5   -763.0187646213  -0.145559947208 0.11789029  0.00272100  0.0710021 0.0000
  6   -763.3649386056  -0.346173984349 0.00663787  0.00010921  0.0049455 0.0000
                      *** Initiating the SOSCF procedure ***
                           *** Shutting down DIIS ***
                      *** Re-Reading the Fockian *** 
                      *** Removing any level shift *** 
ITER      Energy       Delta-E        Grad      Rot      Max-DP    RMS-DP
  7   -763.36512596  -0.0001873523  0.000605  0.000605  0.002114  0.000048
               *** Restarting incremental Fock matrix formation ***
  8   -763.36517299  -0.0000470360  0.000874  0.002406  0.002459  0.000036
  9   -763.36518045  -0.0000074576  0.000405  0.000446  0.001682  0.000026
 10   -763.36518574  -0.0000052876  0.000082  0.000192  0.000577  0.000010
 11   -763.36518622  -0.0000004804  0.000030  0.000044  0.000118  0.000002
 12   -763.36518626  -0.0000000360  0.000018  0.000029  0.000083  0.000001
 13   -763.36518628  -0.0000000270  0.000003  0.000013  0.000012  0.000000
                 **** Energy Check signals convergence ****
              ***Rediagonalizing the Fockian in SOSCF/NRSCF***

               *****************************************************
               *                     SUCCESS                       *
               *           SCF CONVERGED AFTER  14 CYCLES          *
               *****************************************************

Old exchange energy                            =    -43.179976054 Eh
New exchange energy                            =    -43.179980634 Eh
Exchange energy change after final integration =     -0.000004580 Eh
Total energy after final integration           =   -763.365190859 Eh
Final COS-X integration done in                =    23.208 sec

----------------
TOTAL SCF ENERGY
----------------

Total Energy       :         -763.36519086 Eh          -20772.22288 eV

Components:
Nuclear Repulsion  :         1141.08762273 Eh           31050.57280 eV
Electronic Energy  :        -1904.45281359 Eh          -51822.79568 eV
One Electron Energy:        -3303.10426885 Eh          -89882.03667 eV
Two Electron Energy:         1398.65145525 Eh           38059.24099 eV
Max COSX asymmetry :            0.00000427 Eh               0.00012 eV

Virial components:
Potential Energy   :        -1520.78520121 Eh          -41382.66918 eV
Kinetic Energy     :          757.42001035 Eh           20610.44630 eV
Virial Ratio       :            2.00784925


DFT components:
N(Alpha)           :       61.999998280991 electrons
N(Beta)            :       61.999998280991 electrons
N(Total)           :      123.999996561982 electrons
E(X)               :      -57.398223078108 Eh       
E(C)               :       -5.445096034161 Eh       
E(XC)              :      -62.843319112269 Eh       
DFET-embed. en.    :        0.000000000000 Eh       

---------------
SCF CONVERGENCE
---------------

  Last Energy change         ...    3.9107e-09  Tolerance :   1.0000e-08
  Last MAX-Density change    ...    2.5535e-15  Tolerance :   1.0000e-07
  Last RMS-Density change    ...    3.4738e-17  Tolerance :   5.0000e-09
  Last Orbital Gradient      ...    5.1681e-06  Tolerance :   1.0000e-05
  Last Orbital Rotation      ...    9.7164e-06  Tolerance :   1.0000e-05

             **** THE GBW FILE WAS UPDATED (pbeh-3c.gbw) ****
             **** DENSITY pbeh-3c.scfp WAS UPDATED ****
             **** ENERGY FILE WAS UPDATED (pbeh-3c.en.tmp) ****
             **** THE GBW FILE WAS UPDATED (pbeh-3c.gbw) ****
             **** DENSITY pbeh-3c.scfp WAS UPDATED ****
----------------
ORBITAL ENERGIES
----------------

  NO   OCC          E(Eh)            E(eV) 
   0   2.0000     -19.503199      -530.7090 
   1   2.0000     -19.447281      -529.1874 
   2   2.0000     -14.683539      -399.5594 
   3   2.0000     -14.657129      -398.8408 
   4   2.0000     -10.542035      -286.8634 
   5   2.0000     -10.491336      -285.4838 
   6   2.0000     -10.479308      -285.1565 
   7   2.0000     -10.478153      -285.1250 
   8   2.0000     -10.476047      -285.0677 
   9   2.0000     -10.468135      -284.8524 
  10   2.0000     -10.451791      -284.4077 
  11   2.0000     -10.444092      -284.1982 
  12   2.0000     -10.442364      -284.1512 
  13   2.0000     -10.441240      -284.1206 
  14   2.0000     -10.439422      -284.0711 
  15   2.0000     -10.438648      -284.0501 
  16   2.0000     -10.437086      -284.0075 
  17   2.0000      -1.151237       -31.3268 
  18   2.0000      -1.133938       -30.8560 
  19   2.0000      -1.085806       -29.5463 
  20   2.0000      -1.016485       -27.6600 
  21   2.0000      -0.935785       -25.4640 
  22   2.0000      -0.897166       -24.4131 
  23   2.0000      -0.848318       -23.0839 
  24   2.0000      -0.828704       -22.5502 
  25   2.0000      -0.818043       -22.2601 
  26   2.0000      -0.794072       -21.6078 
  27   2.0000      -0.764268       -20.7968 
  28   2.0000      -0.720312       -19.6007 
  29   2.0000      -0.696807       -18.9611 
  30   2.0000      -0.665136       -18.0993 
  31   2.0000      -0.650044       -17.6886 
  32   2.0000      -0.627434       -17.0733 
  33   2.0000      -0.608904       -16.5691 
  34   2.0000      -0.569354       -15.4929 
  35   2.0000      -0.566604       -15.4181 
  36   2.0000      -0.553684       -15.0665 
  37   2.0000      -0.531333       -14.4583 
  38   2.0000      -0.521180       -14.1820 
  39   2.0000      -0.515220       -14.0199 
  40   2.0000      -0.508807       -13.8454 
  41   2.0000      -0.504494       -13.7280 
  42   2.0000      -0.493431       -13.4269 
  43   2.0000      -0.484160       -13.1747 
  44   2.0000      -0.478143       -13.0109 
  45   2.0000      -0.469792       -12.7837 
  46   2.0000      -0.457060       -12.4372 
  47   2.0000      -0.454312       -12.3625 
  48   2.0000      -0.452896       -12.3239 
  49   2.0000      -0.444600       -12.0982 
  50   2.0000      -0.433234       -11.7889 
  51   2.0000      -0.407444       -11.0871 
  52   2.0000      -0.402628       -10.9561 
  53   2.0000      -0.399397       -10.8681 
  54   2.0000      -0.384128       -10.4527 
  55   2.0000      -0.373483       -10.1630 
  56   2.0000      -0.325036        -8.8447 
  57   2.0000      -0.321864        -8.7584 
  58   2.0000      -0.302299        -8.2260 
  59   2.0000      -0.295831        -8.0500 
  60   2.0000      -0.252720        -6.8768 
  61   2.0000      -0.238917        -6.5013 
  62   0.0000       0.006658         0.1812 
  63   0.0000       0.051466         1.4005 
  64   0.0000       0.067368         1.8332 
  65   0.0000       0.094846         2.5809 
  66   0.0000       0.116994         3.1836 
  67   0.0000       0.128329         3.4920 
  68   0.0000       0.146950         3.9987 
  69   0.0000       0.155850         4.2409 
  70   0.0000       0.167365         4.5542 
  71   0.0000       0.180456         4.9105 
  72   0.0000       0.189625         5.1600 
  73   0.0000       0.193415         5.2631 
  74   0.0000       0.200795         5.4639 
  75   0.0000       0.205087         5.5807 
  76   0.0000       0.210296         5.7225 
  77   0.0000       0.210967         5.7407 
  78   0.0000       0.219338         5.9685 
  79   0.0000       0.221761         6.0344 
  80   0.0000       0.224292         6.1033 
  81   0.0000       0.229869         6.2550 
  82   0.0000       0.239325         6.5124 
  83   0.0000       0.248915         6.7733 
  84   0.0000       0.249356         6.7853 
  85   0.0000       0.267703         7.2846 
  86   0.0000       0.270251         7.3539 
  87   0.0000       0.280831         7.6418 
  88   0.0000       0.284743         7.7482 
  89   0.0000       0.303945         8.2708 
  90   0.0000       0.321659         8.7528 
  91   0.0000       0.339070         9.2266 
  92   0.0000       0.344269         9.3680 
  93   0.0000       0.362612         9.8672 
  94   0.0000       0.380849        10.3634 
  95   0.0000       0.417799        11.3689 
  96   0.0000       0.437357        11.9011 
  97   0.0000       0.459823        12.5124 
  98   0.0000       0.464742        12.6463 
  99   0.0000       0.491295        13.3688 
 100   0.0000       0.496919        13.5219 
 101   0.0000       0.508472        13.8362 
 102   0.0000       0.516893        14.0654 
 103   0.0000       0.519634        14.1400 
 104   0.0000       0.526006        14.3134 
 105   0.0000       0.536411        14.5965 
 106   0.0000       0.538131        14.6433 
 107   0.0000       0.548918        14.9368 
 108   0.0000       0.559402        15.2221 
 109   0.0000       0.564772        15.3682 
 110   0.0000       0.575289        15.6544 
 111   0.0000       0.579708        15.7747 
 112   0.0000       0.597729        16.2650 
 113   0.0000       0.601092        16.3565 
 114   0.0000       0.603875        16.4323 
 115   0.0000       0.608399        16.5554 
 116   0.0000       0.615999        16.7622 
 117   0.0000       0.629011        17.1163 
 118   0.0000       0.642912        17.4945 
 119   0.0000       0.646392        17.5892 
 120   0.0000       0.656151        17.8548 
 121   0.0000       0.673603        18.3297 
 122   0.0000       0.679931        18.5019 
 123   0.0000       0.686185        18.6721 
 124   0.0000       0.693061        18.8591 
 125   0.0000       0.708132        19.2693 
 126   0.0000       0.727338        19.7919 
 127   0.0000       0.735129        20.0039 
 128   0.0000       0.748000        20.3541 
 129   0.0000       0.789628        21.4869 
 130   0.0000       0.792759        21.5721 
 131   0.0000       0.803965        21.8770 
 132   0.0000       0.818942        22.2845 
 133   0.0000       0.825709        22.4687 
 134   0.0000       0.850001        23.1297 
 135   0.0000       0.881316        23.9818 
 136   0.0000       0.897002        24.4087 
 137   0.0000       0.913748        24.8644 
 138   0.0000       0.936864        25.4934 
 139   0.0000       0.939158        25.5558 
 140   0.0000       0.957888        26.0655 
 141   0.0000       0.968480        26.3537 
 142   0.0000       0.978481        26.6258 
 143   0.0000       0.986491        26.8438 
 144   0.0000       0.989070        26.9140 
 145   0.0000       0.998358        27.1667 
 146   0.0000       1.001977        27.2652 
 147   0.0000       1.010967        27.5098 
 148   0.0000       1.020793        27.7772 
 149   0.0000       1.023535        27.8518 
 150   0.0000       1.028965        27.9996 
 151   0.0000       1.032192        28.0874 
 152   0.0000       1.038283        28.2531 
 153   0.0000       1.043213        28.3873 
 154   0.0000       1.044411        28.4199 
 155   0.0000       1.055969        28.7344 
 156   0.0000       1.058161        28.7940 
 157   0.0000       1.073375        29.2080 
 158   0.0000       1.091121        29.6909 
 159   0.0000       1.108491        30.1636 
 160   0.0000       1.125909        30.6375 
 161   0.0000       1.139893        31.0181 
 162   0.0000       1.148462        31.2513 
 163   0.0000       1.160265        31.5724 
 164   0.0000       1.185537        32.2601 
 165   0.0000       1.203365        32.7452 
 166   0.0000       1.230865        33.4935 
 167   0.0000       1.242313        33.8051 
 168   0.0000       1.256131        34.1811 
 169   0.0000       1.267375        34.4870 
 170   0.0000       1.278245        34.7828 
 171   0.0000       1.292908        35.1818 
 172   0.0000       1.318156        35.8688 
 173   0.0000       1.345021        36.5999 
 174   0.0000       1.382975        37.6327 
 175   0.0000       1.388747        37.7897 
 176   0.0000       1.394463        37.9453 
 177   0.0000       1.406723        38.2789 
 178   0.0000       1.421561        38.6826 
 179   0.0000       1.436206        39.0811 
 180   0.0000       1.450592        39.4726 
 181   0.0000       1.455932        39.6179 
 182   0.0000       1.467560        39.9343 
 183   0.0000       1.482608        40.3438 
 184   0.0000       1.509415        41.0733 
 185   0.0000       1.525339        41.5066 
 186   0.0000       1.536309        41.8051 
 187   0.0000       1.538875        41.8749 
 188   0.0000       1.575397        42.8687 
 189   0.0000       1.584380        43.1132 
 190   0.0000       1.599878        43.5349 
 191   0.0000       1.612107        43.8677 
 192   0.0000       1.629266        44.3346 
 193   0.0000       1.690956        46.0133 
 194   0.0000       1.713854        46.6363 
 195   0.0000       1.790282        48.7160 
 196   0.0000       1.822865        49.6027 
 197   0.0000       1.836083        49.9624 
 198   0.0000       1.846154        50.2364 
 199   0.0000       1.850753        50.3616 
 200   0.0000       1.861799        50.6621 
 201   0.0000       1.872966        50.9660 
 202   0.0000       1.887998        51.3750 
 203   0.0000       1.897857        51.6433 
 204   0.0000       1.905733        51.8576 
 205   0.0000       1.921619        52.2899 
 206   0.0000       1.967592        53.5409 
 207   0.0000       1.977115        53.8000 
 208   0.0000       1.980901        53.9031 
 209   0.0000       2.005428        54.5705 
 210   0.0000       2.011666        54.7402 
 211   0.0000       2.019617        54.9566 
 212   0.0000       2.035081        55.3774 
 213   0.0000       2.061283        56.0904 
 214   0.0000       2.062934        56.1353 
 215   0.0000       2.080877        56.6235 
 216   0.0000       2.099031        57.1175 
 217   0.0000       2.125328        57.8331 
 218   0.0000       2.141868        58.2832 
 219   0.0000       2.146635        58.4129 
 220   0.0000       2.158733        58.7421 
 221   0.0000       2.179235        59.3000 
 222   0.0000       2.186052        59.4855 
 223   0.0000       2.204617        59.9907 
 224   0.0000       2.209941        60.1355 
 225   0.0000       2.243145        61.0391 
 226   0.0000       2.263287        61.5872 
 227   0.0000       2.275418        61.9173 
 228   0.0000       2.279121        62.0180 
 229   0.0000       2.283736        62.1436 
 230   0.0000       2.297661        62.5225 
 231   0.0000       2.311862        62.9090 
 232   0.0000       2.327395        63.3316 
 233   0.0000       2.330594        63.4187 
 234   0.0000       2.362691        64.2921 
 235   0.0000       2.377531        64.6959 
 236   0.0000       2.407764        65.5186 
 237   0.0000       2.414520        65.7024 
 238   0.0000       2.417998        65.7971 
 239   0.0000       2.447654        66.6041 
 240   0.0000       2.479705        67.4762 
 241   0.0000       2.509019        68.2739 
 242   0.0000       2.519602        68.5619 
 243   0.0000       2.532344        68.9086 
 244   0.0000       2.550986        69.4159 
 245   0.0000       2.586683        70.3872 
 246   0.0000       2.595818        70.6358 
 247   0.0000       2.619975        71.2932 
 248   0.0000       2.660743        72.4025 
 249   0.0000       2.666920        72.5706 
 250   0.0000       2.696081        73.3641 
 251   0.0000       2.722544        74.0842 
 252   0.0000       2.735166        74.4276 
 253   0.0000       2.748794        74.7985 
 254   0.0000       2.784340        75.7657 
 255   0.0000       2.788085        75.8676 
 256   0.0000       2.816053        76.6287 
 257   0.0000       2.835678        77.1627 
 258   0.0000       2.847133        77.4744 
 259   0.0000       2.903086        78.9970 
 260   0.0000       2.963695        80.6462 
 261   0.0000       2.977514        81.0223 
 262   0.0000       3.001236        81.6678 
 263   0.0000       3.033678        82.5506 
 264   0.0000       3.088388        84.0393 
 265   0.0000       3.130595        85.1878 
 266   0.0000       3.232611        87.9638 
 267   0.0000       3.237447        88.0954 
 268   0.0000       3.349089        91.1334 
 269   0.0000       3.517847        95.7255 
 270   0.0000      13.276173       361.2630 
 271   0.0000      13.630272       370.8985 
 272   0.0000      13.667310       371.9064 
 273   0.0000      13.751030       374.1845 
 274   0.0000      13.791851       375.2953 
 275   0.0000      13.828783       376.3003 
 276   0.0000      13.856774       377.0620 
 277   0.0000      14.039606       382.0371 
 278   0.0000      14.068090       382.8122 
 279   0.0000      14.117223       384.1492 
 280   0.0000      14.234450       387.3391 
 281   0.0000      14.339735       390.2040 
 282   0.0000      14.549050       395.8998 
 283   0.0000      19.313240       525.5400 
 284   0.0000      19.405964       528.0631 
 285   0.0000      25.757039       700.8847 
 286   0.0000      25.795611       701.9343 

                    ********************************
                    * MULLIKEN POPULATION ANALYSIS *
                    ********************************

-----------------------
MULLIKEN ATOMIC CHARGES
-----------------------
   0 N :   -0.702066
   1 C :   -0.054960
   2 C :    0.022043
   3 C :    0.070295
   4 C :   -0.434329
   5 C :    0.360067
   6 C :   -0.313437
   7 C :   -0.262392
   8 C :    0.368426
   9 H :    0.358952
  10 H :    0.247768
  11 H :    0.208341
  12 H :    0.226383
  13 H :    0.213996
  14 O :   -0.486929
  15 C :   -0.376245
  16 H :    0.198175
  17 H :    0.201909
  18 H :    0.218567
  19 C :   -0.533238
  20 C :   -0.273801
  21 N :   -0.631946
  22 C :    0.523071
  23 C :   -0.749408
  24 H :    0.213441
  25 H :    0.258846
  26 H :    0.256300
  27 H :    0.234017
  28 H :    0.350794
  29 O :   -0.434463
  30 H :    0.259789
  31 H :    0.207611
  32 H :    0.254423
Sum of atomic charges:    0.0000000

--------------------------------
MULLIKEN REDUCED ORBITAL CHARGES
--------------------------------
  0 N s       :     3.599339  s :     3.599339
      pz      :     1.605500  p :     4.061262
      px      :     1.221491
      py      :     1.234272
      dz2     :     0.005202  d :     0.041465
      dxz     :     0.007964
      dyz     :     0.003907
      dx2y2   :     0.012851
      dxy     :     0.011541
  1 C s       :     3.160584  s :     3.160584
      pz      :     1.031911  p :     2.837837
      px      :     0.810010
      py      :     0.995916
      dz2     :     0.005443  d :     0.056539
      dxz     :     0.008960
      dyz     :     0.008560
      dx2y2   :     0.015865
      dxy     :     0.017711
  2 C s       :     3.201416  s :     3.201416
      pz      :     1.053202  p :     2.731109
      px      :     0.829223
      py      :     0.848684
      dz2     :     0.003969  d :     0.045432
      dxz     :     0.006314
      dyz     :     0.008067
      dx2y2   :     0.015523
      dxy     :     0.011559
  3 C s       :     3.223621  s :     3.223621
      pz      :     1.012015  p :     2.659340
      px      :     0.806942
      py      :     0.840383
      dz2     :     0.004536  d :     0.046744
      dxz     :     0.007219
      dyz     :     0.007765
      dx2y2   :     0.010964
      dxy     :     0.016261
  4 C s       :     3.362731  s :     3.362731
      pz      :     1.029087  p :     3.033193
      px      :     0.986387
      py      :     1.017719
      dz2     :     0.004361  d :     0.038405
      dxz     :     0.005982
      dyz     :     0.004523
      dx2y2   :     0.011171
      dxy     :     0.012368
  5 C s       :     3.062201  s :     3.062201
      pz      :     0.983770  p :     2.503862
      px      :     0.833915
      py      :     0.686178
      dz2     :     0.005642  d :     0.073870
      dxz     :     0.008869
      dyz     :     0.011615
      dx2y2   :     0.023960
      dxy     :     0.023783
  6 C s       :     3.265485  s :     3.265485
      pz      :     1.044960  p :     3.009738
      px      :     1.042162
      py      :     0.922616
      dz2     :     0.003675  d :     0.038214
      dxz     :     0.003319
      dyz     :     0.007797
      dx2y2   :     0.012328
      dxy     :     0.011094
  7 C s       :     3.256365  s :     3.256365
      pz      :     1.034551  p :     2.966208
      px      :     0.925112
      py      :     1.006544
      dz2     :     0.004221  d :     0.039819
      dxz     :     0.005915
      dyz     :     0.005207
      dx2y2   :     0.011494
      dxy     :     0.012982
  8 C s       :     3.071878  s :     3.071878
      pz      :     0.995686  p :     2.496216
      px      :     0.730029
      py      :     0.770501
      dz2     :     0.005365  d :     0.063480
      dxz     :     0.009184
      dyz     :     0.011836
      dx2y2   :     0.015207
      dxy     :     0.021889
  9 H s       :     0.641048  s :     0.641048
 10 H s       :     0.752232  s :     0.752232
 11 H s       :     0.791659  s :     0.791659
 12 H s       :     0.773617  s :     0.773617
 13 H s       :     0.786004  s :     0.786004
 14 O s       :     3.796514  s :     3.796514
      pz      :     1.557408  p :     4.657887
      px      :     1.658007
      py      :     1.442472
      dz2     :     0.007324  d :     0.032527
      dxz     :     0.006581
      dyz     :     0.006679
      dx2y2   :     0.006849
      dxy     :     0.005094
 15 C s       :     3.336929  s :     3.336929
      pz      :     0.875699  p :     2.977421
      px      :     0.992830
      py      :     1.108892
      dz2     :     0.017032  d :     0.061895
      dxz     :     0.017567
      dyz     :     0.006675
      dx2y2   :     0.008249
      dxy     :     0.012372
 16 H s       :     0.801825  s :     0.801825
 17 H s       :     0.798091  s :     0.798091
 18 H s       :     0.781433  s :     0.781433
 19 C s       :     3.393734  s :     3.393734
      pz      :     1.005480  p :     3.095785
      px      :     1.003253
      py      :     1.087052
      dz2     :     0.005494  d :     0.043720
      dxz     :     0.009412
      dyz     :     0.012788
      dx2y2   :     0.005398
      dxy     :     0.010628
 20 C s       :     3.277427  s :     3.277427
      pz      :     1.010257  p :     2.938710
      px      :     0.881393
      py      :     1.047060
      dz2     :     0.007513  d :     0.057664
      dxz     :     0.012933
      dyz     :     0.014333
      dx2y2   :     0.006506
      dxy     :     0.016378
 21 N s       :     3.536943  s :     3.536943
      pz      :     1.681901  p :     4.060642
      px      :     1.158391
      py      :     1.220351
      dz2     :     0.004150  d :     0.034362
      dxz     :     0.005418
      dyz     :     0.002179
      dx2y2   :     0.014912
      dxy     :     0.007703
 22 C s       :     2.978071  s :     2.978071
      pz      :     0.762823  p :     2.376550
      px      :     0.790157
      py      :     0.823571
      dz2     :     0.007018  d :     0.122308
      dxz     :     0.012052
      dyz     :     0.024451
      dx2y2   :     0.030485
      dxy     :     0.048303
 23 C s       :     3.408506  s :     3.408506
      pz      :     1.176425  p :     3.306928
      px      :     1.076272
      py      :     1.054231
      dz2     :     0.008519  d :     0.033974
      dxz     :     0.008190
      dyz     :     0.002204
      dx2y2   :     0.007611
      dxy     :     0.007450
 24 H s       :     0.786559  s :     0.786559
 25 H s       :     0.741154  s :     0.741154
 26 H s       :     0.743700  s :     0.743700
 27 H s       :     0.765983  s :     0.765983
 28 H s       :     0.649206  s :     0.649206
 29 O s       :     3.764807  s :     3.764807
      pz      :     1.472481  p :     4.640649
      px      :     1.789839
      py      :     1.378328
      dz2     :     0.002704  d :     0.029007
      dxz     :     0.000282
      dyz     :     0.010599
      dx2y2   :     0.008507
      dxy     :     0.006916
 30 H s       :     0.740211  s :     0.740211
 31 H s       :     0.792389  s :     0.792389
 32 H s       :     0.745577  s :     0.745577


                     *******************************
                     * LOEWDIN POPULATION ANALYSIS *
                     *******************************

----------------------
LOEWDIN ATOMIC CHARGES
----------------------
   0 N :   -0.157401
   1 C :   -0.077027
   2 C :   -0.104221
   3 C :   -0.054862
   4 C :   -0.154199
   5 C :    0.041600
   6 C :   -0.161247
   7 C :   -0.152853
   8 C :    0.013085
   9 H :    0.261857
  10 H :    0.139562
  11 H :    0.140686
  12 H :    0.141477
  13 H :    0.136688
  14 O :   -0.221909
  15 C :   -0.172708
  16 H :    0.107779
  17 H :    0.110154
  18 H :    0.123188
  19 C :   -0.234661
  20 C :   -0.143380
  21 N :   -0.243564
  22 C :    0.105354
  23 C :   -0.390516
  24 H :    0.127142
  25 H :    0.147151
  26 H :    0.143576
  27 H :    0.127083
  28 H :    0.251248
  29 O :   -0.285438
  30 H :    0.156934
  31 H :    0.124545
  32 H :    0.154876

-------------------------------
LOEWDIN REDUCED ORBITAL CHARGES
-------------------------------
  0 N s       :     3.075985  s :     3.075985
      pz      :     1.562651  p :     3.987253
      px      :     1.229329
      py      :     1.195274
      dz2     :     0.007951  d :     0.094162
      dxz     :     0.017240
      dyz     :     0.007696
      dx2y2   :     0.032028
      dxy     :     0.029247
  1 C s       :     2.884681  s :     2.884681
      pz      :     1.038725  p :     3.069480
      px      :     0.951871
      py      :     1.078884
      dz2     :     0.010203  d :     0.122866
      dxz     :     0.018758
      dyz     :     0.016817
      dx2y2   :     0.038478
      dxy     :     0.038609
  2 C s       :     2.842075  s :     2.842075
      pz      :     1.054584  p :     3.153360
      px      :     1.039005
      py      :     1.059771
      dz2     :     0.007692  d :     0.108786
      dxz     :     0.012662
      dyz     :     0.016247
      dx2y2   :     0.041193
      dxy     :     0.030993
  3 C s       :     2.832448  s :     2.832448
      pz      :     1.013420  p :     3.109238
      px      :     1.038090
      py      :     1.057727
      dz2     :     0.008605  d :     0.113177
      dxz     :     0.014720
      dyz     :     0.016005
      dx2y2   :     0.030447
      dxy     :     0.043400
  4 C s       :     2.890955  s :     2.890955
      pz      :     1.031728  p :     3.176217
      px      :     1.072677
      py      :     1.071812
      dz2     :     0.007422  d :     0.087027
      dxz     :     0.012011
      dyz     :     0.008909
      dx2y2   :     0.028856
      dxy     :     0.029830
  5 C s       :     2.828162  s :     2.828162
      pz      :     0.991736  p :     2.957424
      px      :     1.060994
      py      :     0.904694
      dz2     :     0.012319  d :     0.172815
      dxz     :     0.018663
      dyz     :     0.024590
      dx2y2   :     0.059210
      dxy     :     0.058032
  6 C s       :     2.894475  s :     2.894475
      pz      :     1.032658  p :     3.179954
      px      :     1.073828
      py      :     1.073467
      dz2     :     0.006392  d :     0.086818
      dxz     :     0.005227
      dyz     :     0.016621
      dx2y2   :     0.030008
      dxy     :     0.028569
  7 C s       :     2.886072  s :     2.886072
      pz      :     1.030236  p :     3.176763
      px      :     1.060308
      py      :     1.086219
      dz2     :     0.007163  d :     0.090018
      dxz     :     0.012109
      dyz     :     0.010135
      dx2y2   :     0.029574
      dxy     :     0.031035
  8 C s       :     2.813546  s :     2.813546
      pz      :     1.013027  p :     3.025564
      px      :     1.049394
      py      :     0.963143
      dz2     :     0.011164  d :     0.147805
      dxz     :     0.018472
      dyz     :     0.025228
      dx2y2   :     0.037434
      dxy     :     0.055507
  9 H s       :     0.738143  s :     0.738143
 10 H s       :     0.860438  s :     0.860438
 11 H s       :     0.859314  s :     0.859314
 12 H s       :     0.858523  s :     0.858523
 13 H s       :     0.863312  s :     0.863312
 14 O s       :     3.441707  s :     3.441707
      pz      :     1.587670  p :     4.710592
      px      :     1.658769
      py      :     1.464153
      dz2     :     0.014660  d :     0.069610
      dxz     :     0.013147
      dyz     :     0.014332
      dx2y2   :     0.015020
      dxy     :     0.012452
 15 C s       :     2.957748  s :     2.957748
      pz      :     0.947943  p :     3.093928
      px      :     1.035038
      py      :     1.110947
      dz2     :     0.034726  d :     0.121032
      dxz     :     0.035907
      dyz     :     0.012931
      dx2y2   :     0.015055
      dxy     :     0.022413
 16 H s       :     0.892221  s :     0.892221
 17 H s       :     0.889846  s :     0.889846
 18 H s       :     0.876812  s :     0.876812
 19 C s       :     2.902577  s :     2.902577
      pz      :     1.081204  p :     3.242375
      px      :     1.068072
      py      :     1.093098
      dz2     :     0.012242  d :     0.089710
      dxz     :     0.019972
      dyz     :     0.025077
      dx2y2   :     0.011181
      dxy     :     0.021238
 20 C s       :     2.900537  s :     2.900537
      pz      :     1.088703  p :     3.123536
      px      :     0.965021
      py      :     1.069811
      dz2     :     0.016102  d :     0.119307
      dxz     :     0.027896
      dyz     :     0.028353
      dx2y2   :     0.013324
      dxy     :     0.033632
 21 N s       :     3.110531  s :     3.110531
      pz      :     1.631971  p :     4.051466
      px      :     1.216832
      py      :     1.202664
      dz2     :     0.006749  d :     0.081566
      dxz     :     0.012032
      dyz     :     0.004855
      dx2y2   :     0.034972
      dxy     :     0.022958
 22 C s       :     2.828548  s :     2.828548
      pz      :     0.787134  p :     2.788813
      px      :     0.970442
      py      :     1.031237
      dz2     :     0.016079  d :     0.277285
      dxz     :     0.024390
      dyz     :     0.050509
      dx2y2   :     0.068335
      dxy     :     0.117972
 23 C s       :     2.963055  s :     2.963055
      pz      :     1.151881  p :     3.364121
      px      :     1.117587
      py      :     1.094652
      dz2     :     0.014959  d :     0.063340
      dxz     :     0.014553
      dyz     :     0.003580
      dx2y2   :     0.014669
      dxy     :     0.015580
 24 H s       :     0.872858  s :     0.872858
 25 H s       :     0.852849  s :     0.852849
 26 H s       :     0.856424  s :     0.856424
 27 H s       :     0.872917  s :     0.872917
 28 H s       :     0.748752  s :     0.748752
 29 O s       :     3.524040  s :     3.524040
      pz      :     1.467794  p :     4.706273
      px      :     1.770234
      py      :     1.468245
      dz2     :     0.006465  d :     0.055125
      dxz     :     0.000438
      dyz     :     0.014207
      dx2y2   :     0.020094
      dxy     :     0.013920
 30 H s       :     0.843066  s :     0.843066
 31 H s       :     0.875455  s :     0.875455
 32 H s       :     0.845124  s :     0.845124


                      *****************************
                      * MAYER POPULATION ANALYSIS *
                      *****************************

  NA   - Mulliken gross atomic population
  ZA   - Total nuclear charge
  QA   - Mulliken gross atomic charge
  VA   - Mayer's total valence
  BVA  - Mayer's bonded valence
  FA   - Mayer's free valence

  ATOM       NA         ZA         QA         VA         BVA        FA
  0 N      7.7021     7.0000    -0.7021     3.1723     3.1723    -0.0000
  1 C      6.0550     6.0000    -0.0550     3.6889     3.6889     0.0000
  2 C      5.9780     6.0000     0.0220     3.7171     3.7171    -0.0000
  3 C      5.9297     6.0000     0.0703     3.7091     3.7091    -0.0000
  4 C      6.4343     6.0000    -0.4343     3.7740     3.7740    -0.0000
  5 C      5.6399     6.0000     0.3601     3.7827     3.7827     0.0000
  6 C      6.3134     6.0000    -0.3134     3.8321     3.8321     0.0000
  7 C      6.2624     6.0000    -0.2624     3.7604     3.7604     0.0000
  8 C      5.6316     6.0000     0.3684     3.5371     3.5371    -0.0000
  9 H      0.6410     1.0000     0.3590     0.8511     0.8511     0.0000
 10 H      0.7522     1.0000     0.2478     0.9017     0.9017     0.0000
 11 H      0.7917     1.0000     0.2083     0.9268     0.9268    -0.0000
 12 H      0.7736     1.0000     0.2264     0.9130     0.9130     0.0000
 13 H      0.7860     1.0000     0.2140     0.9143     0.9143    -0.0000
 14 O      8.4869     8.0000    -0.4869     2.0204     2.0204     0.0000
 15 C      6.3762     6.0000    -0.3762     3.7038     3.7038     0.0000
 16 H      0.8018     1.0000     0.1982     0.9101     0.9101    -0.0000
 17 H      0.7981     1.0000     0.2019     0.9106     0.9106    -0.0000
 18 H      0.7814     1.0000     0.2186     0.9154     0.9154    -0.0000
 19 C      6.5332     6.0000    -0.5332     3.6814     3.6814    -0.0000
 20 C      6.2738     6.0000    -0.2738     3.6772     3.6772     0.0000
 21 N      7.6319     7.0000    -0.6319     3.0036     3.0036     0.0000
 22 C      5.4769     6.0000     0.5231     4.0119     4.0119    -0.0000
 23 C      6.7494     6.0000    -0.7494     3.6896     3.6896     0.0000
 24 H      0.7866     1.0000     0.2134     0.9107     0.9107    -0.0000
 25 H      0.7412     1.0000     0.2588     0.9025     0.9025     0.0000
 26 H      0.7437     1.0000     0.2563     0.9065     0.9065     0.0000
 27 H      0.7660     1.0000     0.2340     0.9051     0.9051    -0.0000
 28 H      0.6492     1.0000     0.3508     0.8509     0.8509     0.0000
 29 O      8.4345     8.0000    -0.4345     2.1637     2.1637    -0.0000
 30 H      0.7402     1.0000     0.2598     0.8999     0.8999    -0.0000
 31 H      0.7924     1.0000     0.2076     0.9156     0.9156     0.0000
 32 H      0.7456     1.0000     0.2544     0.8999     0.8999    -0.0000

  Mayer bond orders larger than 0.100000
B(  0-N ,  1-C ) :   1.1296 B(  0-N ,  8-C ) :   1.0156 B(  0-N ,  9-H ) :   0.8333 
B(  1-C ,  2-C ) :   1.5627 B(  1-C , 10-H ) :   0.9074 B(  2-C ,  3-C ) :   1.2349 
B(  2-C , 19-C ) :   0.9613 B(  3-C ,  4-C ) :   1.2399 B(  3-C ,  8-C ) :   1.2384 
B(  4-C ,  5-C ) :   1.4844 B(  4-C , 11-H ) :   0.9322 B(  5-C ,  6-C ) :   1.3199 
B(  5-C , 14-O ) :   0.9510 B(  6-C ,  7-C ) :   1.4832 B(  6-C , 12-H ) :   0.9127 
B(  7-C ,  8-C ) :   1.2912 B(  7-C , 13-H ) :   0.9208 B( 14-O , 15-C ) :   0.9536 
B( 15-C , 16-H ) :   0.9118 B( 15-C , 17-H ) :   0.9125 B( 15-C , 18-H ) :   0.9288 
B( 19-C , 20-C ) :   0.9490 B( 19-C , 24-H ) :   0.9214 B( 19-C , 25-H ) :   0.9125 
B( 20-C , 21-N ) :   0.9325 B( 20-C , 26-H ) :   0.9012 B( 20-C , 27-H ) :   0.9177 
B( 21-N , 22-C ) :   1.1421 B( 21-N , 28-H ) :   0.8306 B( 22-C , 23-C ) :   0.9266 
B( 22-C , 29-O ) :   1.9786 B( 23-C , 30-H ) :   0.9108 B( 23-C , 31-H ) :   0.9229 
B( 23-C , 32-H ) :   0.9108 

-------
TIMINGS
-------

Total SCF time: 0 days 0 hours 4 min 35 sec 

Total time                  ....     275.367 sec
Sum of individual times     ....     266.574 sec  ( 96.8%)

Fock matrix formation       ....     243.291 sec  ( 88.4%)
  Split-RI-J                ....      17.674 sec  (  7.3% of F)
  Chain of spheres X        ....     172.064 sec  ( 70.7% of F)
  XC integration            ....      38.681 sec  ( 15.9% of F)
    Basis function eval.    ....      10.710 sec  ( 27.7% of XC)
    Density eval.           ....       6.582 sec  ( 17.0% of XC)
    XC-Functional eval.     ....       3.029 sec  (  7.8% of XC)
    XC-Potential eval.      ....       4.088 sec  ( 10.6% of XC)
Diagonalization             ....       2.797 sec  (  1.0%)
Density matrix formation    ....       0.239 sec  (  0.1%)
Population analysis         ....       0.144 sec  (  0.1%)
Initial guess               ....       0.215 sec  (  0.1%)
Orbital Transformation      ....       0.000 sec  (  0.0%)
Orbital Orthonormalization  ....       0.000 sec  (  0.0%)
DIIS solution               ....       4.137 sec  (  1.5%)
SOSCF solution              ....       1.090 sec  (  0.4%)
Grid generation             ....      14.661 sec  (  5.3%)

Maximum memory used throughout the entire SCF-calculation: 96.2 MB


-------------------------------------------------------------------------------
                          DFT DISPERSION CORRECTION                            
                                                                               
                              DFTD3 V3.1  Rev 1                                
                          USING Becke-Johnson damping                          
-------------------------------------------------------------------------------
The PBEh-3c composite method is recognized
Using three-body term ABC
Active option DFTDOPT                   ...         4   

molecular C6(AA) [au] = 10859.670253 


            DFT-D V3
 parameters
 s6 scaling factor         :     1.0000 
 a1 scaling factor         :     0.4860 
 s8 scaling factor         :     0.0000 
 a2 scaling factor         :     4.5000 
 Damping factor alpha9(ATM):    16.0000 
 ad hoc parameters k1-k3   :    16.0000     1.3333    -4.0000 

 Edisp/kcal,au: -13.018550720909  -0.020746378932 
 E6   /kcal   : -13.031559724 
 E8   /kcal   :  -0.000000000 
 E6(ABC)      :   0.013009003 
 % E8         :   0.000000000 
 % E6(ABC)    :  -0.099926662 

-------------------------   ----------------
Dispersion correction           -0.020746379
-------------------------   ----------------

------------------   -----------------
gCP correction             0.061495051
------------------   -----------------

-------------------------   --------------------
FINAL SINGLE POINT ENERGY      -763.324442186736
-------------------------   --------------------


                            ***************************************
                            *     ORCA property calculations      *
                            ***************************************

                                    ---------------------
                                    Active property flags
                                    ---------------------
   (+) Dipole Moment


------------------------------------------------------------------------------
                       ORCA ELECTRIC PROPERTIES CALCULATION
------------------------------------------------------------------------------

Dipole Moment Calculation                       ... on
Quadrupole Moment Calculation                   ... off
Polarizability Calculation                      ... off
GBWName                                         ... pbeh-3c.gbw
Electron density                                ... pbeh-3c.scfp
The origin for moment calculation is the CENTER OF MASS  = ( 0.206641,  0.407052 -0.175267)

-------------
DIPOLE MOMENT
-------------
                                X             Y             Z
Electronic contribution:      5.10216       7.27644      -2.37857
Nuclear contribution   :     -4.50294      -7.53400       2.89669
                        -----------------------------------------
Total Dipole Moment    :      0.59921      -0.25756       0.51812
                        -----------------------------------------
Magnitude (a.u.)       :      0.83297
Magnitude (Debye)      :      2.11725



--------------------
Rotational spectrum 
--------------------
 
Rotational constants in cm-1:     0.028039     0.007054     0.005812 
Rotational constants in MHz :   840.599886   211.477680   174.250638 

 Dipole components along the rotational axes: 
x,y,z [a.u.] :     0.599763    -0.247148     0.522537 
x,y,z [Debye]:     1.524476    -0.628201     1.328184 

 

Timings for individual modules:

Sum of individual times         ...      278.304 sec (=   4.638 min)
GTO integral calculation        ...        2.316 sec (=   0.039 min)   0.8 %
SCF iterations                  ...      275.989 sec (=   4.600 min)  99.2 %
                             ****ORCA TERMINATED NORMALLY****
TOTAL RUN TIME: 0 days 0 hours 4 minutes 39 seconds 599 msec
