
                                 *****************
                                 * O   R   C   A *
                                 *****************

                                            #,                                       
                                            ###                                      
                                            ####                                     
                                            #####                                    
                                            ######                                   
                                           ########,                                 
                                     ,,################,,,,,                         
                               ,,#################################,,                 
                          ,,##########################################,,             
                       ,#########################################, ''#####,          
                    ,#############################################,,   '####,        
                  ,##################################################,,,,####,       
                ,###########''''           ''''###############################       
              ,#####''   ,,,,##########,,,,          '''####'''          '####       
            ,##' ,,,,###########################,,,                        '##       
           ' ,,###''''                  '''############,,,                           
         ,,##''                                '''############,,,,        ,,,,,,###''
      ,#''                                            '''#######################'''  
     '                                                          ''''####''''         
             ,#######,   #######,   ,#######,      ##                                
            ,#'     '#,  ##    ##  ,#'     '#,    #''#        ######   ,####,        
            ##       ##  ##   ,#'  ##            #'  '#       #        #'  '#        
            ##       ##  #######   ##           ,######,      #####,   #    #        
            '#,     ,#'  ##    ##  '#,     ,#' ,#      #,         ##   #,  ,#        
             '#######'   ##     ##  '#######'  #'      '#     #####' # '####'        



                  #######################################################
                  #                        -***-                        #
                  #          Department of theory and spectroscopy      #
                  #    Directorship and core code : Frank Neese         #
                  #        Max Planck Institute fuer Kohlenforschung    #
                  #                Kaiser Wilhelm Platz 1               #
                  #                 D-45470 Muelheim/Ruhr               #
                  #                      Germany                        #
                  #                                                     #
                  #                  All rights reserved                #
                  #                        -***-                        #
                  #######################################################


                         Program Version 5.0.3 -  RELEASE  -


 With contributions from (in alphabetic order):
   Daniel Aravena         : Magnetic Suceptibility
   Michael Atanasov       : Ab Initio Ligand Field Theory (pilot matlab implementation)
   Alexander A. Auer      : GIAO ZORA, VPT2 properties, NMR spectrum
   Ute Becker             : Parallelization
   Giovanni Bistoni       : ED, misc. LED, open-shell LED, HFLD
   Martin Brehm           : Molecular dynamics
   Dmytro Bykov           : SCF Hessian
   Vijay G. Chilkuri      : MRCI spin determinant printing, contributions to CSF-ICE
   Dipayan Datta          : RHF DLPNO-CCSD density
   Achintya Kumar Dutta   : EOM-CC, STEOM-CC
   Dmitry Ganyushin       : Spin-Orbit,Spin-Spin,Magnetic field MRCI
   Miquel Garcia          : C-PCM and meta-GGA Hessian, CC/C-PCM, Gaussian charge scheme
   Yang Guo               : DLPNO-NEVPT2, F12-NEVPT2, CIM, IAO-localization
   Andreas Hansen         : Spin unrestricted coupled pair/coupled cluster methods
   Benjamin Helmich-Paris : MC-RPA, TRAH-SCF, COSX integrals
   Lee Huntington         : MR-EOM, pCC
   Robert Izsak           : Overlap fitted RIJCOSX, COSX-SCS-MP3, EOM
   Marcus Kettner         : VPT2
   Christian Kollmar      : KDIIS, OOCD, Brueckner-CCSD(T), CCSD density, CASPT2, CASPT2-K
   Simone Kossmann        : Meta GGA functionals, TD-DFT gradient, OOMP2, MP2 Hessian
   Martin Krupicka        : Initial AUTO-CI
   Lucas Lang             : DCDCAS
   Marvin Lechner         : AUTO-CI (C++ implementation), FIC-MRCC
   Dagmar Lenk            : GEPOL surface, SMD
   Dimitrios Liakos       : Extrapolation schemes; Compound Job, initial MDCI parallelization
   Dimitrios Manganas     : Further ROCIS development; embedding schemes
   Dimitrios Pantazis     : SARC Basis sets
   Anastasios Papadopoulos: AUTO-CI, single reference methods and gradients
   Taras Petrenko         : DFT Hessian,TD-DFT gradient, ASA, ECA, R-Raman, ABS, FL, XAS/XES, NRVS
   Peter Pinski           : DLPNO-MP2, DLPNO-MP2 Gradient
   Christoph Reimann      : Effective Core Potentials
   Marius Retegan         : Local ZFS, SOC
   Christoph Riplinger    : Optimizer, TS searches, QM/MM, DLPNO-CCSD(T), (RO)-DLPNO pert. Triples
   Tobias Risthaus        : Range-separated hybrids, TD-DFT gradient, RPA, STAB
   Michael Roemelt        : Original ROCIS implementation
   Masaaki Saitow         : Open-shell DLPNO-CCSD energy and density
   Barbara Sandhoefer     : DKH picture change effects
   Avijit Sen             : IP-ROCIS
   Kantharuban Sivalingam : CASSCF convergence, NEVPT2, FIC-MRCI
   Bernardo de Souza      : ESD, SOC TD-DFT
   Georgi Stoychev        : AutoAux, RI-MP2 NMR, DLPNO-MP2 response
   Willem Van den Heuvel  : Paramagnetic NMR
   Boris Wezisla          : Elementary symmetry handling
   Frank Wennmohs         : Technical directorship


 We gratefully acknowledge several colleagues who have allowed us to
 interface, adapt or use parts of their codes:
   Stefan Grimme, W. Hujo, H. Kruse, P. Pracht,  : VdW corrections, initial TS optimization,
                  C. Bannwarth, S. Ehlert          DFT functionals, gCP, sTDA/sTD-DF
   Ed Valeev, F. Pavosevic, A. Kumar             : LibInt (2-el integral package), F12 methods
   Garnet Chan, S. Sharma, J. Yang, R. Olivares  : DMRG
   Ulf Ekstrom                                   : XCFun DFT Library
   Mihaly Kallay                                 : mrcc  (arbitrary order and MRCC methods)
   Jiri Pittner, Ondrej Demel                    : Mk-CCSD
   Frank Weinhold                                : gennbo (NPA and NBO analysis)
   Christopher J. Cramer and Donald G. Truhlar   : smd solvation model
   Lars Goerigk                                  : TD-DFT with DH, B97 family of functionals
   V. Asgeirsson, H. Jonsson                     : NEB implementation
   FAccTs GmbH                                   : IRC, NEB, NEB-TS, DLPNO-Multilevel, CI-OPT
                                                   MM, QMMM, 2- and 3-layer-ONIOM, Crystal-QMMM,
                                                   LR-CPCM, SF, NACMEs, symmetry and pop. for TD-DFT,
                                                   nearIR, NL-DFT gradient (VV10), updates on ESD,
                                                   ML-optimized integration grids
   S Lehtola, MJT Oliveira, MAL Marques          : LibXC Library
   Liviu Ungur et al                             : ANISO software


 Your calculation uses the libint2 library for the computation of 2-el integrals
 For citations please refer to: http://libint.valeyev.net

 Your ORCA version has been built with support for libXC version: 5.1.0
 For citations please refer to: https://tddft.org/programs/libxc/

 This ORCA versions uses:
   CBLAS   interface :  Fast vector & matrix operations
   LAPACKE interface :  Fast linear algebra routines
   SCALAPACK package :  Parallel linear algebra routines
   Shared memory     :  Shared parallel matrices
   BLAS/LAPACK       :  OpenBLAS 0.3.15  USE64BITINT DYNAMIC_ARCH NO_AFFINITY Haswell SINGLE_THREADED
        Core in use  :  Haswell
   Copyright (c) 2011-2014, The OpenBLAS Project




***************************************
The coordinates will be read from file: PCH_PhBr.xyz
***************************************


Your calculation utilizes the geometrical counterpoise correction gCP
Please cite in your paper:
H.Kruse, S. Grimme J.Chem.Phys., 136, (2012), 154101 
   

Your calculation utilizes the atom-pairwise dispersion correction
with the Becke-Johnson damping scheme (D3BJ)
Cite in your paper:
S.Grimme, S.Ehrlich, L.Goerigk, J Comput Chem, (2011), 32, 1456–1465 
S.Grimme, J.Antony, S.Ehrlich and H.Krieg, J.Chem.Phys., 132, (2010), 154104 
   

Your calculation employs the composite approach PBEh-3c.
Please cite in your paper:
S. Grimme, J. G. Brandenburg, C. Bannwarth, A. Hansen J.Chem.Phys., 143, (2015), 054107 
   

================================================================================

----- Orbital basis set information -----
Your calculation utilizes the basis: def2-mSVP

----- AuxJ basis set information -----
Your calculation utilizes the auxiliary basis: def2/J
   F. Weigend, Phys. Chem. Chem. Phys. 8, 1057 (2006).

================================================================================
                                        WARNINGS
                       Please study these warnings very carefully!
================================================================================


INFO   : the flag for use of the SHARK integral package has been found!

================================================================================
                                       INPUT FILE
================================================================================
NAME = pbeh-3c.inp
|  1> ! PBEh-3c def2/J TightSCF DefGrid3
|  2> 
|  3> %maxcore 60000
|  4> 
|  5> %pal
|  6> nprocs 4
|  7> end
|  8> 
|  9> *xyzfile 0 1 PCH_PhBr.xyz
| 10> 
| 11>                          ****END OF INPUT****
================================================================================

                       ****************************
                       * Single Point Calculation *
                       ****************************

---------------------------------
CARTESIAN COORDINATES (ANGSTROEM)
---------------------------------
  P      0.000000    0.000000    4.090124
  C      0.000000    0.000000    5.615514
  H      0.000000    0.000000    6.687190
  Br     0.000000    0.000000    0.456500
  C      0.000000    0.000000   -1.436207
  C      0.000000    1.206707   -2.115479
  C      0.000000    1.199571   -3.502377
  C      0.000000    0.000000   -4.197678
  C      0.000000   -1.199571   -3.502377
  C      0.000000   -1.206707   -2.115479
  H      0.000000    2.138992   -1.567432
  H      0.000000    2.139733   -4.038684
  H      0.000000    0.000000   -5.279811
  H      0.000000   -2.139733   -4.038684
  H      0.000000   -2.138992   -1.567432

----------------------------
CARTESIAN COORDINATES (A.U.)
----------------------------
  NO LB      ZA    FRAG     MASS         X           Y           Z
   0 P    15.0000    0    30.974    0.000000    0.000000    7.729214
   1 C     6.0000    0    12.011    0.000000    0.000000   10.611783
   2 H     1.0000    0     1.008    0.000000    0.000000   12.636959
   3 Br   35.0000    0    79.900    0.000000    0.000000    0.862660
   4 C     6.0000    0    12.011    0.000000    0.000000   -2.714038
   5 C     6.0000    0    12.011    0.000000    2.280346   -3.997676
   6 C     6.0000    0    12.011    0.000000    2.266860   -6.618533
   7 C     6.0000    0    12.011    0.000000    0.000000   -7.932461
   8 C     6.0000    0    12.011    0.000000   -2.266860   -6.618533
   9 C     6.0000    0    12.011    0.000000   -2.280346   -3.997676
  10 H     1.0000    0     1.008    0.000000    4.042109   -2.962017
  11 H     1.0000    0     1.008    0.000000    4.043509   -7.632006
  12 H     1.0000    0     1.008    0.000000    0.000000   -9.977396
  13 H     1.0000    0     1.008    0.000000   -4.043509   -7.632006
  14 H     1.0000    0     1.008    0.000000   -4.042109   -2.962017

--------------------------------
INTERNAL COORDINATES (ANGSTROEM)
--------------------------------
 P      0   0   0     0.000000000000     0.00000000     0.00000000
 C      1   0   0     1.525389900000     0.00000000     0.00000000
 H      2   1   0     1.071676900000   180.00000000     0.00000000
 Br     1   2   3     3.633623700000   180.00000000     0.00000000
 C      4   1   2     1.892706900000   180.00000000     0.00000000
 C      5   4   1     1.384757015686   119.37576196     0.00000000
 C      6   5   4     1.386916258294   119.08096082   180.00000085
 C      7   6   5     1.386511336293   120.39244052     0.00000000
 C      8   7   6     1.386511336293   119.80472123     0.00000000
 C      5   4   6     1.384757015686   119.37576196   180.00000121
 H      6   5   4     1.081439156392   120.17494491     0.00000000
 H      7   6   5     1.082372158363   119.40740689   180.00000000
 H      8   7   6     1.082132900000   120.09763938   180.00000000
 H      9   8   7     1.082372158363   120.20015259   180.00000085
 H     10   5   4     1.081439156392   120.17494491     0.00000000

---------------------------
INTERNAL COORDINATES (A.U.)
---------------------------
 P      0   0   0     0.000000000000     0.00000000     0.00000000
 C      1   0   0     2.882569158450     0.00000000     0.00000000
 H      2   1   0     2.025175845050   180.00000000     0.00000000
 Br     1   2   3     6.866553666726   180.00000000     0.00000000
 C      4   1   2     3.576697692783   180.00000000     0.00000000
 C      5   4   1     2.616811521673   119.37576196     0.00000000
 C      6   5   4     2.620891898859   119.08096082   180.00000085
 C      7   6   5     2.620126707170   120.39244052     0.00000000
 C      8   7   6     2.620126707170   119.80472123     0.00000000
 C      5   4   6     2.616811521673   119.37576196   180.00000121
 H      6   5   4     2.043623836079   120.17494491     0.00000000
 H      7   6   5     2.045386954287   119.40740689   180.00000000
 H      8   7   6     2.044934821506   120.09763938   180.00000000
 H      9   8   7     2.045386954287   120.20015259   180.00000085
 H     10   5   4     2.043623836079   120.17494491     0.00000000

---------------------
BASIS SET INFORMATION
---------------------
There are 4 groups of distinct atoms

 Group   1 Type P   : 10s7p1d contracted to 4s3p1d pattern {5311/511/1}
 Group   2 Type C   : 8s4p1d contracted to 4s2p1d pattern {5111/31/1}
 Group   3 Type H   : 4s contracted to 2s pattern {31}
 Group   4 Type Br  : 14s10p6d contracted to 5s4p3d pattern {63311/5311/411}

Atom   0P    basis set group =>   1
Atom   1C    basis set group =>   2
Atom   2H    basis set group =>   3
Atom   3Br   basis set group =>   4
Atom   4C    basis set group =>   2
Atom   5C    basis set group =>   2
Atom   6C    basis set group =>   2
Atom   7C    basis set group =>   2
Atom   8C    basis set group =>   2
Atom   9C    basis set group =>   2
Atom  10H    basis set group =>   3
Atom  11H    basis set group =>   3
Atom  12H    basis set group =>   3
Atom  13H    basis set group =>   3
Atom  14H    basis set group =>   3
---------------------------------
AUXILIARY/J BASIS SET INFORMATION
---------------------------------
There are 4 groups of distinct atoms

 Group   1 Type P   : 14s5p5d2f1g contracted to 8s4p3d1f1g pattern {71111111/2111/311/2/1}
 Group   2 Type C   : 12s5p4d2f1g contracted to 6s4p3d1f1g pattern {711111/2111/211/2/1}
 Group   3 Type H   : 5s2p1d contracted to 3s1p1d pattern {311/2/1}
 Group   4 Type Br  : 19s5p5d3f1g contracted to 8s4p3d2f1g pattern {121111111/2111/311/21/1}

Atom   0P    basis set group =>   1
Atom   1C    basis set group =>   2
Atom   2H    basis set group =>   3
Atom   3Br   basis set group =>   4
Atom   4C    basis set group =>   2
Atom   5C    basis set group =>   2
Atom   6C    basis set group =>   2
Atom   7C    basis set group =>   2
Atom   8C    basis set group =>   2
Atom   9C    basis set group =>   2
Atom  10H    basis set group =>   3
Atom  11H    basis set group =>   3
Atom  12H    basis set group =>   3
Atom  13H    basis set group =>   3
Atom  14H    basis set group =>   3


           ************************************************************
           *        Program running with 4 parallel MPI-processes     *
           *              working on a common directory               *
           ************************************************************
------------------------------------------------------------------------------
                           ORCA GTO INTEGRAL CALCULATION
                           -- RI-GTO INTEGRALS CHOSEN --
------------------------------------------------------------------------------
------------------------------------------------------------------------------
                   ___                                                        
                  /   \      - P O W E R E D   B Y -                         
                 /     \                                                     
                 |  |  |   _    _      __       _____    __    __             
                 |  |  |  | |  | |    /  \     |  _  \  |  |  /  |          
                  \  \/   | |  | |   /    \    | | | |  |  | /  /          
                 / \  \   | |__| |  /  /\  \   | |_| |  |  |/  /          
                |  |  |   |  __  | /  /__\  \  |    /   |      \           
                |  |  |   | |  | | |   __   |  |    \   |  |\   \          
                \     /   | |  | | |  |  |  |  | |\  \  |  | \   \       
                 \___/    |_|  |_| |__|  |__|  |_| \__\ |__|  \__/        
                                                                              
                      - O R C A' S   B I G   F R I E N D -                    
                                      &                                       
                       - I N T E G R A L  F E E D E R -                       
                                                                              
 v1 FN, 2020, v2 2021                                                         
------------------------------------------------------------------------------


Reading SHARK input file pbeh-3c.SHARKINP.tmp ... ok
----------------------
SHARK INTEGRAL PACKAGE
----------------------

Number of atoms                             ...     15
Number of basis functions                   ...    167
Number of shells                            ...     81
Maximum angular momentum                    ...      2
Integral batch strategy                     ... SHARK/LIBINT Hybrid
RI-J (if used) integral strategy            ... SPLIT-RIJ (Revised 2003 algorithm where possible)
Printlevel                                  ...      1
Contraction scheme used                     ... SEGMENTED contraction
Coulomb Range Separation                    ... NOT USED
Exchange Range Separation                   ... NOT USED
Finite Nucleus Model                        ... NOT USED
Auxiliary Coulomb fitting basis             ... AVAILABLE
   # of basis functions in Aux-J            ...    518
   # of shells in Aux-J                     ...    170
   Maximum angular momentum in Aux-J        ...      4
Auxiliary J/K fitting basis                 ... NOT available
Auxiliary Correlation fitting basis         ... NOT available
Auxiliary 'external' fitting basis          ... NOT available
Integral threshold                          ...     2.500000e-11
Primitive cut-off                           ...     2.500000e-12
Primitive pair pre-selection threshold      ...     2.500000e-12

Calculating pre-screening integrals         ... done (  0.0 sec) Dimension = 81
Organizing shell pair data                  ... done (  0.6 sec)
Shell pair information
Total number of shell pairs                 ...      3321
Shell pairs after pre-screening             ...      2394
Total number of primitive shell pairs       ...     13538
Primitive shell pairs kept                  ...      6640
          la=0 lb=0:    819 shell pairs
          la=1 lb=0:    774 shell pairs
          la=1 lb=1:    197 shell pairs
          la=2 lb=0:    372 shell pairs
          la=2 lb=1:    183 shell pairs
          la=2 lb=2:     49 shell pairs

Calculating one electron integrals          ... done (  0.0 sec)
Calculating RI/J V-Matrix + Cholesky decomp.... done (  0.7 sec)
Calculating Nuclear repulsion               ... done (  0.0 sec) ENN=    636.152400948401 Eh

SHARK setup successfully completed in   3.1 seconds

Maximum memory used throughout the entire GTOINT-calculation: 12.1 MB


           ************************************************************
           *        Program running with 4 parallel MPI-processes     *
           *              working on a common directory               *
           ************************************************************
-------------------------------------------------------------------------------
                                 ORCA SCF
-------------------------------------------------------------------------------

------------
SCF SETTINGS
------------
Hamiltonian:
 Density Functional     Method          .... DFT(GTOs)
 Exchange Functional    Exchange        .... PBE
   PBE kappa parameter   XKappa         ....  1.024500
   PBE mue parameter    XMuePBE         ....  0.123457
 Correlation Functional Correlation     .... PBE
   PBE beta parameter  CBetaPBE         ....  0.030000
 LDA part of GGA corr.  LDAOpt          .... PW91-LDA
 Gradients option       PostSCFGGA      .... off
 Hybrid DFT is turned on
   Fraction HF Exchange ScalHFX         ....  0.420000
   Scaling of DF-GGA-X  ScalDFX         ....  0.580000
   Scaling of DF-GGA-C  ScalDFC         ....  1.000000
   Scaling of DF-LDA-C  ScalLDAC        ....  1.000000
   Perturbative correction              ....  0.000000
   Density functional embedding theory  .... OFF
 RI-approximation to the Coulomb term is turned on
   Number of AuxJ basis functions       .... 518
   RIJ-ON(X) (HFX calculated with O(N)) .... on
   Number of AuxJ basis functions       .... 518
   RIJ-COSX (HFX calculated with COS-X)).... on


General Settings:
 Integral files         IntName         .... pbeh-3c
 Hartree-Fock type      HFTyp           .... RHF
 Total Charge           Charge          ....    0
 Multiplicity           Mult            ....    1
 Number of Electrons    NEL             ....   98
 Basis Dimension        Dim             ....  167
 Nuclear Repulsion      ENuc            ....    636.1524009484 Eh

Convergence Acceleration:
 DIIS                   CNVDIIS         .... on
   Start iteration      DIISMaxIt       ....    12
   Startup error        DIISStart       ....  0.200000
   # of expansion vecs  DIISMaxEq       ....     5
   Bias factor          DIISBfac        ....   1.050
   Max. coefficient     DIISMaxC        ....  10.000
 Trust-Rad. Augm. Hess. CNVTRAH         .... auto
   Auto Start mean grad. ratio tolernc. ....  1.125000
   Auto Start start iteration           ....    20
   Auto Start num. interpolation iter.  ....    10
   Max. Number of Micro iterations      ....    16
   Max. Number of Macro iterations      .... Maxiter - #DIIS iter
   Number of Davidson start vectors     ....     2
   Converg. threshold I  (grad. norm)   ....   1.000e-05
   Converg. threshold II (energy diff.) ....   1.000e-08
   Grad. Scal. Fac. for Micro threshold ....   0.100
   Minimum threshold for Micro iter.    ....   0.010
   NR start threshold (gradient norm)   ....   0.001
   Initial trust radius                 ....   0.400
   Minimum AH scaling param. (alpha)    ....   1.000
   Maximum AH scaling param. (alpha)    .... 1000.000
   Orbital update algorithm             .... Taylor
   White noise on init. David. guess    .... on
   Maximum white noise                  ....   0.010
   Quad. conv. algorithm                .... NR
   COSX micro iterations for RIJONX calc.... off
 SOSCF                  CNVSOSCF        .... on
   Start iteration      SOSCFMaxIt      ....   150
   Startup grad/error   SOSCFStart      ....  0.003300
 Level Shifting         CNVShift        .... on
   Level shift para.    LevelShift      ....    0.2500
   Turn off err/grad.   ShiftErr        ....    0.0010
 Zerner damping         CNVZerner       .... off
 Static damping         CNVDamp         .... on
   Fraction old density DampFac         ....    0.7000
   Max. Damping (<1)    DampMax         ....    0.9800
   Min. Damping (>=0)   DampMin         ....    0.0000
   Turn off err/grad.   DampErr         ....    0.1000
 Fernandez-Rico         CNVRico         .... off

SCF Procedure:
 Maximum # iterations   MaxIter         ....   125
 SCF integral mode      SCFMode         .... Direct
   Integral package                     .... SHARK and LIBINT hybrid scheme
 Reset frequency        DirectResetFreq ....    20
 Integral Threshold     Thresh          ....  2.500e-11 Eh
 Primitive CutOff       TCut            ....  2.500e-12 Eh

Convergence Tolerance:
 Convergence Check Mode ConvCheckMode   .... Total+1el-Energy
 Convergence forced     ConvForced      .... 0
 Energy Change          TolE            ....  1.000e-08 Eh
 1-El. energy change                    ....  1.000e-05 Eh
 Orbital Gradient       TolG            ....  1.000e-05
 Orbital Rotation angle TolX            ....  1.000e-05
 DIIS Error             TolErr          ....  5.000e-07


Diagonalization of the overlap matrix:
Smallest eigenvalue                        ... 4.575e-04
Time for diagonalization                   ...    0.005 sec
Threshold for overlap eigenvalues          ... 1.000e-08
Number of eigenvalues below threshold      ... 0
Time for construction of square roots      ...    0.285 sec
Total time needed                          ...    0.291 sec

--------------------------------
INITIAL GUESS: MINIMAL BASIS EHT
--------------------------------
The minimal basis has 68 functions
EHT matrix was diagonalized
Basis set overlap was calculated now projecting the orbitals
Using GuessMode=FMatrix for the initial guess
C*T matrix was formed
Effective Fockian was calculated
Effective Fockian was diagonalized
Initial density was built
                      ------------------
                      INITIAL GUESS DONE
                      ------------------
-------------------
DFT GRID GENERATION
-------------------

General Integration Accuracy     IntAcc      ... 4.959
Radial Grid Type                 RadialGrid  ... OptM3 with GC (2021)
Angular Grid (max. ang.)         AngularGrid ... 6 (Lebedev-590)
Angular grid pruning method      GridPruning ... 4 (adaptive)
Weight generation scheme         WeightScheme... Becke
Basis function cutoff            BFCut       ... 1.0000e-11
Integration weight cutoff        WCut        ... 1.0000e-14
Angular grids for H and He will be reduced by one unit
Partially contracted basis set               ... off
Rotationally invariant grid construction     ... off

Total number of grid points                  ...   197165
Total number of batches                      ...     3088
Average number of points per batch           ...       63
Average number of grid points per atom       ...    13144
Time for grid setup =    4.441 sec

--------------------
COSX GRID GENERATION
--------------------

GRIDX 1
-------
General Integration Accuracy     IntAcc      ... 4.020
Radial Grid Type                 RadialGrid  ... OptM3 with GC (2021)
Angular Grid (max. ang.)         AngularGrid ... 2 (Lebedev-110)
Angular grid pruning method      GridPruning ... 4 (adaptive)
Weight generation scheme         WeightScheme... Becke
Basis function cutoff            BFCut       ... 1.0000e-11
Integration weight cutoff        WCut        ... 1.0000e-14
Angular grids for H and He will be reduced by one unit
Partially contracted basis set               ... on
Rotationally invariant grid construction     ... off

Total number of grid points                  ...    21914
Total number of batches                      ...      348
Average number of points per batch           ...       62
Average number of grid points per atom       ...     1461
UseSFitting                                  ... on

GRIDX 2
-------
General Integration Accuracy     IntAcc      ... 4.338
Radial Grid Type                 RadialGrid  ... OptM3 with GC (2021)
Angular Grid (max. ang.)         AngularGrid ... 3 (Lebedev-194)
Angular grid pruning method      GridPruning ... 4 (adaptive)
Weight generation scheme         WeightScheme... Becke
Basis function cutoff            BFCut       ... 1.0000e-11
Integration weight cutoff        WCut        ... 1.0000e-14
Angular grids for H and He will be reduced by one unit
Partially contracted basis set               ... on
Rotationally invariant grid construction     ... off

Total number of grid points                  ...    49122
Total number of batches                      ...      775
Average number of points per batch           ...       63
Average number of grid points per atom       ...     3275
UseSFitting                                  ... on

GRIDX 3
-------
General Integration Accuracy     IntAcc      ... 4.871
Radial Grid Type                 RadialGrid  ... OptM3 with GC (2021)
Angular Grid (max. ang.)         AngularGrid ... 4 (Lebedev-302)
Angular grid pruning method      GridPruning ... 4 (adaptive)
Weight generation scheme         WeightScheme... Becke
Basis function cutoff            BFCut       ... 1.0000e-11
Integration weight cutoff        WCut        ... 1.0000e-14
Angular grids for H and He will be reduced by one unit
Partially contracted basis set               ... on
Rotationally invariant grid construction     ... off

Total number of grid points                  ...    92579
Total number of batches                      ...     1454
Average number of points per batch           ...       63
Average number of grid points per atom       ...     6172
UseSFitting                                  ... on

Time for X-Grid setup             =    4.600 sec

--------------
SCF ITERATIONS
--------------
ITER       Energy         Delta-E        Max-DP      RMS-DP      [F,P]     Damp
               ***  Starting incremental Fock matrix formation  ***
  0  -3180.6262367921   0.000000000000 0.17699281  0.00592911  1.8479977 0.7000
  1  -3181.6566348291  -1.030398036973 0.13243965  0.00400119  1.0019428 0.7000
  2  -3182.2709689883  -0.614334159199 0.15088439  0.00290178  0.5489679 0.7000
  3  -3182.6829375826  -0.411968594312 0.13464523  0.00216731  0.3109629 0.7000
                               ***Turning on DIIS***
  4  -3182.9695160594  -0.286578476824 0.10764994  0.00160957  0.1820438 0.7000
  5  -3183.1701819900  -0.200665930547 0.08752616  0.00124792  0.1096213 0.7000
  6  -3183.3109665195  -0.140784529476 0.21346057  0.00307149  0.0785367 0.0000
  7  -3183.6422881340  -0.331321614522 0.00658889  0.00014103  0.0047519 0.0000
                      *** Initiating the SOSCF procedure ***
                           *** Shutting down DIIS ***
                      *** Re-Reading the Fockian *** 
                      *** Removing any level shift *** 
ITER      Energy       Delta-E        Grad      Rot      Max-DP    RMS-DP
  8  -3183.64240871  -0.0001205739  0.001097  0.001097  0.003277  0.000057
               *** Restarting incremental Fock matrix formation ***
  9  -3183.64241572  -0.0000070135  0.000419  0.001107  0.002025  0.000052
 10  -3183.64241638  -0.0000006551  0.001127  0.001499  0.001484  0.000028
 11  -3183.64242405  -0.0000076783  0.000148  0.000230  0.000267  0.000008
 12  -3183.64242422  -0.0000001648  0.000094  0.000126  0.000131  0.000003
 13  -3183.64242426  -0.0000000410  0.000032  0.000082  0.000049  0.000002
 14  -3183.64242427  -0.0000000093  0.000032  0.000013  0.000045  0.000001
 15  -3183.64242428  -0.0000000067  0.000006  0.000007  0.000020  0.000000
                  ***Gradient check signals convergence***
              ***Rediagonalizing the Fockian in SOSCF/NRSCF***

               *****************************************************
               *                     SUCCESS                       *
               *           SCF CONVERGED AFTER  16 CYCLES          *
               *****************************************************

Old exchange energy                            =    -63.233993222 Eh
New exchange energy                            =    -63.233980491 Eh
Exchange energy change after final integration =      0.000012731 Eh
Total energy after final integration           =  -3183.642411543 Eh
Final COS-X integration done in                =     5.020 sec

----------------
TOTAL SCF ENERGY
----------------

Total Energy       :        -3183.64241154 Eh          -86631.31427 eV

Components:
Nuclear Repulsion  :          636.15240095 Eh           17310.58688 eV
Electronic Energy  :        -3819.79481249 Eh         -103941.90115 eV
One Electron Energy:        -5683.08059778 Eh         -154644.48504 eV
Two Electron Energy:         1863.28578529 Eh           50702.58389 eV
Max COSX asymmetry :            0.00000205 Eh               0.00006 eV

Virial components:
Potential Energy   :        -6362.93227813 Eh         -173144.18977 eV
Kinetic Energy     :         3179.28986659 Eh           86512.87550 eV
Virial Ratio       :            2.00136903


DFT components:
N(Alpha)           :       49.000001327029 electrons
N(Beta)            :       49.000001327029 electrons
N(Total)           :       98.000002654058 electrons
E(X)               :      -84.735018242183 Eh       
E(C)               :       -5.030169877329 Eh       
E(XC)              :      -89.765188119511 Eh       
DFET-embed. en.    :        0.000000000000 Eh       

---------------
SCF CONVERGENCE
---------------

  Last Energy change         ...    3.2096e-09  Tolerance :   1.0000e-08
  Last MAX-Density change    ...    5.3291e-15  Tolerance :   1.0000e-07
  Last RMS-Density change    ...    7.8723e-17  Tolerance :   5.0000e-09
  Last Orbital Gradient      ...    1.1506e-06  Tolerance :   1.0000e-05
  Last Orbital Rotation      ...    1.8202e-06  Tolerance :   1.0000e-05

             **** THE GBW FILE WAS UPDATED (pbeh-3c.gbw) ****
             **** DENSITY pbeh-3c.scfp WAS UPDATED ****
             **** ENERGY FILE WAS UPDATED (pbeh-3c.en.tmp) ****
             **** THE GBW FILE WAS UPDATED (pbeh-3c.gbw) ****
             **** DENSITY pbeh-3c.scfp WAS UPDATED ****
----------------
ORBITAL ENERGIES
----------------

  NO   OCC          E(Eh)            E(eV) 
   0   2.0000    -484.528577    -13184.6929 
   1   2.0000     -77.742353     -2115.4770 
   2   2.0000     -63.191367     -1719.5245 
   3   2.0000     -56.895432     -1548.2034 
   4   2.0000     -56.893528     -1548.1516 
   5   2.0000     -56.893467     -1548.1499 
   6   2.0000     -10.510290      -285.9995 
   7   2.0000     -10.482285      -285.2375 
   8   2.0000     -10.464020      -284.7404 
   9   2.0000     -10.463983      -284.7394 
  10   2.0000     -10.462280      -284.6931 
  11   2.0000     -10.462207      -284.6911 
  12   2.0000     -10.459187      -284.6089 
  13   2.0000      -9.020466      -245.4594 
  14   2.0000      -6.820335      -185.5907 
  15   2.0000      -6.794826      -184.8966 
  16   2.0000      -6.782462      -184.5602 
  17   2.0000      -6.782373      -184.5578 
  18   2.0000      -4.909740      -133.6008 
  19   2.0000      -4.909740      -133.6008 
  20   2.0000      -4.909574      -133.5963 
  21   2.0000      -2.808565       -76.4249 
  22   2.0000      -2.804695       -76.3196 
  23   2.0000      -2.804582       -76.3166 
  24   2.0000      -2.793998       -76.0285 
  25   2.0000      -2.793991       -76.0284 
  26   2.0000      -0.982446       -26.7337 
  27   2.0000      -0.899774       -24.4841 
  28   2.0000      -0.855448       -23.2779 
  29   2.0000      -0.814553       -22.1651 
  30   2.0000      -0.801399       -21.8072 
  31   2.0000      -0.701226       -19.0813 
  32   2.0000      -0.679439       -18.4885 
  33   2.0000      -0.606374       -16.5003 
  34   2.0000      -0.597053       -16.2466 
  35   2.0000      -0.536124       -14.5887 
  36   2.0000      -0.529428       -14.4065 
  37   2.0000      -0.499042       -13.5796 
  38   2.0000      -0.482818       -13.1381 
  39   2.0000      -0.451067       -12.2741 
  40   2.0000      -0.418256       -11.3813 
  41   2.0000      -0.418157       -11.3786 
  42   2.0000      -0.398190       -10.8353 
  43   2.0000      -0.366948        -9.9852 
  44   2.0000      -0.339728        -9.2445 
  45   2.0000      -0.327073        -8.9001 
  46   2.0000      -0.326692        -8.8897 
  47   2.0000      -0.309360        -8.4181 
  48   2.0000      -0.287072        -7.8116 
  49   0.0000      -0.019233        -0.5234 
  50   0.0000      -0.019113        -0.5201 
  51   0.0000       0.004767         0.1297 
  52   0.0000       0.004990         0.1358 
  53   0.0000       0.032402         0.8817 
  54   0.0000       0.141845         3.8598 
  55   0.0000       0.163230         4.4417 
  56   0.0000       0.170286         4.6337 
  57   0.0000       0.181694         4.9441 
  58   0.0000       0.190973         5.1966 
  59   0.0000       0.206489         5.6189 
  60   0.0000       0.223483         6.0813 
  61   0.0000       0.230164         6.2631 
  62   0.0000       0.270511         7.3610 
  63   0.0000       0.306275         8.3342 
  64   0.0000       0.306920         8.3517 
  65   0.0000       0.315183         8.5766 
  66   0.0000       0.331773         9.0280 
  67   0.0000       0.413004        11.2384 
  68   0.0000       0.416196        11.3253 
  69   0.0000       0.499647        13.5961 
  70   0.0000       0.516260        14.0481 
  71   0.0000       0.528158        14.3719 
  72   0.0000       0.528198        14.3730 
  73   0.0000       0.533841        14.5265 
  74   0.0000       0.538159        14.6441 
  75   0.0000       0.545575        14.8458 
  76   0.0000       0.547751        14.9051 
  77   0.0000       0.572204        15.5705 
  78   0.0000       0.587222        15.9791 
  79   0.0000       0.587283        15.9808 
  80   0.0000       0.602746        16.4015 
  81   0.0000       0.610215        16.6048 
  82   0.0000       0.610869        16.6226 
  83   0.0000       0.610875        16.6227 
  84   0.0000       0.614167        16.7123 
  85   0.0000       0.622267        16.9328 
  86   0.0000       0.633917        17.2498 
  87   0.0000       0.634253        17.2589 
  88   0.0000       0.663079        18.0433 
  89   0.0000       0.664141        18.0722 
  90   0.0000       0.671580        18.2746 
  91   0.0000       0.687451        18.7065 
  92   0.0000       0.702308        19.1108 
  93   0.0000       0.705881        19.2080 
  94   0.0000       0.719912        19.5898 
  95   0.0000       0.734624        19.9901 
  96   0.0000       0.758424        20.6378 
  97   0.0000       0.767041        20.8722 
  98   0.0000       0.781716        21.2716 
  99   0.0000       0.787437        21.4273 
 100   0.0000       0.880513        23.9600 
 101   0.0000       0.915497        24.9119 
 102   0.0000       0.940314        25.5873 
 103   0.0000       0.952277        25.9128 
 104   0.0000       0.962575        26.1930 
 105   0.0000       0.982552        26.7366 
 106   0.0000       0.999596        27.2004 
 107   0.0000       1.014968        27.6187 
 108   0.0000       1.043508        28.3953 
 109   0.0000       1.074028        29.2258 
 110   0.0000       1.085688        29.5431 
 111   0.0000       1.089776        29.6543 
 112   0.0000       1.120713        30.4961 
 113   0.0000       1.139300        31.0019 
 114   0.0000       1.175186        31.9784 
 115   0.0000       1.272646        34.6305 
 116   0.0000       1.286448        35.0060 
 117   0.0000       1.301744        35.4223 
 118   0.0000       1.308868        35.6161 
 119   0.0000       1.330725        36.2109 
 120   0.0000       1.445279        39.3280 
 121   0.0000       1.516798        41.2742 
 122   0.0000       1.531647        41.6782 
 123   0.0000       1.551430        42.2166 
 124   0.0000       1.570415        42.7332 
 125   0.0000       1.604860        43.6705 
 126   0.0000       1.775050        48.3016 
 127   0.0000       1.775056        48.3017 
 128   0.0000       1.824164        49.6380 
 129   0.0000       1.826676        49.7064 
 130   0.0000       1.909269        51.9538 
 131   0.0000       1.966875        53.5214 
 132   0.0000       1.966893        53.5219 
 133   0.0000       2.004511        54.5455 
 134   0.0000       2.046699        55.6935 
 135   0.0000       2.131123        57.9908 
 136   0.0000       2.131661        58.0054 
 137   0.0000       2.189953        59.5916 
 138   0.0000       2.190035        59.5939 
 139   0.0000       2.193305        59.6829 
 140   0.0000       2.204677        59.9923 
 141   0.0000       2.359921        64.2167 
 142   0.0000       2.361000        64.2461 
 143   0.0000       2.367507        64.4231 
 144   0.0000       2.545639        69.2704 
 145   0.0000       2.610544        71.0365 
 146   0.0000       2.717619        73.9502 
 147   0.0000       2.725433        74.1628 
 148   0.0000       2.733920        74.3938 
 149   0.0000       2.740566        74.5746 
 150   0.0000       2.773613        75.4738 
 151   0.0000       2.792323        75.9830 
 152   0.0000       2.826550        76.9143 
 153   0.0000       3.052867        83.0727 
 154   0.0000       3.436165        93.5028 
 155   0.0000       3.534839        96.1878 
 156   0.0000       3.557565        96.8063 
 157   0.0000       3.614431        98.3537 
 158   0.0000       3.743000       101.8522 
 159   0.0000       3.943625       107.3115 
 160   0.0000      13.202020       359.2452 
 161   0.0000      13.586107       369.6968 
 162   0.0000      13.612969       370.4277 
 163   0.0000      13.643790       371.2664 
 164   0.0000      14.099123       383.6566 
 165   0.0000      14.121926       384.2771 
 166   0.0000      14.543643       395.7526 

                    ********************************
                    * MULLIKEN POPULATION ANALYSIS *
                    ********************************

-----------------------
MULLIKEN ATOMIC CHARGES
-----------------------
   0 P :    0.162028
   1 C :   -0.413328
   2 H :    0.251721
   3 Br:   -0.039953
   4 C :   -0.075009
   5 C :   -0.205654
   6 C :   -0.216617
   7 C :   -0.220570
   8 C :   -0.216617
   9 C :   -0.205654
  10 H :    0.246281
  11 H :    0.230015
  12 H :    0.227060
  13 H :    0.230015
  14 H :    0.246282
Sum of atomic charges:   -0.0000000

--------------------------------
MULLIKEN REDUCED ORBITAL CHARGES
--------------------------------
  0 P s       :     5.808631  s :     5.808631
      pz      :     3.005454  p :     8.922644
      px      :     2.958380
      py      :     2.958810
      dz2     :     0.040083  d :     0.106697
      dxz     :     0.033325
      dyz     :     0.033290
      dx2y2   :     0.000000
      dxy     :     0.000000
  1 C s       :     3.372259  s :     3.372259
      pz      :     1.012794  p :     3.021957
      px      :     1.004857
      py      :     1.004306
      dz2     :     0.010044  d :     0.019111
      dxz     :     0.004533
      dyz     :     0.004534
      dx2y2   :     0.000000
      dxy     :     0.000000
  2 H s       :     0.748279  s :     0.748279
  3 Brs       :     7.957073  s :     7.957073
      pz      :     5.123367  p :    17.034612
      px      :     5.946779
      py      :     5.964466
      dz2     :     2.029370  d :    10.048268
      dxz     :     2.012149
      dyz     :     2.006305
      dx2y2   :     2.000257
      dxy     :     2.000187
  4 C s       :     3.235860  s :     3.235860
      pz      :     0.811219  p :     2.790336
      px      :     1.040138
      py      :     0.938979
      dz2     :     0.013528  d :     0.048813
      dxz     :     0.006305
      dyz     :     0.014744
      dx2y2   :     0.006403
      dxy     :     0.007833
  5 C s       :     3.251702  s :     3.251702
      pz      :     0.924202  p :     2.914120
      px      :     0.990558
      py      :     0.999360
      dz2     :     0.009188  d :     0.039833
      dxz     :     0.005840
      dyz     :     0.014807
      dx2y2   :     0.006190
      dxy     :     0.003808
  6 C s       :     3.247286  s :     3.247286
      pz      :     0.931655  p :     2.929045
      px      :     0.982983
      py      :     1.014406
      dz2     :     0.010104  d :     0.040287
      dxz     :     0.006046
      dyz     :     0.014237
      dx2y2   :     0.006355
      dxy     :     0.003545
  7 C s       :     3.245678  s :     3.245678
      pz      :     1.045759  p :     2.934898
      px      :     0.990744
      py      :     0.898396
      dz2     :     0.013229  d :     0.039995
      dxz     :     0.002416
      dyz     :     0.011392
      dx2y2   :     0.006163
      dxy     :     0.006794
  8 C s       :     3.247285  s :     3.247285
      pz      :     0.931655  p :     2.929045
      px      :     0.982983
      py      :     1.014407
      dz2     :     0.010104  d :     0.040287
      dxz     :     0.006046
      dyz     :     0.014237
      dx2y2   :     0.006355
      dxy     :     0.003545
  9 C s       :     3.251701  s :     3.251701
      pz      :     0.924202  p :     2.914121
      px      :     0.990558
      py      :     0.999361
      dz2     :     0.009188  d :     0.039833
      dxz     :     0.005840
      dyz     :     0.014807
      dx2y2   :     0.006190
      dxy     :     0.003808
 10 H s       :     0.753719  s :     0.753719
 11 H s       :     0.769985  s :     0.769985
 12 H s       :     0.772940  s :     0.772940
 13 H s       :     0.769985  s :     0.769985
 14 H s       :     0.753718  s :     0.753718


                     *******************************
                     * LOEWDIN POPULATION ANALYSIS *
                     *******************************

----------------------
LOEWDIN ATOMIC CHARGES
----------------------
   0 P :    0.233186
   1 C :   -0.384084
   2 H :    0.152248
   3 Br:    0.068425
   4 C :   -0.123388
   5 C :   -0.140434
   6 C :   -0.125760
   7 C :   -0.134480
   8 C :   -0.125760
   9 C :   -0.140434
  10 H :    0.148817
  11 H :    0.141475
  12 H :    0.139896
  13 H :    0.141475
  14 H :    0.148817

-------------------------------
LOEWDIN REDUCED ORBITAL CHARGES
-------------------------------
  0 P s       :     5.561555  s :     5.561555
      pz      :     3.188833  p :     9.062723
      px      :     2.936756
      py      :     2.937134
      dz2     :     0.067767  d :     0.142537
      dxz     :     0.037409
      dyz     :     0.037361
      dx2y2   :     0.000000
      dxy     :     0.000000
  1 C s       :     3.108281  s :     3.108281
      pz      :     1.205434  p :     3.243591
      px      :     1.019320
      py      :     1.018837
      dz2     :     0.016976  d :     0.032211
      dxz     :     0.007616
      dyz     :     0.007619
      dx2y2   :     0.000000
      dxy     :     0.000000
  2 H s       :     0.847752  s :     0.847752
  3 Brs       :     7.805446  s :     7.805446
      pz      :     5.189412  p :    17.057307
      px      :     5.928707
      py      :     5.939188
      dz2     :     2.043930  d :    10.068822
      dxz     :     2.015918
      dyz     :     2.008415
      dx2y2   :     2.000362
      dxy     :     2.000196
  4 C s       :     2.895125  s :     2.895125
      pz      :     0.954873  p :     3.116980
      px      :     1.025379
      py      :     1.136728
      dz2     :     0.031432  d :     0.111284
      dxz     :     0.011427
      dyz     :     0.036995
      dx2y2   :     0.015666
      dxy     :     0.015764
  5 C s       :     2.892264  s :     2.892264
      pz      :     1.090488  p :     3.157230
      px      :     0.989320
      py      :     1.077422
      dz2     :     0.024285  d :     0.090940
      dxz     :     0.011732
      dyz     :     0.036505
      dx2y2   :     0.011571
      dxy     :     0.006847
  6 C s       :     2.890859  s :     2.890859
      pz      :     1.083503  p :     3.143498
      px      :     0.974369
      py      :     1.085626
      dz2     :     0.026498  d :     0.091402
      dxz     :     0.012212
      dyz     :     0.034677
      dx2y2   :     0.011756
      dxy     :     0.006260
  7 C s       :     2.890289  s :     2.890289
      pz      :     1.081142  p :     3.153336
      px      :     0.982355
      py      :     1.089839
      dz2     :     0.027538  d :     0.090856
      dxz     :     0.003542
      dyz     :     0.029758
      dx2y2   :     0.015886
      dxy     :     0.014132
  8 C s       :     2.890859  s :     2.890859
      pz      :     1.083503  p :     3.143498
      px      :     0.974369
      py      :     1.085626
      dz2     :     0.026498  d :     0.091402
      dxz     :     0.012212
      dyz     :     0.034677
      dx2y2   :     0.011756
      dxy     :     0.006260
  9 C s       :     2.892264  s :     2.892264
      pz      :     1.090488  p :     3.157230
      px      :     0.989320
      py      :     1.077422
      dz2     :     0.024285  d :     0.090940
      dxz     :     0.011732
      dyz     :     0.036505
      dx2y2   :     0.011571
      dxy     :     0.006847
 10 H s       :     0.851183  s :     0.851183
 11 H s       :     0.858525  s :     0.858525
 12 H s       :     0.860104  s :     0.860104
 13 H s       :     0.858525  s :     0.858525
 14 H s       :     0.851183  s :     0.851183


                      *****************************
                      * MAYER POPULATION ANALYSIS *
                      *****************************

  NA   - Mulliken gross atomic population
  ZA   - Total nuclear charge
  QA   - Mulliken gross atomic charge
  VA   - Mayer's total valence
  BVA  - Mayer's bonded valence
  FA   - Mayer's free valence

  ATOM       NA         ZA         QA         VA         BVA        FA
  0 P     14.8380    15.0000     0.1620     2.9251     2.9251     0.0000
  1 C      6.4133     6.0000    -0.4133     3.7876     3.7876     0.0000
  2 H      0.7483     1.0000     0.2517     0.9108     0.9108     0.0000
  3 Br    35.0400    35.0000    -0.0400     1.1070     1.1070     0.0000
  4 C      6.0750     6.0000    -0.0750     3.8100     3.8100    -0.0000
  5 C      6.2057     6.0000    -0.2057     3.7684     3.7684    -0.0000
  6 C      6.2166     6.0000    -0.2166     3.8196     3.8196     0.0000
  7 C      6.2206     6.0000    -0.2206     3.8086     3.8086    -0.0000
  8 C      6.2166     6.0000    -0.2166     3.8196     3.8196    -0.0000
  9 C      6.2057     6.0000    -0.2057     3.7684     3.7684    -0.0000
 10 H      0.7537     1.0000     0.2463     0.9046     0.9046     0.0000
 11 H      0.7700     1.0000     0.2300     0.9084     0.9084    -0.0000
 12 H      0.7729     1.0000     0.2271     0.9097     0.9097    -0.0000
 13 H      0.7700     1.0000     0.2300     0.9084     0.9084     0.0000
 14 H      0.7537     1.0000     0.2463     0.9046     0.9046    -0.0000

  Mayer bond orders larger than 0.100000
B(  0-P ,  1-C ) :   2.8922 B(  1-C ,  2-H ) :   0.8937 B(  3-Br,  4-C ) :   1.0310 
B(  4-C ,  5-C ) :   1.3724 B(  4-C ,  9-C ) :   1.3724 B(  5-C ,  6-C ) :   1.4282 
B(  5-C , 10-H ) :   0.9095 B(  6-C ,  7-C ) :   1.4220 B(  6-C , 11-H ) :   0.9159 
B(  7-C ,  8-C ) :   1.4220 B(  7-C , 12-H ) :   0.9180 B(  8-C ,  9-C ) :   1.4282 
B(  8-C , 13-H ) :   0.9159 B(  9-C , 14-H ) :   0.9095 

-------
TIMINGS
-------

Total SCF time: 0 days 0 hours 2 min 10 sec 

Total time                  ....     130.242 sec
Sum of individual times     ....     119.689 sec  ( 91.9%)

Fock matrix formation       ....     105.541 sec  ( 81.0%)
  Split-RI-J                ....      11.056 sec  ( 10.5% of F)
  Chain of spheres X        ....      43.912 sec  ( 41.6% of F)
  XC integration            ....      27.553 sec  ( 26.1% of F)
    Basis function eval.    ....       4.257 sec  ( 15.4% of XC)
    Density eval.           ....       2.657 sec  (  9.6% of XC)
    XC-Functional eval.     ....       1.785 sec  (  6.5% of XC)
    XC-Potential eval.      ....       1.356 sec  (  4.9% of XC)
Diagonalization             ....       1.029 sec  (  0.8%)
Density matrix formation    ....       0.096 sec  (  0.1%)
Population analysis         ....       0.780 sec  (  0.6%)
Initial guess               ....       0.040 sec  (  0.0%)
Orbital Transformation      ....       0.000 sec  (  0.0%)
Orbital Orthonormalization  ....       0.000 sec  (  0.0%)
DIIS solution               ....       1.939 sec  (  1.5%)
SOSCF solution              ....       1.223 sec  (  0.9%)
Grid generation             ....       9.041 sec  (  6.9%)

Maximum memory used throughout the entire SCF-calculation: 56.8 MB


-------------------------------------------------------------------------------
                          DFT DISPERSION CORRECTION                            
                                                                               
                              DFTD3 V3.1  Rev 1                                
                          USING Becke-Johnson damping                          
-------------------------------------------------------------------------------
The PBEh-3c composite method is recognized
Using three-body term ABC
Active option DFTDOPT                   ...         4   

molecular C6(AA) [au] = 5224.450188 


            DFT-D V3
 parameters
 s6 scaling factor         :     1.0000 
 a1 scaling factor         :     0.4860 
 s8 scaling factor         :     0.0000 
 a2 scaling factor         :     4.5000 
 Damping factor alpha9(ATM):    16.0000 
 ad hoc parameters k1-k3   :    16.0000     1.3333    -4.0000 

 Edisp/kcal,au: -5.186572759585  -0.008265328924 
 E6   /kcal   :  -5.168512700 
 E8   /kcal   :  -0.000000000 
 E6(ABC)      :  -0.018060060 
 % E8         :   0.000000000 
 % E6(ABC)    :   0.348207970 

-------------------------   ----------------
Dispersion correction           -0.008265329
-------------------------   ----------------

------------------   -----------------
gCP correction             0.018070495
------------------   -----------------

-------------------------   --------------------
FINAL SINGLE POINT ENERGY     -3183.632606376392
-------------------------   --------------------


                            ***************************************
                            *     ORCA property calculations      *
                            ***************************************

                                    ---------------------
                                    Active property flags
                                    ---------------------
   (+) Dipole Moment


------------------------------------------------------------------------------
                       ORCA ELECTRIC PROPERTIES CALCULATION
------------------------------------------------------------------------------

Dipole Moment Calculation                       ... on
Quadrupole Moment Calculation                   ... off
Polarizability Calculation                      ... off
GBWName                                         ... pbeh-3c.gbw
Electron density                                ... pbeh-3c.scfp
The origin for moment calculation is the CENTER OF MASS  = ( 0.000000,  0.000000  0.170224)

-------------
DIPOLE MOMENT
-------------
                                X             Y             Z
Electronic contribution:      0.00000       0.00000      16.18552
Nuclear contribution   :      0.00000       0.00000     -16.68198
                        -----------------------------------------
Total Dipole Moment    :      0.00000       0.00000      -0.49645
                        -----------------------------------------
Magnitude (a.u.)       :      0.49645
Magnitude (Debye)      :      1.26188



--------------------
Rotational spectrum 
--------------------
 
Rotational constants in cm-1:     0.191563     0.010146     0.009635 
Rotational constants in MHz :  5742.927595   304.162922   288.863816 

 Dipole components along the rotational axes: 
x,y,z [a.u.] :    -0.496452     0.000000     0.000000 
x,y,z [Debye]:    -1.261882     0.000000     0.000000 

 

Timings for individual modules:

Sum of individual times         ...      135.103 sec (=   2.252 min)
GTO integral calculation        ...        4.306 sec (=   0.072 min)   3.2 %
SCF iterations                  ...      130.797 sec (=   2.180 min)  96.8 %
                             ****ORCA TERMINATED NORMALLY****
TOTAL RUN TIME: 0 days 0 hours 2 minutes 21 seconds 464 msec
