
                                 *****************
                                 * O   R   C   A *
                                 *****************

                                            #,                                       
                                            ###                                      
                                            ####                                     
                                            #####                                    
                                            ######                                   
                                           ########,                                 
                                     ,,################,,,,,                         
                               ,,#################################,,                 
                          ,,##########################################,,             
                       ,#########################################, ''#####,          
                    ,#############################################,,   '####,        
                  ,##################################################,,,,####,       
                ,###########''''           ''''###############################       
              ,#####''   ,,,,##########,,,,          '''####'''          '####       
            ,##' ,,,,###########################,,,                        '##       
           ' ,,###''''                  '''############,,,                           
         ,,##''                                '''############,,,,        ,,,,,,###''
      ,#''                                            '''#######################'''  
     '                                                          ''''####''''         
             ,#######,   #######,   ,#######,      ##                                
            ,#'     '#,  ##    ##  ,#'     '#,    #''#        ######   ,####,        
            ##       ##  ##   ,#'  ##            #'  '#       #        #'  '#        
            ##       ##  #######   ##           ,######,      #####,   #    #        
            '#,     ,#'  ##    ##  '#,     ,#' ,#      #,         ##   #,  ,#        
             '#######'   ##     ##  '#######'  #'      '#     #####' # '####'        



                  #######################################################
                  #                        -***-                        #
                  #          Department of theory and spectroscopy      #
                  #    Directorship and core code : Frank Neese         #
                  #        Max Planck Institute fuer Kohlenforschung    #
                  #                Kaiser Wilhelm Platz 1               #
                  #                 D-45470 Muelheim/Ruhr               #
                  #                      Germany                        #
                  #                                                     #
                  #                  All rights reserved                #
                  #                        -***-                        #
                  #######################################################


                         Program Version 5.0.3 -  RELEASE  -


 With contributions from (in alphabetic order):
   Daniel Aravena         : Magnetic Suceptibility
   Michael Atanasov       : Ab Initio Ligand Field Theory (pilot matlab implementation)
   Alexander A. Auer      : GIAO ZORA, VPT2 properties, NMR spectrum
   Ute Becker             : Parallelization
   Giovanni Bistoni       : ED, misc. LED, open-shell LED, HFLD
   Martin Brehm           : Molecular dynamics
   Dmytro Bykov           : SCF Hessian
   Vijay G. Chilkuri      : MRCI spin determinant printing, contributions to CSF-ICE
   Dipayan Datta          : RHF DLPNO-CCSD density
   Achintya Kumar Dutta   : EOM-CC, STEOM-CC
   Dmitry Ganyushin       : Spin-Orbit,Spin-Spin,Magnetic field MRCI
   Miquel Garcia          : C-PCM and meta-GGA Hessian, CC/C-PCM, Gaussian charge scheme
   Yang Guo               : DLPNO-NEVPT2, F12-NEVPT2, CIM, IAO-localization
   Andreas Hansen         : Spin unrestricted coupled pair/coupled cluster methods
   Benjamin Helmich-Paris : MC-RPA, TRAH-SCF, COSX integrals
   Lee Huntington         : MR-EOM, pCC
   Robert Izsak           : Overlap fitted RIJCOSX, COSX-SCS-MP3, EOM
   Marcus Kettner         : VPT2
   Christian Kollmar      : KDIIS, OOCD, Brueckner-CCSD(T), CCSD density, CASPT2, CASPT2-K
   Simone Kossmann        : Meta GGA functionals, TD-DFT gradient, OOMP2, MP2 Hessian
   Martin Krupicka        : Initial AUTO-CI
   Lucas Lang             : DCDCAS
   Marvin Lechner         : AUTO-CI (C++ implementation), FIC-MRCC
   Dagmar Lenk            : GEPOL surface, SMD
   Dimitrios Liakos       : Extrapolation schemes; Compound Job, initial MDCI parallelization
   Dimitrios Manganas     : Further ROCIS development; embedding schemes
   Dimitrios Pantazis     : SARC Basis sets
   Anastasios Papadopoulos: AUTO-CI, single reference methods and gradients
   Taras Petrenko         : DFT Hessian,TD-DFT gradient, ASA, ECA, R-Raman, ABS, FL, XAS/XES, NRVS
   Peter Pinski           : DLPNO-MP2, DLPNO-MP2 Gradient
   Christoph Reimann      : Effective Core Potentials
   Marius Retegan         : Local ZFS, SOC
   Christoph Riplinger    : Optimizer, TS searches, QM/MM, DLPNO-CCSD(T), (RO)-DLPNO pert. Triples
   Tobias Risthaus        : Range-separated hybrids, TD-DFT gradient, RPA, STAB
   Michael Roemelt        : Original ROCIS implementation
   Masaaki Saitow         : Open-shell DLPNO-CCSD energy and density
   Barbara Sandhoefer     : DKH picture change effects
   Avijit Sen             : IP-ROCIS
   Kantharuban Sivalingam : CASSCF convergence, NEVPT2, FIC-MRCI
   Bernardo de Souza      : ESD, SOC TD-DFT
   Georgi Stoychev        : AutoAux, RI-MP2 NMR, DLPNO-MP2 response
   Willem Van den Heuvel  : Paramagnetic NMR
   Boris Wezisla          : Elementary symmetry handling
   Frank Wennmohs         : Technical directorship


 We gratefully acknowledge several colleagues who have allowed us to
 interface, adapt or use parts of their codes:
   Stefan Grimme, W. Hujo, H. Kruse, P. Pracht,  : VdW corrections, initial TS optimization,
                  C. Bannwarth, S. Ehlert          DFT functionals, gCP, sTDA/sTD-DF
   Ed Valeev, F. Pavosevic, A. Kumar             : LibInt (2-el integral package), F12 methods
   Garnet Chan, S. Sharma, J. Yang, R. Olivares  : DMRG
   Ulf Ekstrom                                   : XCFun DFT Library
   Mihaly Kallay                                 : mrcc  (arbitrary order and MRCC methods)
   Jiri Pittner, Ondrej Demel                    : Mk-CCSD
   Frank Weinhold                                : gennbo (NPA and NBO analysis)
   Christopher J. Cramer and Donald G. Truhlar   : smd solvation model
   Lars Goerigk                                  : TD-DFT with DH, B97 family of functionals
   V. Asgeirsson, H. Jonsson                     : NEB implementation
   FAccTs GmbH                                   : IRC, NEB, NEB-TS, DLPNO-Multilevel, CI-OPT
                                                   MM, QMMM, 2- and 3-layer-ONIOM, Crystal-QMMM,
                                                   LR-CPCM, SF, NACMEs, symmetry and pop. for TD-DFT,
                                                   nearIR, NL-DFT gradient (VV10), updates on ESD,
                                                   ML-optimized integration grids
   S Lehtola, MJT Oliveira, MAL Marques          : LibXC Library
   Liviu Ungur et al                             : ANISO software


 Your calculation uses the libint2 library for the computation of 2-el integrals
 For citations please refer to: http://libint.valeyev.net

 Your ORCA version has been built with support for libXC version: 5.1.0
 For citations please refer to: https://tddft.org/programs/libxc/

 This ORCA versions uses:
   CBLAS   interface :  Fast vector & matrix operations
   LAPACKE interface :  Fast linear algebra routines
   SCALAPACK package :  Parallel linear algebra routines
   Shared memory     :  Shared parallel matrices
   BLAS/LAPACK       :  OpenBLAS 0.3.15  USE64BITINT DYNAMIC_ARCH NO_AFFINITY Haswell SINGLE_THREADED
        Core in use  :  Haswell
   Copyright (c) 2011-2014, The OpenBLAS Project




***************************************
The coordinates will be read from file: Pentahelicene.xyz
***************************************


Your calculation utilizes the geometrical counterpoise correction gCP
Please cite in your paper:
H.Kruse, S. Grimme J.Chem.Phys., 136, (2012), 154101 
   

Your calculation utilizes the atom-pairwise dispersion correction
with the Becke-Johnson damping scheme (D3BJ)
Cite in your paper:
S.Grimme, S.Ehrlich, L.Goerigk, J Comput Chem, (2011), 32, 1456–1465 
S.Grimme, J.Antony, S.Ehrlich and H.Krieg, J.Chem.Phys., 132, (2010), 154104 
   

Your calculation employs the composite approach PBEh-3c.
Please cite in your paper:
S. Grimme, J. G. Brandenburg, C. Bannwarth, A. Hansen J.Chem.Phys., 143, (2015), 054107 
   

================================================================================

----- Orbital basis set information -----
Your calculation utilizes the basis: def2-mSVP

----- AuxJ basis set information -----
Your calculation utilizes the auxiliary basis: def2/J
   F. Weigend, Phys. Chem. Chem. Phys. 8, 1057 (2006).

================================================================================
                                        WARNINGS
                       Please study these warnings very carefully!
================================================================================


INFO   : the flag for use of the SHARK integral package has been found!

================================================================================
                                       INPUT FILE
================================================================================
NAME = pbeh-3c.inp
|  1> ! PBEh-3c def2/J TightSCF DefGrid3
|  2> 
|  3> %maxcore 60000
|  4> 
|  5> %pal
|  6> nprocs 4
|  7> end
|  8> 
|  9> *xyzfile 0 1 Pentahelicene.xyz
| 10> 
| 11>                          ****END OF INPUT****
================================================================================

                       ****************************
                       * Single Point Calculation *
                       ****************************

---------------------------------
CARTESIAN COORDINATES (ANGSTROEM)
---------------------------------
  C      2.762393   -0.486466   -2.031281
  C      3.351933   -0.368590   -0.812047
  C      2.561903   -0.264728    0.361584
  C      1.148522   -0.302634    0.273429
  C      0.559048   -0.735421   -0.969787
  C      1.363039   -0.692264   -2.135674
  C      0.779527   -0.890172   -3.421675
  C     -0.534705   -1.188085   -3.558835
  C     -1.334365   -1.450235   -2.410299
  C     -0.773325   -1.298533   -1.109825
  C      3.197732   -0.096083    1.627503
  C      2.475186    0.095846    2.758201
  C      1.066054    0.292043    2.682709
  C      0.405160    0.173664    1.427011
  C      0.336468    0.693853    3.822300
  C     -0.982625    1.060839    3.724790
  C     -1.602054    1.074862    2.465017
  C     -0.923207    0.649037    1.348498
  C     -1.507517   -1.830978   -0.026201
  C     -2.771354   -2.343474   -0.194650
  C     -3.368884   -2.366052   -1.464706
  C     -2.648254   -1.945859   -2.554365
  H      3.354299   -0.480707   -2.937559
  H      4.428128   -0.299038   -0.720228
  H      1.415361   -0.786159   -4.291245
  H     -0.976942   -1.306863   -4.539436
  H      4.278769   -0.140010    1.664278
  H      2.962681    0.183978    3.720814
  H      0.849712    0.742193    4.774249
  H     -1.529522    1.377623    4.602795
  H     -2.617421    1.435385    2.367471
  H     -1.415375    0.689714    0.390476
  H     -1.066199   -1.847351    0.956470
  H     -3.302317   -2.744758    0.658344
  H     -4.371019   -2.754802   -1.587216
  H     -3.064832   -2.022772   -3.550910

----------------------------
CARTESIAN COORDINATES (A.U.)
----------------------------
  NO LB      ZA    FRAG     MASS         X           Y           Z
   0 C     6.0000    0    12.011    5.220166   -0.919288   -3.838565
   1 C     6.0000    0    12.011    6.334235   -0.696533   -1.534547
   2 C     6.0000    0    12.011    4.841295   -0.500264    0.683295
   3 C     6.0000    0    12.011    2.170392   -0.571895    0.516706
   4 C     6.0000    0    12.011    1.056448   -1.389743   -1.832633
   5 C     6.0000    0    12.011    2.575771   -1.308189   -4.035840
   6 C     6.0000    0    12.011    1.473092   -1.682181   -6.466029
   7 C     6.0000    0    12.011   -1.010447   -2.245156   -6.725223
   8 C     6.0000    0    12.011   -2.521584   -2.740548   -4.554804
   9 C     6.0000    0    12.011   -1.461373   -2.453872   -2.097265
  10 C     6.0000    0    12.011    6.042837   -0.181571    3.075536
  11 C     6.0000    0    12.011    4.677425    0.181123    5.212244
  12 C     6.0000    0    12.011    2.014551    0.551881    5.069586
  13 C     6.0000    0    12.011    0.765641    0.328177    2.696660
  14 C     6.0000    0    12.011    0.635833    1.311191    7.223101
  15 C     6.0000    0    12.011   -1.856892    2.004695    7.038833
  16 C     6.0000    0    12.011   -3.027443    2.031194    4.658206
  17 C     6.0000    0    12.011   -1.744608    1.226503    2.548291
  18 C     6.0000    0    12.011   -2.848795   -3.460047   -0.049512
  19 C     6.0000    0    12.011   -5.237100   -4.428524   -0.367834
  20 C     6.0000    0    12.011   -6.366268   -4.471190   -2.767893
  21 C     6.0000    0    12.011   -5.004475   -3.677141   -4.827050
  22 H     1.0000    0     1.008    6.338707   -0.908405   -5.551182
  23 H     1.0000    0     1.008    8.367949   -0.565101   -1.361034
  24 H     1.0000    0     1.008    2.674645   -1.485626   -8.109277
  25 H     1.0000    0     1.008   -1.846153   -2.469614   -8.578291
  26 H     1.0000    0     1.008    8.085701   -0.264581    3.145030
  27 H     1.0000    0     1.008    5.598655    0.347668    7.031319
  28 H     1.0000    0     1.008    1.605724    1.402541    9.022022
  29 H     1.0000    0     1.008   -2.890377    2.603329    8.698021
  30 H     1.0000    0     1.008   -4.946208    2.712485    4.473872
  31 H     1.0000    0     1.008   -2.674671    1.303370    0.737893
  32 H     1.0000    0     1.008   -2.014824   -3.490987    1.807467
  33 H     1.0000    0     1.008   -6.240474   -5.186840    1.244089
  34 H     1.0000    0     1.008   -8.260028   -5.205821   -2.999403
  35 H     1.0000    0     1.008   -5.791693   -3.822485   -6.710247

--------------------------------
INTERNAL COORDINATES (ANGSTROEM)
--------------------------------
 C      0   0   0     0.000000000000     0.00000000     0.00000000
 C      1   0   0     1.359405486670     0.00000000     0.00000000
 C      2   1   0     1.418571627999   120.45436924     0.00000000
 C      3   2   1     1.416634971757   120.14545696     0.91659770
 C      4   3   2     1.442348911833   117.99649239    13.25588214
 C      5   4   3     1.416882792330   117.91779287   340.51378349
 C      6   5   4     1.425991706501   120.37464156   190.54744464
 C      7   6   5     1.354537207386   121.25614509   356.70131072
 C      8   7   6     1.423837578045   120.24670681   353.31307254
 C      9   8   7     1.424433561755   119.71173598     4.77883668
 C      3   2   1     1.426628947064   119.64192786   182.12084994
 C     11   3   2     1.355501528061   121.28887018   175.55611530
 C     12  11   3     1.424726423163   120.16630629   352.51261058
 C     13  12  11     1.423928724490   119.62572236     5.26541027
 C     13  12  11     1.411529155905   120.50683274   189.72627529
 C     15  13  12     1.372659282793   121.02821795   171.08465207
 C     16  15  13     1.403893940041   119.36815151   358.04884625
 C     17  16  15     1.374327081307   120.52904697     3.91742942
 C     10   9   8     1.413073710654   117.08740347   192.79149329
 C     19  10   9     1.374157947998   121.62671914   353.14100525
 C     20  19  10     1.403778964662   120.55661185     0.71802166
 C     21  20  19     1.372306645714   119.33718346     3.94550981
 H      1   2   3     1.082462757238   120.88431865   174.70588908
 H      2   1   3     1.082341803988   120.85519942   183.27866829
 H      7   6   5     1.082245753350   118.09008366   176.11479380
 H      8   7   6     1.082247745468   120.82092395   178.10412445
 H     11   3   2     1.082553806965   118.06082375   354.67737355
 H     12  11   3     1.082608761153   120.87687777   177.56230654
 H     15  13  12     1.082572002239   118.52823679   353.30520656
 H     16  15  13     1.081822683630   120.42693399   180.67724858
 H     17  16  15     1.081878826499   119.88972467   184.72147658
 H     18  17  16     1.077816691014   119.00379883   181.27168025
 H     19  10   9     1.077345202833   119.49573534   172.49039698
 H     20  19  10     1.081918423995   119.54081262   179.86526873
 H     21  20  19     1.081854775670   120.16717244   181.09108289
 H     22  21  20     1.082845433667   120.46320157   175.53945482

---------------------------
INTERNAL COORDINATES (A.U.)
---------------------------
 C      0   0   0     0.000000000000     0.00000000     0.00000000
 C      1   0   0     2.568904074756     0.00000000     0.00000000
 C      2   1   0     2.680711878270   120.45436924     0.00000000
 C      3   2   1     2.677052128356   120.14545696     0.91659770
 C      4   3   2     2.725644432923   117.99649239    13.25588214
 C      5   4   3     2.677520441370   117.91779287   340.51378349
 C      6   5   4     2.694733794530   120.37464156   190.54744464
 C      7   6   5     2.559704360166   121.25614509   356.70131072
 C      8   7   6     2.690663081690   120.24670681   353.31307254
 C      9   8   7     2.691789327683   119.71173598     4.77883668
 C      3   2   1     2.695938004675   119.64192786   182.12084994
 C     11   3   2     2.561526662147   121.28887018   175.55611530
 C     12  11   3     2.692342755539   120.16630629   352.51261058
 C     13  12  11     2.690835323510   119.62572236     5.26541027
 C     13  12  11     2.667403534705   120.50683274   189.72627529
 C     15  13  12     2.593950119664   121.02821795   171.08465207
 C     16  15  13     2.652975067750   119.36815151   358.04884625
 C     17  16  15     2.597101802101   120.52904697     3.91742942
 C     10   9   8     2.670322320180   117.08740347   192.79149329
 C     19  10   9     2.596782186468   121.62671914   353.14100525
 C     20  19  10     2.652757795772   120.55661185     0.71802166
 C     21  20  19     2.593283732159   119.33718346     3.94550981
 H      1   2   3     2.045558161349   120.88431865   174.70588908
 H      2   1   3     2.045329592832   120.85519942   183.27866829
 H      7   6   5     2.045148083430   118.09008366   176.11479380
 H      8   7   6     2.045151847989   120.82092395   178.10412445
 H     11   3   2     2.045730220398   118.06082375   354.67737355
 H     12  11   3     2.045834068763   120.87687777   177.56230654
 H     15  13  12     2.045764604483   118.52823679   353.30520656
 H     16  15  13     2.044348597524   120.42693399   180.67724858
 H     17  16  15     2.044454692172   119.88972467   184.72147658
 H     18  17  16     2.036778368586   119.00379883   181.27168025
 H     19  10   9     2.035887385049   119.49573534   172.49039698
 H     20  19  10     2.044529520594   119.54081262   179.86526873
 H     21  20  19     2.044409242691   120.16717244   181.09108289
 H     22  21  20     2.046281314998   120.46320157   175.53945482

---------------------
BASIS SET INFORMATION
---------------------
There are 2 groups of distinct atoms

 Group   1 Type C   : 8s4p1d contracted to 4s2p1d pattern {5111/31/1}
 Group   2 Type H   : 4s contracted to 2s pattern {31}

Atom   0C    basis set group =>   1
Atom   1C    basis set group =>   1
Atom   2C    basis set group =>   1
Atom   3C    basis set group =>   1
Atom   4C    basis set group =>   1
Atom   5C    basis set group =>   1
Atom   6C    basis set group =>   1
Atom   7C    basis set group =>   1
Atom   8C    basis set group =>   1
Atom   9C    basis set group =>   1
Atom  10C    basis set group =>   1
Atom  11C    basis set group =>   1
Atom  12C    basis set group =>   1
Atom  13C    basis set group =>   1
Atom  14C    basis set group =>   1
Atom  15C    basis set group =>   1
Atom  16C    basis set group =>   1
Atom  17C    basis set group =>   1
Atom  18C    basis set group =>   1
Atom  19C    basis set group =>   1
Atom  20C    basis set group =>   1
Atom  21C    basis set group =>   1
Atom  22H    basis set group =>   2
Atom  23H    basis set group =>   2
Atom  24H    basis set group =>   2
Atom  25H    basis set group =>   2
Atom  26H    basis set group =>   2
Atom  27H    basis set group =>   2
Atom  28H    basis set group =>   2
Atom  29H    basis set group =>   2
Atom  30H    basis set group =>   2
Atom  31H    basis set group =>   2
Atom  32H    basis set group =>   2
Atom  33H    basis set group =>   2
Atom  34H    basis set group =>   2
Atom  35H    basis set group =>   2
---------------------------------
AUXILIARY/J BASIS SET INFORMATION
---------------------------------
There are 2 groups of distinct atoms

 Group   1 Type C   : 12s5p4d2f1g contracted to 6s4p3d1f1g pattern {711111/2111/211/2/1}
 Group   2 Type H   : 5s2p1d contracted to 3s1p1d pattern {311/2/1}

Atom   0C    basis set group =>   1
Atom   1C    basis set group =>   1
Atom   2C    basis set group =>   1
Atom   3C    basis set group =>   1
Atom   4C    basis set group =>   1
Atom   5C    basis set group =>   1
Atom   6C    basis set group =>   1
Atom   7C    basis set group =>   1
Atom   8C    basis set group =>   1
Atom   9C    basis set group =>   1
Atom  10C    basis set group =>   1
Atom  11C    basis set group =>   1
Atom  12C    basis set group =>   1
Atom  13C    basis set group =>   1
Atom  14C    basis set group =>   1
Atom  15C    basis set group =>   1
Atom  16C    basis set group =>   1
Atom  17C    basis set group =>   1
Atom  18C    basis set group =>   1
Atom  19C    basis set group =>   1
Atom  20C    basis set group =>   1
Atom  21C    basis set group =>   1
Atom  22H    basis set group =>   2
Atom  23H    basis set group =>   2
Atom  24H    basis set group =>   2
Atom  25H    basis set group =>   2
Atom  26H    basis set group =>   2
Atom  27H    basis set group =>   2
Atom  28H    basis set group =>   2
Atom  29H    basis set group =>   2
Atom  30H    basis set group =>   2
Atom  31H    basis set group =>   2
Atom  32H    basis set group =>   2
Atom  33H    basis set group =>   2
Atom  34H    basis set group =>   2
Atom  35H    basis set group =>   2


           ************************************************************
           *        Program running with 4 parallel MPI-processes     *
           *              working on a common directory               *
           ************************************************************
------------------------------------------------------------------------------
                           ORCA GTO INTEGRAL CALCULATION
                           -- RI-GTO INTEGRALS CHOSEN --
------------------------------------------------------------------------------
------------------------------------------------------------------------------
                   ___                                                        
                  /   \      - P O W E R E D   B Y -                         
                 /     \                                                     
                 |  |  |   _    _      __       _____    __    __             
                 |  |  |  | |  | |    /  \     |  _  \  |  |  /  |          
                  \  \/   | |  | |   /    \    | | | |  |  | /  /          
                 / \  \   | |__| |  /  /\  \   | |_| |  |  |/  /          
                |  |  |   |  __  | /  /__\  \  |    /   |      \           
                |  |  |   | |  | | |   __   |  |    \   |  |\   \          
                \     /   | |  | | |  |  |  |  | |\  \  |  | \   \       
                 \___/    |_|  |_| |__|  |__|  |_| \__\ |__|  \__/        
                                                                              
                      - O R C A' S   B I G   F R I E N D -                    
                                      &                                       
                       - I N T E G R A L  F E E D E R -                       
                                                                              
 v1 FN, 2020, v2 2021                                                         
------------------------------------------------------------------------------


Reading SHARK input file pbeh-3c.SHARKINP.tmp ... ok
----------------------
SHARK INTEGRAL PACKAGE
----------------------

Number of atoms                             ...     36
Number of basis functions                   ...    358
Number of shells                            ...    182
Maximum angular momentum                    ...      2
Integral batch strategy                     ... SHARK/LIBINT Hybrid
RI-J (if used) integral strategy            ... SPLIT-RIJ (Revised 2003 algorithm where possible)
Printlevel                                  ...      1
Contraction scheme used                     ... SEGMENTED contraction
Coulomb Range Separation                    ... NOT USED
Exchange Range Separation                   ... NOT USED
Finite Nucleus Model                        ... NOT USED
Auxiliary Coulomb fitting basis             ... AVAILABLE
   # of basis functions in Aux-J            ...   1232
   # of shells in Aux-J                     ...    400
   Maximum angular momentum in Aux-J        ...      4
Auxiliary J/K fitting basis                 ... NOT available
Auxiliary Correlation fitting basis         ... NOT available
Auxiliary 'external' fitting basis          ... NOT available
Integral threshold                          ...     2.500000e-11
Primitive cut-off                           ...     2.500000e-12
Primitive pair pre-selection threshold      ...     2.500000e-12

Calculating pre-screening integrals         ... done (  0.1 sec) Dimension = 182
Organizing shell pair data                  ... done (  0.3 sec)
Shell pair information
Total number of shell pairs                 ...     16653
Shell pairs after pre-screening             ...     12053
Total number of primitive shell pairs       ...     58981
Primitive shell pairs kept                  ...     27167
          la=0 lb=0:   4247 shell pairs
          la=1 lb=0:   4264 shell pairs
          la=1 lb=1:    940 shell pairs
          la=2 lb=0:   1600 shell pairs
          la=2 lb=1:    838 shell pairs
          la=2 lb=2:    164 shell pairs

Calculating one electron integrals          ... done (  0.1 sec)
Calculating RI/J V-Matrix + Cholesky decomp.... done (  0.5 sec)
Calculating Nuclear repulsion               ... done (  0.2 sec) ENN=   1608.030123488394 Eh

SHARK setup successfully completed in   2.4 seconds

Maximum memory used throughout the entire GTOINT-calculation: 25.1 MB


           ************************************************************
           *        Program running with 4 parallel MPI-processes     *
           *              working on a common directory               *
           ************************************************************
-------------------------------------------------------------------------------
                                 ORCA SCF
-------------------------------------------------------------------------------

------------
SCF SETTINGS
------------
Hamiltonian:
 Density Functional     Method          .... DFT(GTOs)
 Exchange Functional    Exchange        .... PBE
   PBE kappa parameter   XKappa         ....  1.024500
   PBE mue parameter    XMuePBE         ....  0.123457
 Correlation Functional Correlation     .... PBE
   PBE beta parameter  CBetaPBE         ....  0.030000
 LDA part of GGA corr.  LDAOpt          .... PW91-LDA
 Gradients option       PostSCFGGA      .... off
 Hybrid DFT is turned on
   Fraction HF Exchange ScalHFX         ....  0.420000
   Scaling of DF-GGA-X  ScalDFX         ....  0.580000
   Scaling of DF-GGA-C  ScalDFC         ....  1.000000
   Scaling of DF-LDA-C  ScalLDAC        ....  1.000000
   Perturbative correction              ....  0.000000
   Density functional embedding theory  .... OFF
 RI-approximation to the Coulomb term is turned on
   Number of AuxJ basis functions       .... 1232
   RIJ-ON(X) (HFX calculated with O(N)) .... on
   Number of AuxJ basis functions       .... 1232
   RIJ-COSX (HFX calculated with COS-X)).... on


General Settings:
 Integral files         IntName         .... pbeh-3c
 Hartree-Fock type      HFTyp           .... RHF
 Total Charge           Charge          ....    0
 Multiplicity           Mult            ....    1
 Number of Electrons    NEL             ....  146
 Basis Dimension        Dim             ....  358
 Nuclear Repulsion      ENuc            ....   1608.0301234884 Eh

Convergence Acceleration:
 DIIS                   CNVDIIS         .... on
   Start iteration      DIISMaxIt       ....    12
   Startup error        DIISStart       ....  0.200000
   # of expansion vecs  DIISMaxEq       ....     5
   Bias factor          DIISBfac        ....   1.050
   Max. coefficient     DIISMaxC        ....  10.000
 Trust-Rad. Augm. Hess. CNVTRAH         .... auto
   Auto Start mean grad. ratio tolernc. ....  1.125000
   Auto Start start iteration           ....    20
   Auto Start num. interpolation iter.  ....    10
   Max. Number of Micro iterations      ....    16
   Max. Number of Macro iterations      .... Maxiter - #DIIS iter
   Number of Davidson start vectors     ....     2
   Converg. threshold I  (grad. norm)   ....   1.000e-05
   Converg. threshold II (energy diff.) ....   1.000e-08
   Grad. Scal. Fac. for Micro threshold ....   0.100
   Minimum threshold for Micro iter.    ....   0.010
   NR start threshold (gradient norm)   ....   0.001
   Initial trust radius                 ....   0.400
   Minimum AH scaling param. (alpha)    ....   1.000
   Maximum AH scaling param. (alpha)    .... 1000.000
   Orbital update algorithm             .... Taylor
   White noise on init. David. guess    .... on
   Maximum white noise                  ....   0.010
   Quad. conv. algorithm                .... NR
   COSX micro iterations for RIJONX calc.... off
 SOSCF                  CNVSOSCF        .... on
   Start iteration      SOSCFMaxIt      ....   150
   Startup grad/error   SOSCFStart      ....  0.003300
 Level Shifting         CNVShift        .... on
   Level shift para.    LevelShift      ....    0.2500
   Turn off err/grad.   ShiftErr        ....    0.0010
 Zerner damping         CNVZerner       .... off
 Static damping         CNVDamp         .... on
   Fraction old density DampFac         ....    0.7000
   Max. Damping (<1)    DampMax         ....    0.9800
   Min. Damping (>=0)   DampMin         ....    0.0000
   Turn off err/grad.   DampErr         ....    0.1000
 Fernandez-Rico         CNVRico         .... off

SCF Procedure:
 Maximum # iterations   MaxIter         ....   125
 SCF integral mode      SCFMode         .... Direct
   Integral package                     .... SHARK and LIBINT hybrid scheme
 Reset frequency        DirectResetFreq ....    20
 Integral Threshold     Thresh          ....  2.500e-11 Eh
 Primitive CutOff       TCut            ....  2.500e-12 Eh

Convergence Tolerance:
 Convergence Check Mode ConvCheckMode   .... Total+1el-Energy
 Convergence forced     ConvForced      .... 0
 Energy Change          TolE            ....  1.000e-08 Eh
 1-El. energy change                    ....  1.000e-05 Eh
 Orbital Gradient       TolG            ....  1.000e-05
 Orbital Rotation angle TolX            ....  1.000e-05
 DIIS Error             TolErr          ....  5.000e-07


Diagonalization of the overlap matrix:
Smallest eigenvalue                        ... 2.263e-04
Time for diagonalization                   ...    0.063 sec
Threshold for overlap eigenvalues          ... 1.000e-08
Number of eigenvalues below threshold      ... 0
Time for construction of square roots      ...    0.054 sec
Total time needed                          ...    0.145 sec

--------------------------------
INITIAL GUESS: MINIMAL BASIS EHT
--------------------------------
The minimal basis has 124 functions
EHT matrix was diagonalized
Basis set overlap was calculated now projecting the orbitals
Using GuessMode=FMatrix for the initial guess
C*T matrix was formed
Effective Fockian was calculated
Effective Fockian was diagonalized
Initial density was built
                      ------------------
                      INITIAL GUESS DONE
                      ------------------
-------------------
DFT GRID GENERATION
-------------------

General Integration Accuracy     IntAcc      ... 4.959
Radial Grid Type                 RadialGrid  ... OptM3 with GC (2021)
Angular Grid (max. ang.)         AngularGrid ... 6 (Lebedev-590)
Angular grid pruning method      GridPruning ... 4 (adaptive)
Weight generation scheme         WeightScheme... Becke
Basis function cutoff            BFCut       ... 1.0000e-11
Integration weight cutoff        WCut        ... 1.0000e-14
Angular grids for H and He will be reduced by one unit
Partially contracted basis set               ... off
Rotationally invariant grid construction     ... off

Total number of grid points                  ...   429629
Total number of batches                      ...     6731
Average number of points per batch           ...       63
Average number of grid points per atom       ...    11934
Time for grid setup =   10.009 sec

--------------------
COSX GRID GENERATION
--------------------

GRIDX 1
-------
General Integration Accuracy     IntAcc      ... 4.020
Radial Grid Type                 RadialGrid  ... OptM3 with GC (2021)
Angular Grid (max. ang.)         AngularGrid ... 2 (Lebedev-110)
Angular grid pruning method      GridPruning ... 4 (adaptive)
Weight generation scheme         WeightScheme... Becke
Basis function cutoff            BFCut       ... 1.0000e-11
Integration weight cutoff        WCut        ... 1.0000e-14
Angular grids for H and He will be reduced by one unit
Partially contracted basis set               ... on
Rotationally invariant grid construction     ... off

Total number of grid points                  ...    48699
Total number of batches                      ...      783
Average number of points per batch           ...       62
Average number of grid points per atom       ...     1353
UseSFitting                                  ... on

GRIDX 2
-------
General Integration Accuracy     IntAcc      ... 4.338
Radial Grid Type                 RadialGrid  ... OptM3 with GC (2021)
Angular Grid (max. ang.)         AngularGrid ... 3 (Lebedev-194)
Angular grid pruning method      GridPruning ... 4 (adaptive)
Weight generation scheme         WeightScheme... Becke
Basis function cutoff            BFCut       ... 1.0000e-11
Integration weight cutoff        WCut        ... 1.0000e-14
Angular grids for H and He will be reduced by one unit
Partially contracted basis set               ... on
Rotationally invariant grid construction     ... off

Total number of grid points                  ...   106637
Total number of batches                      ...     1684
Average number of points per batch           ...       63
Average number of grid points per atom       ...     2962
UseSFitting                                  ... on

GRIDX 3
-------
General Integration Accuracy     IntAcc      ... 4.871
Radial Grid Type                 RadialGrid  ... OptM3 with GC (2021)
Angular Grid (max. ang.)         AngularGrid ... 4 (Lebedev-302)
Angular grid pruning method      GridPruning ... 4 (adaptive)
Weight generation scheme         WeightScheme... Becke
Basis function cutoff            BFCut       ... 1.0000e-11
Integration weight cutoff        WCut        ... 1.0000e-14
Angular grids for H and He will be reduced by one unit
Partially contracted basis set               ... on
Rotationally invariant grid construction     ... off

Total number of grid points                  ...   197611
Total number of batches                      ...     3104
Average number of points per batch           ...       63
Average number of grid points per atom       ...     5489
UseSFitting                                  ... on

Time for X-Grid setup             =    8.438 sec

--------------
SCF ITERATIONS
--------------
ITER       Energy         Delta-E        Max-DP      RMS-DP      [F,P]     Damp
               ***  Starting incremental Fock matrix formation  ***
  0   -842.8773364067   0.000000000000 0.11311204  0.00349811  0.4198854 0.7000
  1   -843.4724621101  -0.595125703420 0.08045557  0.00255525  0.2962946 0.7000
                      *** Initiating the SOSCF procedure ***
                      *** Re-Reading the Fockian *** 
                      *** Removing any level shift *** 
ITER      Energy       Delta-E        Grad      Rot      Max-DP    RMS-DP
  2   -843.90170860  -0.4292464907  0.003205  0.003205  0.192012  0.006214
               *** Restarting incremental Fock matrix formation ***
  3   -844.94386499  -1.0421563869  0.006944  0.007604  0.020844  0.000801
  4   -844.95004076  -0.0061757710  0.002442  0.010386  0.008757  0.000268
  5   -844.94982217   0.0002185898  0.003432  0.005792  0.004270  0.000168
  6   -844.95054561  -0.0007234380  0.000458  0.001448  0.001810  0.000050
  7   -844.95054275   0.0000028554  0.000401  0.000744  0.000972  0.000025
  8   -844.95056556  -0.0000228062  0.000088  0.000330  0.000225  0.000007
  9   -844.95056547   0.0000000836  0.000098  0.000145  0.000132  0.000004
 10   -844.95056597  -0.0000005000  0.000006  0.000014  0.000024  0.000001
 11   -844.95056598  -0.0000000032  0.000004  0.000007  0.000008  0.000000
                  ***Gradient check signals convergence***
              ***Rediagonalizing the Fockian in SOSCF/NRSCF***

               *****************************************************
               *                     SUCCESS                       *
               *           SCF CONVERGED AFTER  12 CYCLES          *
               *****************************************************

Old exchange energy                            =    -50.009911407 Eh
New exchange energy                            =    -50.009892778 Eh
Exchange energy change after final integration =      0.000018629 Eh
Total energy after final integration           =   -844.950547344 Eh
Final COS-X integration done in                =    40.387 sec

----------------
TOTAL SCF ENERGY
----------------

Total Energy       :         -844.95054734 Eh          -22992.27330 eV

Components:
Nuclear Repulsion  :         1608.03012349 Eh           43756.72421 eV
Electronic Energy  :        -2452.98067083 Eh          -66748.99751 eV
One Electron Energy:        -4336.26651331 Eh         -117995.81062 eV
Two Electron Energy:         1883.28584248 Eh           51246.81311 eV
Max COSX asymmetry :            0.00000113 Eh               0.00003 eV

Virial components:
Potential Energy   :        -1683.10585833 Eh          -45799.63881 eV
Kinetic Energy     :          838.15531098 Eh           22807.36552 eV
Virial Ratio       :            2.00810737


DFT components:
N(Alpha)           :       72.999994814430 electrons
N(Beta)            :       72.999994814430 electrons
N(Total)           :      145.999989628861 electrons
E(X)               :      -66.421521648038 Eh       
E(C)               :       -6.382350265951 Eh       
E(XC)              :      -72.803871913989 Eh       
DFET-embed. en.    :        0.000000000000 Eh       

---------------
SCF CONVERGENCE
---------------

  Last Energy change         ...    4.3467e-09  Tolerance :   1.0000e-08
  Last MAX-Density change    ...    1.2212e-15  Tolerance :   1.0000e-07
  Last RMS-Density change    ...    3.2030e-17  Tolerance :   5.0000e-09
  Last Orbital Gradient      ...    1.3013e-06  Tolerance :   1.0000e-05
  Last Orbital Rotation      ...    4.5014e-06  Tolerance :   1.0000e-05

             **** THE GBW FILE WAS UPDATED (pbeh-3c.gbw) ****
             **** DENSITY pbeh-3c.scfp WAS UPDATED ****
             **** ENERGY FILE WAS UPDATED (pbeh-3c.en.tmp) ****
             **** THE GBW FILE WAS UPDATED (pbeh-3c.gbw) ****
             **** DENSITY pbeh-3c.scfp WAS UPDATED ****
----------------
ORBITAL ENERGIES
----------------

  NO   OCC          E(Eh)            E(eV) 
   0   2.0000     -10.471640      -284.9478 
   1   2.0000     -10.471176      -284.9352 
   2   2.0000     -10.465933      -284.7925 
   3   2.0000     -10.465812      -284.7892 
   4   2.0000     -10.464480      -284.7530 
   5   2.0000     -10.464281      -284.7476 
   6   2.0000     -10.461987      -284.6851 
   7   2.0000     -10.461755      -284.6788 
   8   2.0000     -10.453650      -284.4583 
   9   2.0000     -10.453300      -284.4487 
  10   2.0000     -10.452924      -284.4385 
  11   2.0000     -10.452875      -284.4372 
  12   2.0000     -10.452492      -284.4268 
  13   2.0000     -10.452099      -284.4161 
  14   2.0000     -10.450709      -284.3783 
  15   2.0000     -10.450498      -284.3725 
  16   2.0000     -10.449741      -284.3519 
  17   2.0000     -10.449508      -284.3456 
  18   2.0000     -10.448227      -284.3107 
  19   2.0000     -10.447935      -284.3028 
  20   2.0000     -10.447542      -284.2921 
  21   2.0000     -10.447157      -284.2816 
  22   2.0000      -0.998744       -27.1772 
  23   2.0000      -0.975274       -26.5385 
  24   2.0000      -0.952079       -25.9074 
  25   2.0000      -0.922366       -25.0988 
  26   2.0000      -0.896211       -24.3871 
  27   2.0000      -0.883607       -24.0442 
  28   2.0000      -0.856080       -23.2951 
  29   2.0000      -0.841240       -22.8913 
  30   2.0000      -0.828862       -22.5545 
  31   2.0000      -0.810415       -22.0525 
  32   2.0000      -0.801341       -21.8056 
  33   2.0000      -0.724447       -19.7132 
  34   2.0000      -0.720970       -19.6186 
  35   2.0000      -0.694863       -18.9082 
  36   2.0000      -0.690252       -18.7827 
  37   2.0000      -0.690006       -18.7760 
  38   2.0000      -0.653732       -17.7889 
  39   2.0000      -0.628373       -17.0989 
  40   2.0000      -0.602651       -16.3990 
  41   2.0000      -0.599123       -16.3030 
  42   2.0000      -0.571294       -15.5457 
  43   2.0000      -0.567155       -15.4331 
  44   2.0000      -0.561596       -15.2818 
  45   2.0000      -0.532945       -14.5022 
  46   2.0000      -0.529496       -14.4083 
  47   2.0000      -0.517656       -14.0861 
  48   2.0000      -0.496377       -13.5071 
  49   2.0000      -0.495626       -13.4867 
  50   2.0000      -0.494962       -13.4686 
  51   2.0000      -0.488087       -13.2815 
  52   2.0000      -0.482150       -13.1200 
  53   2.0000      -0.477141       -12.9837 
  54   2.0000      -0.463073       -12.6009 
  55   2.0000      -0.460463       -12.5298 
  56   2.0000      -0.449695       -12.2368 
  57   2.0000      -0.446878       -12.1602 
  58   2.0000      -0.427648       -11.6369 
  59   2.0000      -0.422817       -11.5054 
  60   2.0000      -0.417606       -11.3636 
  61   2.0000      -0.405283       -11.0283 
  62   2.0000      -0.399549       -10.8723 
  63   2.0000      -0.385030       -10.4772 
  64   2.0000      -0.381432       -10.3793 
  65   2.0000      -0.375894       -10.2286 
  66   2.0000      -0.347026        -9.4431 
  67   2.0000      -0.335518        -9.1299 
  68   2.0000      -0.322818        -8.7843 
  69   2.0000      -0.293793        -7.9945 
  70   2.0000      -0.268981        -7.3193 
  71   2.0000      -0.248170        -6.7530 
  72   2.0000      -0.242452        -6.5975 
  73   0.0000      -0.037623        -1.0238 
  74   0.0000      -0.037566        -1.0222 
  75   0.0000      -0.007254        -0.1974 
  76   0.0000       0.015748         0.4285 
  77   0.0000       0.044379         1.2076 
  78   0.0000       0.060511         1.6466 
  79   0.0000       0.078661         2.1405 
  80   0.0000       0.128287         3.4909 
  81   0.0000       0.141631         3.8540 
  82   0.0000       0.151062         4.1106 
  83   0.0000       0.153646         4.1809 
  84   0.0000       0.165069         4.4917 
  85   0.0000       0.166535         4.5316 
  86   0.0000       0.180857         4.9214 
  87   0.0000       0.197506         5.3744 
  88   0.0000       0.201761         5.4902 
  89   0.0000       0.202717         5.5162 
  90   0.0000       0.215578         5.8662 
  91   0.0000       0.220559         6.0017 
  92   0.0000       0.229876         6.2552 
  93   0.0000       0.230094         6.2612 
  94   0.0000       0.241562         6.5732 
  95   0.0000       0.245247         6.6735 
  96   0.0000       0.248015         6.7488 
  97   0.0000       0.260985         7.1018 
  98   0.0000       0.266638         7.2556 
  99   0.0000       0.281308         7.6548 
 100   0.0000       0.285564         7.7706 
 101   0.0000       0.290861         7.9147 
 102   0.0000       0.308932         8.4065 
 103   0.0000       0.312780         8.5112 
 104   0.0000       0.325953         8.8696 
 105   0.0000       0.327125         8.9015 
 106   0.0000       0.331931         9.0323 
 107   0.0000       0.334553         9.1037 
 108   0.0000       0.341546         9.2939 
 109   0.0000       0.363164         9.8822 
 110   0.0000       0.366912         9.9842 
 111   0.0000       0.387320        10.5395 
 112   0.0000       0.396369        10.7857 
 113   0.0000       0.419504        11.4153 
 114   0.0000       0.461556        12.5596 
 115   0.0000       0.480187        13.0666 
 116   0.0000       0.499544        13.5933 
 117   0.0000       0.504968        13.7409 
 118   0.0000       0.507704        13.8153 
 119   0.0000       0.509200        13.8560 
 120   0.0000       0.515574        14.0295 
 121   0.0000       0.523849        14.2547 
 122   0.0000       0.527482        14.3535 
 123   0.0000       0.536343        14.5946 
 124   0.0000       0.537935        14.6380 
 125   0.0000       0.540117        14.6973 
 126   0.0000       0.548406        14.9229 
 127   0.0000       0.550365        14.9762 
 128   0.0000       0.564171        15.3519 
 129   0.0000       0.565473        15.3873 
 130   0.0000       0.565871        15.3981 
 131   0.0000       0.576996        15.7009 
 132   0.0000       0.590740        16.0748 
 133   0.0000       0.594623        16.1805 
 134   0.0000       0.597750        16.2656 
 135   0.0000       0.600656        16.3447 
 136   0.0000       0.602364        16.3912 
 137   0.0000       0.606241        16.4967 
 138   0.0000       0.607107        16.5202 
 139   0.0000       0.615928        16.7603 
 140   0.0000       0.618467        16.8293 
 141   0.0000       0.632246        17.2043 
 142   0.0000       0.635425        17.2908 
 143   0.0000       0.637707        17.3529 
 144   0.0000       0.639344        17.3974 
 145   0.0000       0.643850        17.5200 
 146   0.0000       0.645143        17.5552 
 147   0.0000       0.649598        17.6765 
 148   0.0000       0.656371        17.8608 
 149   0.0000       0.663549        18.0561 
 150   0.0000       0.666470        18.1356 
 151   0.0000       0.672587        18.3020 
 152   0.0000       0.688683        18.7400 
 153   0.0000       0.693736        18.8775 
 154   0.0000       0.700110        19.0510 
 155   0.0000       0.705552        19.1990 
 156   0.0000       0.717858        19.5339 
 157   0.0000       0.727454        19.7950 
 158   0.0000       0.741303        20.1719 
 159   0.0000       0.751607        20.4523 
 160   0.0000       0.752871        20.4867 
 161   0.0000       0.774542        21.0764 
 162   0.0000       0.777753        21.1637 
 163   0.0000       0.806954        21.9583 
 164   0.0000       0.815255        22.1842 
 165   0.0000       0.819296        22.2942 
 166   0.0000       0.840309        22.8660 
 167   0.0000       0.848303        23.0835 
 168   0.0000       0.856483        23.3061 
 169   0.0000       0.897426        24.4202 
 170   0.0000       0.908439        24.7199 
 171   0.0000       0.912515        24.8308 
 172   0.0000       0.919782        25.0285 
 173   0.0000       0.922808        25.1109 
 174   0.0000       0.933001        25.3882 
 175   0.0000       0.933482        25.4013 
 176   0.0000       0.956872        26.0378 
 177   0.0000       0.973305        26.4850 
 178   0.0000       0.973743        26.4969 
 179   0.0000       0.980140        26.6710 
 180   0.0000       0.987523        26.8719 
 181   0.0000       0.998339        27.1662 
 182   0.0000       0.999045        27.1854 
 183   0.0000       1.006783        27.3960 
 184   0.0000       1.009391        27.4669 
 185   0.0000       1.014420        27.6038 
 186   0.0000       1.024155        27.8687 
 187   0.0000       1.028917        27.9982 
 188   0.0000       1.030425        28.0393 
 189   0.0000       1.038608        28.2620 
 190   0.0000       1.060085        28.8464 
 191   0.0000       1.071080        29.1456 
 192   0.0000       1.077160        29.3110 
 193   0.0000       1.079066        29.3629 
 194   0.0000       1.079946        29.3868 
 195   0.0000       1.102896        30.0113 
 196   0.0000       1.105252        30.0754 
 197   0.0000       1.112632        30.2763 
 198   0.0000       1.118710        30.4416 
 199   0.0000       1.134003        30.8578 
 200   0.0000       1.146567        31.1997 
 201   0.0000       1.151825        31.3428 
 202   0.0000       1.178371        32.0651 
 203   0.0000       1.184552        32.2333 
 204   0.0000       1.193952        32.4891 
 205   0.0000       1.196091        32.5473 
 206   0.0000       1.209398        32.9094 
 207   0.0000       1.221033        33.2260 
 208   0.0000       1.237829        33.6830 
 209   0.0000       1.264912        34.4200 
 210   0.0000       1.270420        34.5699 
 211   0.0000       1.282293        34.8930 
 212   0.0000       1.289840        35.0983 
 213   0.0000       1.307245        35.5719 
 214   0.0000       1.311248        35.6809 
 215   0.0000       1.350512        36.7493 
 216   0.0000       1.359716        36.9998 
 217   0.0000       1.375406        37.4267 
 218   0.0000       1.386568        37.7304 
 219   0.0000       1.405440        38.2440 
 220   0.0000       1.411009        38.3955 
 221   0.0000       1.419571        38.6285 
 222   0.0000       1.427349        38.8401 
 223   0.0000       1.447220        39.3809 
 224   0.0000       1.470613        40.0174 
 225   0.0000       1.475389        40.1474 
 226   0.0000       1.494072        40.6558 
 227   0.0000       1.515471        41.2381 
 228   0.0000       1.525556        41.5125 
 229   0.0000       1.529358        41.6160 
 230   0.0000       1.536767        41.8175 
 231   0.0000       1.540446        41.9177 
 232   0.0000       1.548469        42.1360 
 233   0.0000       1.561774        42.4980 
 234   0.0000       1.567246        42.6469 
 235   0.0000       1.569569        42.7101 
 236   0.0000       1.577564        42.9277 
 237   0.0000       1.588574        43.2273 
 238   0.0000       1.595871        43.4259 
 239   0.0000       1.611763        43.8583 
 240   0.0000       1.633962        44.4624 
 241   0.0000       1.643907        44.7330 
 242   0.0000       1.654432        45.0194 
 243   0.0000       1.687175        45.9104 
 244   0.0000       1.761974        47.9458 
 245   0.0000       1.770583        48.1800 
 246   0.0000       1.784076        48.5472 
 247   0.0000       1.795822        48.8668 
 248   0.0000       1.810052        49.2540 
 249   0.0000       1.850159        50.3454 
 250   0.0000       1.859889        50.6102 
 251   0.0000       1.864031        50.7229 
 252   0.0000       1.882044        51.2130 
 253   0.0000       1.912146        52.0321 
 254   0.0000       1.915597        52.1261 
 255   0.0000       1.916673        52.1553 
 256   0.0000       1.955899        53.2227 
 257   0.0000       1.973726        53.7078 
 258   0.0000       1.980328        53.8875 
 259   0.0000       1.983395        53.9709 
 260   0.0000       1.994304        54.2678 
 261   0.0000       2.026607        55.1468 
 262   0.0000       2.039597        55.5002 
 263   0.0000       2.048721        55.7485 
 264   0.0000       2.056245        55.9533 
 265   0.0000       2.075092        56.4661 
 266   0.0000       2.082736        56.6741 
 267   0.0000       2.096081        57.0373 
 268   0.0000       2.103624        57.2425 
 269   0.0000       2.119631        57.6781 
 270   0.0000       2.135244        58.1029 
 271   0.0000       2.162592        58.8471 
 272   0.0000       2.163252        58.8651 
 273   0.0000       2.181672        59.3663 
 274   0.0000       2.210171        60.1418 
 275   0.0000       2.220591        60.4253 
 276   0.0000       2.227103        60.6026 
 277   0.0000       2.249081        61.2006 
 278   0.0000       2.263280        61.5870 
 279   0.0000       2.268095        61.7180 
 280   0.0000       2.276873        61.9569 
 281   0.0000       2.292911        62.3933 
 282   0.0000       2.298799        62.5535 
 283   0.0000       2.302832        62.6632 
 284   0.0000       2.318852        63.0992 
 285   0.0000       2.322483        63.1980 
 286   0.0000       2.332108        63.4599 
 287   0.0000       2.343352        63.7659 
 288   0.0000       2.356621        64.1269 
 289   0.0000       2.369784        64.4851 
 290   0.0000       2.374972        64.6263 
 291   0.0000       2.379657        64.7537 
 292   0.0000       2.401937        65.3600 
 293   0.0000       2.402612        65.3784 
 294   0.0000       2.409512        65.5662 
 295   0.0000       2.432054        66.1796 
 296   0.0000       2.442735        66.4702 
 297   0.0000       2.471446        67.2515 
 298   0.0000       2.535788        69.0023 
 299   0.0000       2.557317        69.5881 
 300   0.0000       2.596084        70.6430 
 301   0.0000       2.635789        71.7235 
 302   0.0000       2.639977        71.8374 
 303   0.0000       2.644075        71.9489 
 304   0.0000       2.664341        72.5004 
 305   0.0000       2.686964        73.1160 
 306   0.0000       2.687831        73.1396 
 307   0.0000       2.705177        73.6116 
 308   0.0000       2.717203        73.9389 
 309   0.0000       2.721926        74.0674 
 310   0.0000       2.736398        74.4612 
 311   0.0000       2.748278        74.7845 
 312   0.0000       2.752253        74.8926 
 313   0.0000       2.755747        74.9877 
 314   0.0000       2.771158        75.4071 
 315   0.0000       2.789624        75.9095 
 316   0.0000       2.825120        76.8754 
 317   0.0000       2.835869        77.1679 
 318   0.0000       2.841799        77.3293 
 319   0.0000       2.863959        77.9323 
 320   0.0000       2.869179        78.0743 
 321   0.0000       2.906056        79.0778 
 322   0.0000       2.908791        79.1522 
 323   0.0000       2.917387        79.3861 
 324   0.0000       2.933990        79.8379 
 325   0.0000       2.950812        80.2957 
 326   0.0000       2.980206        81.0955 
 327   0.0000       3.035603        82.6030 
 328   0.0000       3.079928        83.8091 
 329   0.0000       3.080022        83.8117 
 330   0.0000       3.155761        85.8726 
 331   0.0000       3.382425        92.0405 
 332   0.0000       3.390543        92.2614 
 333   0.0000       3.502948        95.3201 
 334   0.0000       3.507492        95.4437 
 335   0.0000       3.618053        98.4522 
 336   0.0000      13.147763       357.7688 
 337   0.0000      13.313254       362.2721 
 338   0.0000      13.407527       364.8374 
 339   0.0000      13.500967       367.3800 
 340   0.0000      13.621962       370.6724 
 341   0.0000      13.699756       372.7893 
 342   0.0000      13.768117       374.6495 
 343   0.0000      13.800214       375.5229 
 344   0.0000      13.864640       377.2760 
 345   0.0000      13.926244       378.9524 
 346   0.0000      13.942498       379.3947 
 347   0.0000      14.107171       383.8756 
 348   0.0000      14.118518       384.1844 
 349   0.0000      14.161592       385.3565 
 350   0.0000      14.164354       385.4317 
 351   0.0000      14.166672       385.4947 
 352   0.0000      14.236861       387.4047 
 353   0.0000      14.463855       393.5815 
 354   0.0000      14.466708       393.6591 
 355   0.0000      14.495679       394.4475 
 356   0.0000      14.539208       395.6320 
 357   0.0000      14.542689       395.7267 

                    ********************************
                    * MULLIKEN POPULATION ANALYSIS *
                    ********************************

-----------------------
MULLIKEN ATOMIC CHARGES
-----------------------
   0 C :   -0.282954
   1 C :   -0.283853
   2 C :    0.094322
   3 C :    0.092202
   4 C :    0.096011
   5 C :    0.092587
   6 C :   -0.276101
   7 C :   -0.293064
   8 C :    0.113837
   9 C :    0.019954
  10 C :   -0.275921
  11 C :   -0.292155
  12 C :    0.114340
  13 C :    0.014258
  14 C :   -0.275964
  15 C :   -0.228693
  16 C :   -0.215102
  17 C :   -0.306077
  18 C :   -0.309172
  19 C :   -0.214623
  20 C :   -0.229526
  21 C :   -0.275296
  22 H :    0.215109
  23 H :    0.215142
  24 H :    0.214952
  25 H :    0.214474
  26 H :    0.215198
  27 H :    0.214664
  28 H :    0.214186
  29 H :    0.220368
  30 H :    0.222938
  31 H :    0.257911
  32 H :    0.258908
  33 H :    0.222854
  34 H :    0.220184
  35 H :    0.214100
Sum of atomic charges:    0.0000000

--------------------------------
MULLIKEN REDUCED ORBITAL CHARGES
--------------------------------
  0 C s       :     3.290854  s :     3.290854
      pz      :     1.010161  p :     2.951870
      px      :     0.944714
      py      :     0.996995
      dz2     :     0.010518  d :     0.040230
      dxz     :     0.014043
      dyz     :     0.004537
      dx2y2   :     0.005849
      dxy     :     0.005282
  1 C s       :     3.291341  s :     3.291341
      pz      :     0.930711  p :     2.952305
      px      :     1.024887
      py      :     0.996706
      dz2     :     0.011656  d :     0.040207
      dxz     :     0.011493
      dyz     :     0.007438
      dx2y2   :     0.007243
      dxy     :     0.002378
  2 C s       :     3.218218  s :     3.218218
      pz      :     0.844892  p :     2.641196
      px      :     0.822832
      py      :     0.973473
      dz2     :     0.011812  d :     0.046264
      dxz     :     0.014470
      dyz     :     0.006881
      dx2y2   :     0.006387
      dxy     :     0.006715
  3 C s       :     3.307807  s :     3.307807
      pz      :     0.778419  p :     2.555916
      px      :     0.827997
      py      :     0.949500
      dz2     :     0.010444  d :     0.044074
      dxz     :     0.012489
      dyz     :     0.006725
      dx2y2   :     0.007526
      dxy     :     0.006889
  4 C s       :     3.308921  s :     3.308921
      pz      :     0.804164  p :     2.551058
      px      :     0.804658
      py      :     0.942235
      dz2     :     0.010965  d :     0.044010
      dxz     :     0.012741
      dyz     :     0.007105
      dx2y2   :     0.006465
      dxy     :     0.006734
  5 C s       :     3.219192  s :     3.219192
      pz      :     0.826854  p :     2.641943
      px      :     0.842648
      py      :     0.972442
      dz2     :     0.011778  d :     0.046278
      dxz     :     0.014222
      dyz     :     0.006880
      dx2y2   :     0.006563
      dxy     :     0.006835
  6 C s       :     3.283365  s :     3.283365
      pz      :     0.973851  p :     2.952579
      px      :     0.978419
      py      :     1.000309
      dz2     :     0.009272  d :     0.040157
      dxz     :     0.015124
      dyz     :     0.003828
      dx2y2   :     0.005778
      dxy     :     0.006156
  7 C s       :     3.296099  s :     3.296099
      pz      :     1.004483  p :     2.956546
      px      :     0.960073
      py      :     0.991990
      dz2     :     0.010450  d :     0.040418
      dxz     :     0.013726
      dyz     :     0.003374
      dx2y2   :     0.005967
      dxy     :     0.006900
  8 C s       :     3.215136  s :     3.215136
      pz      :     0.835240  p :     2.624929
      px      :     0.823651
      py      :     0.966037
      dz2     :     0.011656  d :     0.046099
      dxz     :     0.013890
      dyz     :     0.007164
      dx2y2   :     0.006537
      dxy     :     0.006852
  9 C s       :     3.282185  s :     3.282185
      pz      :     0.861628  p :     2.652955
      px      :     0.855191
      py      :     0.936135
      dz2     :     0.011473  d :     0.044906
      dxz     :     0.012191
      dyz     :     0.007551
      dx2y2   :     0.006889
      dxy     :     0.006803
 10 C s       :     3.283788  s :     3.283788
      pz      :     0.923895  p :     2.952036
      px      :     1.026778
      py      :     1.001364
      dz2     :     0.012053  d :     0.040097
      dxz     :     0.010758
      dyz     :     0.007306
      dx2y2   :     0.007499
      dxy     :     0.002481
 11 C s       :     3.296116  s :     3.296116
      pz      :     1.021946  p :     2.955692
      px      :     0.940704
      py      :     0.993041
      dz2     :     0.011208  d :     0.040347
      dxz     :     0.012958
      dyz     :     0.004177
      dx2y2   :     0.006118
      dxy     :     0.005887
 12 C s       :     3.214724  s :     3.214724
      pz      :     0.818829  p :     2.624831
      px      :     0.835899
      py      :     0.970103
      dz2     :     0.011439  d :     0.046104
      dxz     :     0.013818
      dyz     :     0.006742
      dx2y2   :     0.007087
      dxy     :     0.007019
 13 C s       :     3.280514  s :     3.280514
      pz      :     0.819664  p :     2.660281
      px      :     0.890726
      py      :     0.949892
      dz2     :     0.010918  d :     0.044947
      dxz     :     0.013286
      dyz     :     0.006823
      dx2y2   :     0.006790
      dxy     :     0.007130
 14 C s       :     3.287947  s :     3.287947
      pz      :     0.999067  p :     2.948258
      px      :     0.954923
      py      :     0.994268
      dz2     :     0.009685  d :     0.039759
      dxz     :     0.013993
      dyz     :     0.003567
      dx2y2   :     0.006163
      dxy     :     0.006351
 15 C s       :     3.251134  s :     3.251134
      pz      :     0.996434  p :     2.937260
      px      :     0.950245
      py      :     0.990580
      dz2     :     0.009716  d :     0.040298
      dxz     :     0.013611
      dyz     :     0.005333
      dx2y2   :     0.005439
      dxy     :     0.006200
 16 C s       :     3.242961  s :     3.242961
      pz      :     0.903224  p :     2.932047
      px      :     1.025605
      py      :     1.003218
      dz2     :     0.011992  d :     0.040095
      dxz     :     0.010646
      dyz     :     0.007352
      dx2y2   :     0.005566
      dxy     :     0.004538
 17 C s       :     3.308887  s :     3.308887
      pz      :     1.049424  p :     2.957047
      px      :     0.950121
      py      :     0.957502
      dz2     :     0.010863  d :     0.040143
      dxz     :     0.012368
      dyz     :     0.004579
      dx2y2   :     0.006316
      dxy     :     0.006018
 18 C s       :     3.310121  s :     3.310121
      pz      :     1.063062  p :     2.958920
      px      :     0.942018
      py      :     0.953840
      dz2     :     0.010406  d :     0.040131
      dxz     :     0.012266
      dyz     :     0.004570
      dx2y2   :     0.006620
      dxy     :     0.006268
 19 C s       :     3.242732  s :     3.242732
      pz      :     0.978012  p :     2.931776
      px      :     0.950410
      py      :     1.003354
      dz2     :     0.009400  d :     0.040114
      dxz     :     0.012875
      dyz     :     0.006419
      dx2y2   :     0.005355
      dxy     :     0.006064
 20 C s       :     3.251581  s :     3.251581
      pz      :     0.912196  p :     2.937631
      px      :     1.033511
      py      :     0.991925
      dz2     :     0.011772  d :     0.040314
      dxz     :     0.010825
      dyz     :     0.007483
      dx2y2   :     0.005348
      dxy     :     0.004885
 21 C s       :     3.287735  s :     3.287735
      pz      :     1.023567  p :     2.947793
      px      :     0.933624
      py      :     0.990602
      dz2     :     0.011727  d :     0.039769
      dxz     :     0.011493
      dyz     :     0.004325
      dx2y2   :     0.006280
      dxy     :     0.005943
 22 H s       :     0.784891  s :     0.784891
 23 H s       :     0.784858  s :     0.784858
 24 H s       :     0.785048  s :     0.785048
 25 H s       :     0.785526  s :     0.785526
 26 H s       :     0.784802  s :     0.784802
 27 H s       :     0.785336  s :     0.785336
 28 H s       :     0.785814  s :     0.785814
 29 H s       :     0.779632  s :     0.779632
 30 H s       :     0.777062  s :     0.777062
 31 H s       :     0.742089  s :     0.742089
 32 H s       :     0.741092  s :     0.741092
 33 H s       :     0.777146  s :     0.777146
 34 H s       :     0.779816  s :     0.779816
 35 H s       :     0.785900  s :     0.785900


                     *******************************
                     * LOEWDIN POPULATION ANALYSIS *
                     *******************************

----------------------
LOEWDIN ATOMIC CHARGES
----------------------
   0 C :   -0.121187
   1 C :   -0.121219
   2 C :   -0.030581
   3 C :   -0.009224
   4 C :   -0.009982
   5 C :   -0.030482
   6 C :   -0.124118
   7 C :   -0.120243
   8 C :   -0.032976
   9 C :   -0.030114
  10 C :   -0.123929
  11 C :   -0.120344
  12 C :   -0.033105
  13 C :   -0.030727
  14 C :   -0.125740
  15 C :   -0.134433
  16 C :   -0.137095
  17 C :   -0.116167
  18 C :   -0.116428
  19 C :   -0.136906
  20 C :   -0.134393
  21 C :   -0.125691
  22 H :    0.139133
  23 H :    0.139187
  24 H :    0.139060
  25 H :    0.138886
  26 H :    0.139164
  27 H :    0.138986
  28 H :    0.137116
  29 H :    0.137321
  30 H :    0.138397
  31 H :    0.152404
  32 H :    0.152736
  33 H :    0.138350
  34 H :    0.137257
  35 H :    0.137087

-------------------------------
LOEWDIN REDUCED ORBITAL CHARGES
-------------------------------
  0 C s       :     2.885547  s :     2.885547
      pz      :     1.091057  p :     3.144287
      px      :     1.064215
      py      :     0.989015
      dz2     :     0.025241  d :     0.091352
      dxz     :     0.033975
      dyz     :     0.008238
      dx2y2   :     0.012771
      dxy     :     0.011128
  1 C s       :     2.885611  s :     2.885611
      pz      :     1.080281  p :     3.144308
      px      :     1.075467
      py      :     0.988560
      dz2     :     0.030170  d :     0.091300
      dxz     :     0.029889
      dyz     :     0.015428
      dx2y2   :     0.012106
      dxy     :     0.003706
  2 C s       :     2.835467  s :     2.835467
      pz      :     1.054352  p :     3.083435
      px      :     1.068580
      py      :     0.960502
      dz2     :     0.029761  d :     0.111679
      dxz     :     0.039346
      dyz     :     0.013412
      dx2y2   :     0.015403
      dxy     :     0.013757
  3 C s       :     2.835826  s :     2.835826
      pz      :     1.028012  p :     3.067445
      px      :     1.054833
      py      :     0.984601
      dz2     :     0.026463  d :     0.105952
      dxz     :     0.033439
      dyz     :     0.013939
      dx2y2   :     0.017661
      dxy     :     0.014451
  4 C s       :     2.835989  s :     2.835989
      pz      :     1.045325  p :     3.068170
      px      :     1.035118
      py      :     0.987726
      dz2     :     0.028775  d :     0.105823
      dxz     :     0.033999
      dyz     :     0.014986
      dx2y2   :     0.013852
      dxy     :     0.014210
  5 C s       :     2.835276  s :     2.835276
      pz      :     1.062549  p :     3.083491
      px      :     1.059180
      py      :     0.961763
      dz2     :     0.031340  d :     0.111716
      dxz     :     0.037548
      dyz     :     0.014041
      dx2y2   :     0.015208
      dxy     :     0.013578
  6 C s       :     2.885562  s :     2.885562
      pz      :     1.061763  p :     3.147396
      px      :     1.088539
      py      :     0.997094
      dz2     :     0.021697  d :     0.091160
      dxz     :     0.036197
      dyz     :     0.007884
      dx2y2   :     0.013014
      dxy     :     0.012368
  7 C s       :     2.886262  s :     2.886262
      pz      :     1.067623  p :     3.142473
      px      :     1.084887
      py      :     0.989962
      dz2     :     0.022999  d :     0.091508
      dxz     :     0.033566
      dyz     :     0.006717
      dx2y2   :     0.014172
      dxy     :     0.014054
  8 C s       :     2.835302  s :     2.835302
      pz      :     1.064077  p :     3.086129
      px      :     1.049669
      py      :     0.972383
      dz2     :     0.030733  d :     0.111544
      dxz     :     0.036971
      dyz     :     0.015371
      dx2y2   :     0.014157
      dxy     :     0.014313
  9 C s       :     2.835836  s :     2.835836
      pz      :     1.068403  p :     3.085903
      px      :     1.023658
      py      :     0.993842
      dz2     :     0.030652  d :     0.108374
      dxz     :     0.031843
      dyz     :     0.017103
      dx2y2   :     0.014704
      dxy     :     0.014072
 10 C s       :     2.886011  s :     2.886011
      pz      :     1.074102  p :     3.146956
      px      :     1.078667
      py      :     0.994188
      dz2     :     0.030721  d :     0.090962
      dxz     :     0.028115
      dyz     :     0.015390
      dx2y2   :     0.012730
      dxy     :     0.004006
 11 C s       :     2.886742  s :     2.886742
      pz      :     1.089594  p :     3.142337
      px      :     1.065677
      py      :     0.987066
      dz2     :     0.025913  d :     0.091266
      dxz     :     0.031713
      dyz     :     0.007246
      dx2y2   :     0.013855
      dxy     :     0.012539
 12 C s       :     2.835436  s :     2.835436
      pz      :     1.062947  p :     3.086103
      px      :     1.055112
      py      :     0.968044
      dz2     :     0.030350  d :     0.111567
      dxz     :     0.036498
      dyz     :     0.014300
      dx2y2   :     0.016186
      dxy     :     0.014232
 13 C s       :     2.835758  s :     2.835758
      pz      :     1.040421  p :     3.086452
      px      :     1.055673
      py      :     0.990358
      dz2     :     0.028115  d :     0.108517
      dxz     :     0.035590
      dyz     :     0.014329
      dx2y2   :     0.015138
      dxy     :     0.015344
 14 C s       :     2.887623  s :     2.887623
      pz      :     1.065743  p :     3.148140
      px      :     1.079624
      py      :     1.002774
      dz2     :     0.021718  d :     0.089976
      dxz     :     0.033361
      dyz     :     0.007188
      dx2y2   :     0.013950
      dxy     :     0.013759
 15 C s       :     2.890687  s :     2.890687
      pz      :     1.077155  p :     3.152345
      px      :     1.083169
      py      :     0.992021
      dz2     :     0.022723  d :     0.091401
      dxz     :     0.032898
      dyz     :     0.010294
      dx2y2   :     0.012757
      dxy     :     0.012728
 16 C s       :     2.889706  s :     2.889706
      pz      :     1.085930  p :     3.156060
      px      :     1.069049
      py      :     1.001082
      dz2     :     0.030835  d :     0.091329
      dxz     :     0.027143
      dyz     :     0.016485
      dx2y2   :     0.009231
      dxy     :     0.007635
 17 C s       :     2.888643  s :     2.888643
      pz      :     1.093051  p :     3.137138
      px      :     1.055483
      py      :     0.988604
      dz2     :     0.024550  d :     0.090386
      dxz     :     0.029183
      dyz     :     0.009235
      dx2y2   :     0.014011
      dxy     :     0.013408
 18 C s       :     2.888527  s :     2.888527
      pz      :     1.075314  p :     3.137535
      px      :     1.068619
      py      :     0.993602
      dz2     :     0.022659  d :     0.090366
      dxz     :     0.029283
      dyz     :     0.009638
      dx2y2   :     0.014543
      dxy     :     0.014242
 19 C s       :     2.889638  s :     2.889638
      pz      :     1.074467  p :     3.155891
      px      :     1.075785
      py      :     1.005639
      dz2     :     0.022283  d :     0.091377
      dxz     :     0.031412
      dyz     :     0.012799
      dx2y2   :     0.011939
      dxy     :     0.012944
 20 C s       :     2.890622  s :     2.890622
      pz      :     1.088739  p :     3.152320
      px      :     1.067434
      py      :     0.996146
      dz2     :     0.030163  d :     0.091452
      dxz     :     0.027545
      dyz     :     0.016639
      dx2y2   :     0.008944
      dxy     :     0.008160
 21 C s       :     2.887611  s :     2.887611
      pz      :     1.084277  p :     3.148071
      px      :     1.057397
      py      :     1.006397
      dz2     :     0.026132  d :     0.090010
      dxz     :     0.027795
      dyz     :     0.009003
      dx2y2   :     0.013766
      dxy     :     0.013313
 22 H s       :     0.860867  s :     0.860867
 23 H s       :     0.860813  s :     0.860813
 24 H s       :     0.860940  s :     0.860940
 25 H s       :     0.861114  s :     0.861114
 26 H s       :     0.860836  s :     0.860836
 27 H s       :     0.861014  s :     0.861014
 28 H s       :     0.862884  s :     0.862884
 29 H s       :     0.862679  s :     0.862679
 30 H s       :     0.861603  s :     0.861603
 31 H s       :     0.847596  s :     0.847596
 32 H s       :     0.847264  s :     0.847264
 33 H s       :     0.861650  s :     0.861650
 34 H s       :     0.862743  s :     0.862743
 35 H s       :     0.862913  s :     0.862913


                      *****************************
                      * MAYER POPULATION ANALYSIS *
                      *****************************

  NA   - Mulliken gross atomic population
  ZA   - Total nuclear charge
  QA   - Mulliken gross atomic charge
  VA   - Mayer's total valence
  BVA  - Mayer's bonded valence
  FA   - Mayer's free valence

  ATOM       NA         ZA         QA         VA         BVA        FA
  0 C      6.2830     6.0000    -0.2830     3.7928     3.7928     0.0000
  1 C      6.2839     6.0000    -0.2839     3.7932     3.7932    -0.0000
  2 C      5.9057     6.0000     0.0943     3.7355     3.7355    -0.0000
  3 C      5.9078     6.0000     0.0922     3.5026     3.5026    -0.0000
  4 C      5.9040     6.0000     0.0960     3.4977     3.4977     0.0000
  5 C      5.9074     6.0000     0.0926     3.7352     3.7352     0.0000
  6 C      6.2761     6.0000    -0.2761     3.7898     3.7898     0.0000
  7 C      6.2931     6.0000    -0.2931     3.7991     3.7991     0.0000
  8 C      5.8862     6.0000     0.1138     3.7250     3.7250     0.0000
  9 C      5.9800     6.0000     0.0200     3.6663     3.6663     0.0000
 10 C      6.2759     6.0000    -0.2759     3.7891     3.7891     0.0000
 11 C      6.2922     6.0000    -0.2922     3.7982     3.7982     0.0000
 12 C      5.8857     6.0000     0.1143     3.7252     3.7252     0.0000
 13 C      5.9857     6.0000     0.0143     3.6720     3.6720     0.0000
 14 C      6.2760     6.0000    -0.2760     3.7779     3.7779    -0.0000
 15 C      6.2287     6.0000    -0.2287     3.8224     3.8224     0.0000
 16 C      6.2151     6.0000    -0.2151     3.8216     3.8216    -0.0000
 17 C      6.3061     6.0000    -0.3061     3.7676     3.7676    -0.0000
 18 C      6.3092     6.0000    -0.3092     3.7671     3.7671     0.0000
 19 C      6.2146     6.0000    -0.2146     3.8220     3.8220     0.0000
 20 C      6.2295     6.0000    -0.2295     3.8227     3.8227    -0.0000
 21 C      6.2753     6.0000    -0.2753     3.7774     3.7774     0.0000
 22 H      0.7849     1.0000     0.2151     0.9147     0.9147    -0.0000
 23 H      0.7849     1.0000     0.2151     0.9148     0.9148     0.0000
 24 H      0.7850     1.0000     0.2150     0.9147     0.9147     0.0000
 25 H      0.7855     1.0000     0.2145     0.9155     0.9155    -0.0000
 26 H      0.7848     1.0000     0.2152     0.9147     0.9147     0.0000
 27 H      0.7853     1.0000     0.2147     0.9155     0.9155    -0.0000
 28 H      0.7858     1.0000     0.2142     0.9153     0.9153    -0.0000
 29 H      0.7796     1.0000     0.2204     0.9114     0.9114     0.0000
 30 H      0.7771     1.0000     0.2229     0.9109     0.9109    -0.0000
 31 H      0.7421     1.0000     0.2579     0.8952     0.8952    -0.0000
 32 H      0.7411     1.0000     0.2589     0.8938     0.8938     0.0000
 33 H      0.7771     1.0000     0.2229     0.9109     0.9109     0.0000
 34 H      0.7798     1.0000     0.2202     0.9114     0.9114    -0.0000
 35 H      0.7859     1.0000     0.2141     0.9153     0.9153    -0.0000

  Mayer bond orders larger than 0.100000
B(  0-C ,  1-C ) :   1.5701 B(  0-C ,  5-C ) :   1.2090 B(  0-C , 22-H ) :   0.9246 
B(  1-C ,  2-C ) :   1.2091 B(  1-C , 23-H ) :   0.9246 B(  2-C ,  3-C ) :   1.3406 
B(  2-C , 10-C ) :   1.1735 B(  3-C ,  4-C ) :   1.1412 B(  3-C , 13-C ) :   1.1012 
B(  4-C ,  5-C ) :   1.3378 B(  4-C ,  9-C ) :   1.1012 B(  5-C ,  6-C ) :   1.1742 
B(  6-C ,  7-C ) :   1.6120 B(  6-C , 24-H ) :   0.9243 B(  7-C ,  8-C ) :   1.1777 
B(  7-C , 25-H ) :   0.9243 B(  8-C ,  9-C ) :   1.2925 B(  8-C , 21-C ) :   1.2555 
B(  9-C , 18-C ) :   1.2933 B( 10-C , 11-C ) :   1.6125 B( 10-C , 26-H ) :   0.9243 
B( 11-C , 12-C ) :   1.1770 B( 11-C , 27-H ) :   0.9243 B( 12-C , 13-C ) :   1.2931 
B( 12-C , 14-C ) :   1.2560 B( 13-C , 17-C ) :   1.2958 B( 14-C , 15-C ) :   1.5144 
B( 14-C , 28-H ) :   0.9251 B( 15-C , 16-C ) :   1.3239 B( 15-C , 29-H ) :   0.9186 
B( 16-C , 17-C ) :   1.5175 B( 16-C , 30-H ) :   0.9184 B( 17-C , 31-H ) :   0.9056 
B( 18-C , 19-C ) :   1.5185 B( 18-C , 32-H ) :   0.9051 B( 19-C , 20-C ) :   1.3237 
B( 19-C , 33-H ) :   0.9185 B( 20-C , 21-C ) :   1.5144 B( 20-C , 34-H ) :   0.9187 
B( 21-C , 35-H ) :   0.9252 

-------
TIMINGS
-------

Total SCF time: 0 days 0 hours 5 min 49 sec 

Total time                  ....     349.990 sec
Sum of individual times     ....     344.425 sec  ( 98.4%)

Fock matrix formation       ....     321.628 sec  ( 91.9%)
  Split-RI-J                ....      20.724 sec  (  6.4% of F)
  Chain of spheres X        ....     250.550 sec  ( 77.9% of F)
  XC integration            ....      39.448 sec  ( 12.3% of F)
    Basis function eval.    ....      12.169 sec  ( 30.8% of XC)
    Density eval.           ....       8.151 sec  ( 20.7% of XC)
    XC-Functional eval.     ....       2.529 sec  (  6.4% of XC)
    XC-Potential eval.      ....       4.811 sec  ( 12.2% of XC)
Diagonalization             ....       0.403 sec  (  0.1%)
Density matrix formation    ....       0.209 sec  (  0.1%)
Population analysis         ....       0.956 sec  (  0.3%)
Initial guess               ....       0.128 sec  (  0.0%)
Orbital Transformation      ....       0.000 sec  (  0.0%)
Orbital Orthonormalization  ....       0.000 sec  (  0.0%)
DIIS solution               ....       0.505 sec  (  0.1%)
SOSCF solution              ....       2.149 sec  (  0.6%)
Grid generation             ....      18.447 sec  (  5.3%)

Maximum memory used throughout the entire SCF-calculation: 116.5 MB


-------------------------------------------------------------------------------
                          DFT DISPERSION CORRECTION                            
                                                                               
                              DFTD3 V3.1  Rev 1                                
                          USING Becke-Johnson damping                          
-------------------------------------------------------------------------------
The PBEh-3c composite method is recognized
Using three-body term ABC
Active option DFTDOPT                   ...         4   

molecular C6(AA) [au] = 18120.571039 


            DFT-D V3
 parameters
 s6 scaling factor         :     1.0000 
 a1 scaling factor         :     0.4860 
 s8 scaling factor         :     0.0000 
 a2 scaling factor         :     4.5000 
 Damping factor alpha9(ATM):    16.0000 
 ad hoc parameters k1-k3   :    16.0000     1.3333    -4.0000 

 Edisp/kcal,au: -19.623249794293  -0.031271635748 
 E6   /kcal   : -19.672252909 
 E8   /kcal   :  -0.000000000 
 E6(ABC)      :   0.049003115 
 % E8         :   0.000000000 
 % E6(ABC)    :  -0.249719669 

-------------------------   ----------------
Dispersion correction           -0.031271636
-------------------------   ----------------

------------------   -----------------
gCP correction             0.048501074
------------------   -----------------

-------------------------   --------------------
FINAL SINGLE POINT ENERGY      -844.933317905112
-------------------------   --------------------


                            ***************************************
                            *     ORCA property calculations      *
                            ***************************************

                                    ---------------------
                                    Active property flags
                                    ---------------------
   (+) Dipole Moment


------------------------------------------------------------------------------
                       ORCA ELECTRIC PROPERTIES CALCULATION
------------------------------------------------------------------------------

Dipole Moment Calculation                       ... on
Quadrupole Moment Calculation                   ... off
Polarizability Calculation                      ... off
GBWName                                         ... pbeh-3c.gbw
Electron density                                ... pbeh-3c.scfp
The origin for moment calculation is the CENTER OF MASS  = ( 0.283127, -1.050823 -0.005848)

-------------
DIPOLE MOMENT
-------------
                                X             Y             Z
Electronic contribution:      2.94917       0.15169      -1.44681
Nuclear contribution   :     -2.95733      -0.15814       1.45570
                        -----------------------------------------
Total Dipole Moment    :     -0.00816      -0.00645       0.00889
                        -----------------------------------------
Magnitude (a.u.)       :      0.01368
Magnitude (Debye)      :      0.03478



--------------------
Rotational spectrum 
--------------------
 
Rotational constants in cm-1:     0.014981     0.009504     0.006215 
Rotational constants in MHz :   449.126491   284.926461   186.310692 

 Dipole components along the rotational axes: 
x,y,z [a.u.] :     0.002025    -0.011449    -0.007214 
x,y,z [Debye]:     0.005148    -0.029100    -0.018337 

 

Timings for individual modules:

Sum of individual times         ...      353.868 sec (=   5.898 min)
GTO integral calculation        ...        3.103 sec (=   0.052 min)   0.9 %
SCF iterations                  ...      350.764 sec (=   5.846 min)  99.1 %
                             ****ORCA TERMINATED NORMALLY****
TOTAL RUN TIME: 0 days 0 hours 5 minutes 55 seconds 299 msec
