
                                 *****************
                                 * O   R   C   A *
                                 *****************

                                            #,                                       
                                            ###                                      
                                            ####                                     
                                            #####                                    
                                            ######                                   
                                           ########,                                 
                                     ,,################,,,,,                         
                               ,,#################################,,                 
                          ,,##########################################,,             
                       ,#########################################, ''#####,          
                    ,#############################################,,   '####,        
                  ,##################################################,,,,####,       
                ,###########''''           ''''###############################       
              ,#####''   ,,,,##########,,,,          '''####'''          '####       
            ,##' ,,,,###########################,,,                        '##       
           ' ,,###''''                  '''############,,,                           
         ,,##''                                '''############,,,,        ,,,,,,###''
      ,#''                                            '''#######################'''  
     '                                                          ''''####''''         
             ,#######,   #######,   ,#######,      ##                                
            ,#'     '#,  ##    ##  ,#'     '#,    #''#        ######   ,####,        
            ##       ##  ##   ,#'  ##            #'  '#       #        #'  '#        
            ##       ##  #######   ##           ,######,      #####,   #    #        
            '#,     ,#'  ##    ##  '#,     ,#' ,#      #,         ##   #,  ,#        
             '#######'   ##     ##  '#######'  #'      '#     #####' # '####'        



                  #######################################################
                  #                        -***-                        #
                  #          Department of theory and spectroscopy      #
                  #    Directorship and core code : Frank Neese         #
                  #        Max Planck Institute fuer Kohlenforschung    #
                  #                Kaiser Wilhelm Platz 1               #
                  #                 D-45470 Muelheim/Ruhr               #
                  #                      Germany                        #
                  #                                                     #
                  #                  All rights reserved                #
                  #                        -***-                        #
                  #######################################################


                         Program Version 5.0.3 -  RELEASE  -


 With contributions from (in alphabetic order):
   Daniel Aravena         : Magnetic Suceptibility
   Michael Atanasov       : Ab Initio Ligand Field Theory (pilot matlab implementation)
   Alexander A. Auer      : GIAO ZORA, VPT2 properties, NMR spectrum
   Ute Becker             : Parallelization
   Giovanni Bistoni       : ED, misc. LED, open-shell LED, HFLD
   Martin Brehm           : Molecular dynamics
   Dmytro Bykov           : SCF Hessian
   Vijay G. Chilkuri      : MRCI spin determinant printing, contributions to CSF-ICE
   Dipayan Datta          : RHF DLPNO-CCSD density
   Achintya Kumar Dutta   : EOM-CC, STEOM-CC
   Dmitry Ganyushin       : Spin-Orbit,Spin-Spin,Magnetic field MRCI
   Miquel Garcia          : C-PCM and meta-GGA Hessian, CC/C-PCM, Gaussian charge scheme
   Yang Guo               : DLPNO-NEVPT2, F12-NEVPT2, CIM, IAO-localization
   Andreas Hansen         : Spin unrestricted coupled pair/coupled cluster methods
   Benjamin Helmich-Paris : MC-RPA, TRAH-SCF, COSX integrals
   Lee Huntington         : MR-EOM, pCC
   Robert Izsak           : Overlap fitted RIJCOSX, COSX-SCS-MP3, EOM
   Marcus Kettner         : VPT2
   Christian Kollmar      : KDIIS, OOCD, Brueckner-CCSD(T), CCSD density, CASPT2, CASPT2-K
   Simone Kossmann        : Meta GGA functionals, TD-DFT gradient, OOMP2, MP2 Hessian
   Martin Krupicka        : Initial AUTO-CI
   Lucas Lang             : DCDCAS
   Marvin Lechner         : AUTO-CI (C++ implementation), FIC-MRCC
   Dagmar Lenk            : GEPOL surface, SMD
   Dimitrios Liakos       : Extrapolation schemes; Compound Job, initial MDCI parallelization
   Dimitrios Manganas     : Further ROCIS development; embedding schemes
   Dimitrios Pantazis     : SARC Basis sets
   Anastasios Papadopoulos: AUTO-CI, single reference methods and gradients
   Taras Petrenko         : DFT Hessian,TD-DFT gradient, ASA, ECA, R-Raman, ABS, FL, XAS/XES, NRVS
   Peter Pinski           : DLPNO-MP2, DLPNO-MP2 Gradient
   Christoph Reimann      : Effective Core Potentials
   Marius Retegan         : Local ZFS, SOC
   Christoph Riplinger    : Optimizer, TS searches, QM/MM, DLPNO-CCSD(T), (RO)-DLPNO pert. Triples
   Tobias Risthaus        : Range-separated hybrids, TD-DFT gradient, RPA, STAB
   Michael Roemelt        : Original ROCIS implementation
   Masaaki Saitow         : Open-shell DLPNO-CCSD energy and density
   Barbara Sandhoefer     : DKH picture change effects
   Avijit Sen             : IP-ROCIS
   Kantharuban Sivalingam : CASSCF convergence, NEVPT2, FIC-MRCI
   Bernardo de Souza      : ESD, SOC TD-DFT
   Georgi Stoychev        : AutoAux, RI-MP2 NMR, DLPNO-MP2 response
   Willem Van den Heuvel  : Paramagnetic NMR
   Boris Wezisla          : Elementary symmetry handling
   Frank Wennmohs         : Technical directorship


 We gratefully acknowledge several colleagues who have allowed us to
 interface, adapt or use parts of their codes:
   Stefan Grimme, W. Hujo, H. Kruse, P. Pracht,  : VdW corrections, initial TS optimization,
                  C. Bannwarth, S. Ehlert          DFT functionals, gCP, sTDA/sTD-DF
   Ed Valeev, F. Pavosevic, A. Kumar             : LibInt (2-el integral package), F12 methods
   Garnet Chan, S. Sharma, J. Yang, R. Olivares  : DMRG
   Ulf Ekstrom                                   : XCFun DFT Library
   Mihaly Kallay                                 : mrcc  (arbitrary order and MRCC methods)
   Jiri Pittner, Ondrej Demel                    : Mk-CCSD
   Frank Weinhold                                : gennbo (NPA and NBO analysis)
   Christopher J. Cramer and Donald G. Truhlar   : smd solvation model
   Lars Goerigk                                  : TD-DFT with DH, B97 family of functionals
   V. Asgeirsson, H. Jonsson                     : NEB implementation
   FAccTs GmbH                                   : IRC, NEB, NEB-TS, DLPNO-Multilevel, CI-OPT
                                                   MM, QMMM, 2- and 3-layer-ONIOM, Crystal-QMMM,
                                                   LR-CPCM, SF, NACMEs, symmetry and pop. for TD-DFT,
                                                   nearIR, NL-DFT gradient (VV10), updates on ESD,
                                                   ML-optimized integration grids
   S Lehtola, MJT Oliveira, MAL Marques          : LibXC Library
   Liviu Ungur et al                             : ANISO software


 Your calculation uses the libint2 library for the computation of 2-el integrals
 For citations please refer to: http://libint.valeyev.net

 Your ORCA version has been built with support for libXC version: 5.1.0
 For citations please refer to: https://tddft.org/programs/libxc/

 This ORCA versions uses:
   CBLAS   interface :  Fast vector & matrix operations
   LAPACKE interface :  Fast linear algebra routines
   SCALAPACK package :  Parallel linear algebra routines
   Shared memory     :  Shared parallel matrices
   BLAS/LAPACK       :  OpenBLAS 0.3.15  USE64BITINT DYNAMIC_ARCH NO_AFFINITY Haswell SINGLE_THREADED
        Core in use  :  Haswell
   Copyright (c) 2011-2014, The OpenBLAS Project




***************************************
The coordinates will be read from file: 45.xyz
***************************************


Your calculation utilizes the geometrical counterpoise correction gCP
Please cite in your paper:
H.Kruse, S. Grimme J.Chem.Phys., 136, (2012), 154101 
   

Your calculation utilizes the atom-pairwise dispersion correction
with the Becke-Johnson damping scheme (D3BJ)
Cite in your paper:
S.Grimme, S.Ehrlich, L.Goerigk, J Comput Chem, (2011), 32, 1456–1465 
S.Grimme, J.Antony, S.Ehrlich and H.Krieg, J.Chem.Phys., 132, (2010), 154104 
   

Your calculation employs the composite approach PBEh-3c.
Please cite in your paper:
S. Grimme, J. G. Brandenburg, C. Bannwarth, A. Hansen J.Chem.Phys., 143, (2015), 054107 
   

================================================================================

----- Orbital basis set information -----
Your calculation utilizes the basis: def2-mSVP

----- AuxJ basis set information -----
Your calculation utilizes the auxiliary basis: def2/J
   F. Weigend, Phys. Chem. Chem. Phys. 8, 1057 (2006).

================================================================================
                                        WARNINGS
                       Please study these warnings very carefully!
================================================================================


INFO   : the flag for use of the SHARK integral package has been found!

================================================================================
                                       INPUT FILE
================================================================================
NAME = pbeh-3c.inp
|  1> ! PBEh-3c def2/J TightSCF DefGrid3
|  2> 
|  3> %maxcore 60000
|  4> 
|  5> %pal
|  6> nprocs 4
|  7> end
|  8> 
|  9> *xyzfile 0 1 45.xyz
| 10> 
| 11>                          ****END OF INPUT****
================================================================================

                       ****************************
                       * Single Point Calculation *
                       ****************************

---------------------------------
CARTESIAN COORDINATES (ANGSTROEM)
---------------------------------
  N      1.130751   -2.667378   -0.116917
  C     -0.111233   -2.069812   -0.151839
  C      0.030460   -0.698637   -0.124122
  C      1.441300   -0.441754   -0.069545
  C      2.193524    0.752151   -0.021829
  C      3.576252    0.651982    0.025333
  C      4.219189   -0.610930    0.026038
  C      3.496873   -1.787668   -0.019466
  C      2.099212   -1.691223   -0.067134
  H      1.297078   -3.656582   -0.132685
  H     -1.001513   -2.675076   -0.195136
  H      1.691622    1.708257   -0.021314
  H      5.299504   -0.625164    0.064022
  H      4.002379   -2.744670   -0.017769
  O      4.434357    1.718014    0.074701
  C      3.838116    3.003868    0.077517
  H      3.193939    3.140658    0.949022
  H      3.256703    3.173624   -0.831548
  H      4.657976    3.714399    0.119518
  C     -1.046592    0.342905   -0.139735
  C     -2.449587   -0.243197   -0.249193
  N     -3.432822    0.826630   -0.264591
  C     -4.775127    0.708057   -0.015508
  C     -5.229278   -0.596487    0.607260
  H     -0.880033    1.023798   -0.981654
  H     -0.994242    0.952650    0.766568
  H     -2.638467   -0.885494    0.609661
  H     -2.516521   -0.863044   -1.149695
  H     -3.195539    1.665511   -0.772219
  O     -5.551142    1.619730   -0.260320
  H     -4.736020   -0.763562    1.564785
  H     -4.999157   -1.442074   -0.041291
  H     -6.301962   -0.539489    0.759082

----------------------------
CARTESIAN COORDINATES (A.U.)
----------------------------
  NO LB      ZA    FRAG     MASS         X           Y           Z
   0 N     7.0000    0    14.007    2.136810   -5.040613   -0.220941
   1 C     6.0000    0    12.011   -0.210200   -3.911377   -0.286934
   2 C     6.0000    0    12.011    0.057561   -1.320232   -0.234556
   3 C     6.0000    0    12.011    2.723662   -0.834794   -0.131421
   4 C     6.0000    0    12.011    4.145159    1.421360   -0.041251
   5 C     6.0000    0    12.011    6.758136    1.232068    0.047873
   6 C     6.0000    0    12.011    7.973111   -1.154490    0.049205
   7 C     6.0000    0    12.011    6.608132   -3.378202   -0.036785
   8 C     6.0000    0    12.011    3.966936   -3.195948   -0.126865
   9 H     1.0000    0     1.008    2.451122   -6.909938   -0.250738
  10 H     1.0000    0     1.008   -1.892585   -5.055162   -0.368753
  11 H     1.0000    0     1.008    3.196702    3.228138   -0.040277
  12 H     1.0000    0     1.008   10.014610   -1.181388    0.120984
  13 H     1.0000    0     1.008    7.563400   -5.186676   -0.033578
  14 O     8.0000    0    15.999    8.379720    3.246576    0.141165
  15 C     6.0000    0    12.011    7.252988    5.676488    0.146486
  16 H     1.0000    0     1.008    6.035670    5.934984    1.793392
  17 H     1.0000    0     1.008    6.154276    5.997280   -1.571398
  18 H     1.0000    0     1.008    8.802298    7.019197    0.225856
  19 C     6.0000    0    12.011   -1.977772    0.647997   -0.264061
  20 C     6.0000    0    12.011   -4.629048   -0.459575   -0.470906
  21 N     7.0000    0    14.007   -6.487093    1.562105   -0.500004
  22 C     6.0000    0    12.011   -9.023682    1.338034   -0.029306
  23 C     6.0000    0    12.011   -9.881903   -1.127197    1.147555
  24 H     1.0000    0     1.008   -1.663021    1.934698   -1.855057
  25 H     1.0000    0     1.008   -1.878845    1.800248    1.448604
  26 H     1.0000    0     1.008   -4.985980   -1.673341    1.152092
  27 H     1.0000    0     1.008   -4.755535   -1.630916   -2.172608
  28 H     1.0000    0     1.008   -6.038693    3.147360   -1.459282
  29 O     8.0000    0    15.999  -10.490137    3.060846   -0.491933
  30 H     1.0000    0     1.008   -8.949780   -1.442922    2.957015
  31 H     1.0000    0     1.008   -9.447037   -2.725124   -0.078028
  32 H     1.0000    0     1.008  -11.908982   -1.019486    1.434457

--------------------------------
INTERNAL COORDINATES (ANGSTROEM)
--------------------------------
 N      0   0   0     0.000000000000     0.00000000     0.00000000
 C      1   0   0     1.378705392310     0.00000000     0.00000000
 C      2   1   0     1.378755143137   109.75237242     0.00000000
 C      3   2   1     1.435073777912   106.24928779     0.00000000
 C      4   3   2     1.411922987500   132.56429289   180.06321902
 C      5   4   3     1.387153390308   118.10918676   180.00601592
 C      6   5   4     1.417150292014   121.10480248     0.00000000
 C      7   6   5     1.381493017972   121.45681959   359.97186759
 C      1   2   3     1.375962733654   109.11555985   359.94598275
 H      1   2   3     1.003213763048   125.19264799   180.38083971
 H      2   1   3     1.077412887302   120.12577612   179.92496674
 H      5   4   3     1.079835388235   120.07203329     0.09067889
 H      7   6   5     1.081076164835   117.71763364   180.00116356
 H      8   7   6     1.082309403707   120.59150697   180.03215910
 O      6   5   4     1.369381471860   124.72569333   180.00837251
 C     15   6   5     1.417367811149   116.27690421     0.04565352
 H     16  15   6     1.092335180226   111.30120414    61.07027896
 H     16  15   6     1.092363126481   111.29876202   298.86984111
 H     16  15   6     1.085720343116   106.02922070   179.97397195
 C      3   2   1     1.498363804461   128.11313115   180.29343916
 C     20   3   2     1.524431428557   113.26917468   357.70718529
 N     21  20   3     1.453106245115   109.90374384   180.27617201
 C     22  21  20     1.370359201736   126.66683588   197.72196807
 C     23  22  21     1.515231891252   116.28200253    13.32887314
 H     20   3   2     1.095529375283   109.31445685   236.09997874
 H     20   3   2     1.093578727881   110.15316908   119.47485362
 H     21  20   3     1.088967911444   109.25495392    60.74642625
 H     21  20   3     1.095259848469   109.44280345   303.04660660
 H     22  21  20     1.008816504937   117.28357427    38.26679223
 O     23  22  21     1.221998240299   121.40400021   191.89418571
 H     24  23  22     1.089986943574   110.93998381    59.21654857
 H     24  23  22     1.090225274878   111.10015934   299.12761588
 H     24  23  22     1.084873105734   107.97732090   179.11922802

---------------------------
INTERNAL COORDINATES (A.U.)
---------------------------
 N      0   0   0     0.000000000000     0.00000000     0.00000000
 C      1   0   0     2.605375610827     0.00000000     0.00000000
 C      2   1   0     2.605469626265   109.75237242     0.00000000
 C      3   2   1     2.711896422225   106.24928779     0.00000000
 C      4   3   2     2.668147768563   132.56429289   180.06321902
 C      5   4   3     2.621340013423   118.10918676   180.00601592
 C      6   5   4     2.678025942513   121.10480248     0.00000000
 C      7   6   5     2.610643459891   121.45681959   359.97186759
 C      1   2   3     2.600192737087   109.11555985   359.94598275
 H      1   2   3     1.895799265941   125.19264799   180.38083971
 H      2   1   3     2.036015290159   120.12577612   179.92496674
 H      5   4   3     2.040593153481   120.07203329     0.09067889
 H      7   6   5     2.042937881448   117.71763364   180.00116356
 H      8   7   6     2.045268365174   120.59150697   180.03215910
 O      6   5   4     2.587755954681   124.72569333   180.00837251
 C     15   6   5     2.678436994108   116.27690421     0.04565352
 H     16  15   6     2.064214337075   111.30120414    61.07027896
 H     16  15   6     2.064267147844   111.29876202   298.86984111
 H     16  15   6     2.051714106516   106.02922070   179.97397195
 C      3   2   1     2.831497239411   128.11313115   180.29343916
 C     20   3   2     2.880757909916   113.26917468   357.70718529
 N     21  20   3     2.745972846758   109.90374384   180.27617201
 C     22  21  20     2.589603596380   126.66683588   197.72196807
 C     23  22  21     2.863373303851   116.28200253    13.32887314
 H     20   3   2     2.070250490950   109.31445685   236.09997874
 H     20   3   2     2.066564301577   110.15316908   119.47485362
 H     21  20   3     2.057851121257   109.25495392    60.74642625
 H     21  20   3     2.069741159087   109.44280345   303.04660660
 H     22  21  20     1.906386913711   117.28357427    38.26679223
 O     23  22  21     2.309242010300   121.40400021   191.89418571
 H     24  23  22     2.059776812905   110.93998381    59.21654857
 H     24  23  22     2.060227193799   111.10015934   299.12761588
 H     24  23  22     2.050113059893   107.97732090   179.11922802

---------------------
BASIS SET INFORMATION
---------------------
There are 4 groups of distinct atoms

 Group   1 Type N   : 8s4p1d contracted to 4s2p1d pattern {5111/31/1}
 Group   2 Type C   : 8s4p1d contracted to 4s2p1d pattern {5111/31/1}
 Group   3 Type H   : 4s contracted to 2s pattern {31}
 Group   4 Type O   : 8s4p1d contracted to 4s2p1d pattern {5111/31/1}

Atom   0N    basis set group =>   1
Atom   1C    basis set group =>   2
Atom   2C    basis set group =>   2
Atom   3C    basis set group =>   2
Atom   4C    basis set group =>   2
Atom   5C    basis set group =>   2
Atom   6C    basis set group =>   2
Atom   7C    basis set group =>   2
Atom   8C    basis set group =>   2
Atom   9H    basis set group =>   3
Atom  10H    basis set group =>   3
Atom  11H    basis set group =>   3
Atom  12H    basis set group =>   3
Atom  13H    basis set group =>   3
Atom  14O    basis set group =>   4
Atom  15C    basis set group =>   2
Atom  16H    basis set group =>   3
Atom  17H    basis set group =>   3
Atom  18H    basis set group =>   3
Atom  19C    basis set group =>   2
Atom  20C    basis set group =>   2
Atom  21N    basis set group =>   1
Atom  22C    basis set group =>   2
Atom  23C    basis set group =>   2
Atom  24H    basis set group =>   3
Atom  25H    basis set group =>   3
Atom  26H    basis set group =>   3
Atom  27H    basis set group =>   3
Atom  28H    basis set group =>   3
Atom  29O    basis set group =>   4
Atom  30H    basis set group =>   3
Atom  31H    basis set group =>   3
Atom  32H    basis set group =>   3
---------------------------------
AUXILIARY/J BASIS SET INFORMATION
---------------------------------
There are 4 groups of distinct atoms

 Group   1 Type N   : 12s5p4d2f1g contracted to 6s4p3d1f1g pattern {711111/2111/211/2/1}
 Group   2 Type C   : 12s5p4d2f1g contracted to 6s4p3d1f1g pattern {711111/2111/211/2/1}
 Group   3 Type H   : 5s2p1d contracted to 3s1p1d pattern {311/2/1}
 Group   4 Type O   : 12s5p4d2f1g contracted to 6s4p3d1f1g pattern {711111/2111/211/2/1}

Atom   0N    basis set group =>   1
Atom   1C    basis set group =>   2
Atom   2C    basis set group =>   2
Atom   3C    basis set group =>   2
Atom   4C    basis set group =>   2
Atom   5C    basis set group =>   2
Atom   6C    basis set group =>   2
Atom   7C    basis set group =>   2
Atom   8C    basis set group =>   2
Atom   9H    basis set group =>   3
Atom  10H    basis set group =>   3
Atom  11H    basis set group =>   3
Atom  12H    basis set group =>   3
Atom  13H    basis set group =>   3
Atom  14O    basis set group =>   4
Atom  15C    basis set group =>   2
Atom  16H    basis set group =>   3
Atom  17H    basis set group =>   3
Atom  18H    basis set group =>   3
Atom  19C    basis set group =>   2
Atom  20C    basis set group =>   2
Atom  21N    basis set group =>   1
Atom  22C    basis set group =>   2
Atom  23C    basis set group =>   2
Atom  24H    basis set group =>   3
Atom  25H    basis set group =>   3
Atom  26H    basis set group =>   3
Atom  27H    basis set group =>   3
Atom  28H    basis set group =>   3
Atom  29O    basis set group =>   4
Atom  30H    basis set group =>   3
Atom  31H    basis set group =>   3
Atom  32H    basis set group =>   3


           ************************************************************
           *        Program running with 4 parallel MPI-processes     *
           *              working on a common directory               *
           ************************************************************
------------------------------------------------------------------------------
                           ORCA GTO INTEGRAL CALCULATION
                           -- RI-GTO INTEGRALS CHOSEN --
------------------------------------------------------------------------------
------------------------------------------------------------------------------
                   ___                                                        
                  /   \      - P O W E R E D   B Y -                         
                 /     \                                                     
                 |  |  |   _    _      __       _____    __    __             
                 |  |  |  | |  | |    /  \     |  _  \  |  |  /  |          
                  \  \/   | |  | |   /    \    | | | |  |  | /  /          
                 / \  \   | |__| |  /  /\  \   | |_| |  |  |/  /          
                |  |  |   |  __  | /  /__\  \  |    /   |      \           
                |  |  |   | |  | | |   __   |  |    \   |  |\   \          
                \     /   | |  | | |  |  |  |  | |\  \  |  | \   \       
                 \___/    |_|  |_| |__|  |__|  |_| \__\ |__|  \__/        
                                                                              
                      - O R C A' S   B I G   F R I E N D -                    
                                      &                                       
                       - I N T E G R A L  F E E D E R -                       
                                                                              
 v1 FN, 2020, v2 2021                                                         
------------------------------------------------------------------------------


Reading SHARK input file pbeh-3c.SHARKINP.tmp ... ok
----------------------
SHARK INTEGRAL PACKAGE
----------------------

Number of atoms                             ...     33
Number of basis functions                   ...    287
Number of shells                            ...    151
Maximum angular momentum                    ...      2
Integral batch strategy                     ... SHARK/LIBINT Hybrid
RI-J (if used) integral strategy            ... SPLIT-RIJ (Revised 2003 algorithm where possible)
Printlevel                                  ...      1
Contraction scheme used                     ... SEGMENTED contraction
Coulomb Range Separation                    ... NOT USED
Exchange Range Separation                   ... NOT USED
Finite Nucleus Model                        ... NOT USED
Auxiliary Coulomb fitting basis             ... AVAILABLE
   # of basis functions in Aux-J            ...   1009
   # of shells in Aux-J                     ...    335
   Maximum angular momentum in Aux-J        ...      4
Auxiliary J/K fitting basis                 ... NOT available
Auxiliary Correlation fitting basis         ... NOT available
Auxiliary 'external' fitting basis          ... NOT available
Integral threshold                          ...     2.500000e-11
Primitive cut-off                           ...     2.500000e-12
Primitive pair pre-selection threshold      ...     2.500000e-12

Calculating pre-screening integrals         ... done (  0.1 sec) Dimension = 151
Organizing shell pair data                  ... done (  0.3 sec)
Shell pair information
Total number of shell pairs                 ...     11476
Shell pairs after pre-screening             ...      7558
Total number of primitive shell pairs       ...     41024
Primitive shell pairs kept                  ...     17573
          la=0 lb=0:   3015 shell pairs
          la=1 lb=0:   2522 shell pairs
          la=1 lb=1:    501 shell pairs
          la=2 lb=0:    999 shell pairs
          la=2 lb=1:    426 shell pairs
          la=2 lb=2:     95 shell pairs

Calculating one electron integrals          ... done (  0.0 sec)
Calculating RI/J V-Matrix + Cholesky decomp.... done (  0.8 sec)
Calculating Nuclear repulsion               ... done (  0.0 sec) ENN=   1124.961702898403 Eh

SHARK setup successfully completed in   1.9 seconds

Maximum memory used throughout the entire GTOINT-calculation: 17.5 MB


           ************************************************************
           *        Program running with 4 parallel MPI-processes     *
           *              working on a common directory               *
           ************************************************************
-------------------------------------------------------------------------------
                                 ORCA SCF
-------------------------------------------------------------------------------

------------
SCF SETTINGS
------------
Hamiltonian:
 Density Functional     Method          .... DFT(GTOs)
 Exchange Functional    Exchange        .... PBE
   PBE kappa parameter   XKappa         ....  1.024500
   PBE mue parameter    XMuePBE         ....  0.123457
 Correlation Functional Correlation     .... PBE
   PBE beta parameter  CBetaPBE         ....  0.030000
 LDA part of GGA corr.  LDAOpt          .... PW91-LDA
 Gradients option       PostSCFGGA      .... off
 Hybrid DFT is turned on
   Fraction HF Exchange ScalHFX         ....  0.420000
   Scaling of DF-GGA-X  ScalDFX         ....  0.580000
   Scaling of DF-GGA-C  ScalDFC         ....  1.000000
   Scaling of DF-LDA-C  ScalLDAC        ....  1.000000
   Perturbative correction              ....  0.000000
   Density functional embedding theory  .... OFF
 RI-approximation to the Coulomb term is turned on
   Number of AuxJ basis functions       .... 1009
   RIJ-ON(X) (HFX calculated with O(N)) .... on
   Number of AuxJ basis functions       .... 1009
   RIJ-COSX (HFX calculated with COS-X)).... on


General Settings:
 Integral files         IntName         .... pbeh-3c
 Hartree-Fock type      HFTyp           .... RHF
 Total Charge           Charge          ....    0
 Multiplicity           Mult            ....    1
 Number of Electrons    NEL             ....  124
 Basis Dimension        Dim             ....  287
 Nuclear Repulsion      ENuc            ....   1124.9617028984 Eh

Convergence Acceleration:
 DIIS                   CNVDIIS         .... on
   Start iteration      DIISMaxIt       ....    12
   Startup error        DIISStart       ....  0.200000
   # of expansion vecs  DIISMaxEq       ....     5
   Bias factor          DIISBfac        ....   1.050
   Max. coefficient     DIISMaxC        ....  10.000
 Trust-Rad. Augm. Hess. CNVTRAH         .... auto
   Auto Start mean grad. ratio tolernc. ....  1.125000
   Auto Start start iteration           ....    20
   Auto Start num. interpolation iter.  ....    10
   Max. Number of Micro iterations      ....    16
   Max. Number of Macro iterations      .... Maxiter - #DIIS iter
   Number of Davidson start vectors     ....     2
   Converg. threshold I  (grad. norm)   ....   1.000e-05
   Converg. threshold II (energy diff.) ....   1.000e-08
   Grad. Scal. Fac. for Micro threshold ....   0.100
   Minimum threshold for Micro iter.    ....   0.010
   NR start threshold (gradient norm)   ....   0.001
   Initial trust radius                 ....   0.400
   Minimum AH scaling param. (alpha)    ....   1.000
   Maximum AH scaling param. (alpha)    .... 1000.000
   Orbital update algorithm             .... Taylor
   White noise on init. David. guess    .... on
   Maximum white noise                  ....   0.010
   Quad. conv. algorithm                .... NR
   COSX micro iterations for RIJONX calc.... off
 SOSCF                  CNVSOSCF        .... on
   Start iteration      SOSCFMaxIt      ....   150
   Startup grad/error   SOSCFStart      ....  0.003300
 Level Shifting         CNVShift        .... on
   Level shift para.    LevelShift      ....    0.2500
   Turn off err/grad.   ShiftErr        ....    0.0010
 Zerner damping         CNVZerner       .... off
 Static damping         CNVDamp         .... on
   Fraction old density DampFac         ....    0.7000
   Max. Damping (<1)    DampMax         ....    0.9800
   Min. Damping (>=0)   DampMin         ....    0.0000
   Turn off err/grad.   DampErr         ....    0.1000
 Fernandez-Rico         CNVRico         .... off

SCF Procedure:
 Maximum # iterations   MaxIter         ....   125
 SCF integral mode      SCFMode         .... Direct
   Integral package                     .... SHARK and LIBINT hybrid scheme
 Reset frequency        DirectResetFreq ....    20
 Integral Threshold     Thresh          ....  2.500e-11 Eh
 Primitive CutOff       TCut            ....  2.500e-12 Eh

Convergence Tolerance:
 Convergence Check Mode ConvCheckMode   .... Total+1el-Energy
 Convergence forced     ConvForced      .... 0
 Energy Change          TolE            ....  1.000e-08 Eh
 1-El. energy change                    ....  1.000e-05 Eh
 Orbital Gradient       TolG            ....  1.000e-05
 Orbital Rotation angle TolX            ....  1.000e-05
 DIIS Error             TolErr          ....  5.000e-07


Diagonalization of the overlap matrix:
Smallest eigenvalue                        ... 4.326e-04
Time for diagonalization                   ...    0.031 sec
Threshold for overlap eigenvalues          ... 1.000e-08
Number of eigenvalues below threshold      ... 0
Time for construction of square roots      ...    0.016 sec
Total time needed                          ...    0.048 sec

--------------------------------
INITIAL GUESS: MINIMAL BASIS EHT
--------------------------------
The minimal basis has 101 functions
EHT matrix was diagonalized
Basis set overlap was calculated now projecting the orbitals
Using GuessMode=FMatrix for the initial guess
C*T matrix was formed
Effective Fockian was calculated
Effective Fockian was diagonalized
Initial density was built
                      ------------------
                      INITIAL GUESS DONE
                      ------------------
-------------------
DFT GRID GENERATION
-------------------

General Integration Accuracy     IntAcc      ... 4.959
Radial Grid Type                 RadialGrid  ... OptM3 with GC (2021)
Angular Grid (max. ang.)         AngularGrid ... 6 (Lebedev-590)
Angular grid pruning method      GridPruning ... 4 (adaptive)
Weight generation scheme         WeightScheme... Becke
Basis function cutoff            BFCut       ... 1.0000e-11
Integration weight cutoff        WCut        ... 1.0000e-14
Angular grids for H and He will be reduced by one unit
Partially contracted basis set               ... off
Rotationally invariant grid construction     ... off

Total number of grid points                  ...   378941
Total number of batches                      ...     5938
Average number of points per batch           ...       63
Average number of grid points per atom       ...    11483
Time for grid setup =    7.108 sec

--------------------
COSX GRID GENERATION
--------------------

GRIDX 1
-------
General Integration Accuracy     IntAcc      ... 4.020
Radial Grid Type                 RadialGrid  ... OptM3 with GC (2021)
Angular Grid (max. ang.)         AngularGrid ... 2 (Lebedev-110)
Angular grid pruning method      GridPruning ... 4 (adaptive)
Weight generation scheme         WeightScheme... Becke
Basis function cutoff            BFCut       ... 1.0000e-11
Integration weight cutoff        WCut        ... 1.0000e-14
Angular grids for H and He will be reduced by one unit
Partially contracted basis set               ... on
Rotationally invariant grid construction     ... off

Total number of grid points                  ...    42025
Total number of batches                      ...      674
Average number of points per batch           ...       62
Average number of grid points per atom       ...     1273
UseSFitting                                  ... on

GRIDX 2
-------
General Integration Accuracy     IntAcc      ... 4.338
Radial Grid Type                 RadialGrid  ... OptM3 with GC (2021)
Angular Grid (max. ang.)         AngularGrid ... 3 (Lebedev-194)
Angular grid pruning method      GridPruning ... 4 (adaptive)
Weight generation scheme         WeightScheme... Becke
Basis function cutoff            BFCut       ... 1.0000e-11
Integration weight cutoff        WCut        ... 1.0000e-14
Angular grids for H and He will be reduced by one unit
Partially contracted basis set               ... on
Rotationally invariant grid construction     ... off

Total number of grid points                  ...    91914
Total number of batches                      ...     1453
Average number of points per batch           ...       63
Average number of grid points per atom       ...     2785
UseSFitting                                  ... on

GRIDX 3
-------
General Integration Accuracy     IntAcc      ... 4.871
Radial Grid Type                 RadialGrid  ... OptM3 with GC (2021)
Angular Grid (max. ang.)         AngularGrid ... 4 (Lebedev-302)
Angular grid pruning method      GridPruning ... 4 (adaptive)
Weight generation scheme         WeightScheme... Becke
Basis function cutoff            BFCut       ... 1.0000e-11
Integration weight cutoff        WCut        ... 1.0000e-14
Angular grids for H and He will be reduced by one unit
Partially contracted basis set               ... on
Rotationally invariant grid construction     ... off

Total number of grid points                  ...   174090
Total number of batches                      ...     2736
Average number of points per batch           ...       63
Average number of grid points per atom       ...     5275
UseSFitting                                  ... on

Time for X-Grid setup             =    6.633 sec

--------------
SCF ITERATIONS
--------------
ITER       Energy         Delta-E        Max-DP      RMS-DP      [F,P]     Damp
               ***  Starting incremental Fock matrix formation  ***
  0   -761.2745167376   0.000000000000 0.20345404  0.00472127  0.5709580 0.7000
  1   -761.9833474262  -0.708830688580 0.13306394  0.00303500  0.2916418 0.7000
  2   -762.3865334120  -0.403185985764 0.09394730  0.00201554  0.2056874 0.7000
                               ***Turning on DIIS***
  3   -762.6710584363  -0.284525024314 0.06577076  0.00143152  0.1445720 0.7000
  4   -762.8751411650  -0.204082728747 0.04537719  0.00107011  0.1014147 0.7000
  5   -763.0195947314  -0.144453566376 0.10470552  0.00260511  0.0712024 0.0000
  6   -763.3630640206  -0.343469289204 0.00544520  0.00010669  0.0042485 0.0000
                      *** Initiating the SOSCF procedure ***
                           *** Shutting down DIIS ***
                      *** Re-Reading the Fockian *** 
                      *** Removing any level shift *** 
ITER      Energy       Delta-E        Grad      Rot      Max-DP    RMS-DP
  7   -763.36323963  -0.0001756069  0.000520  0.000520  0.002279  0.000046
               *** Restarting incremental Fock matrix formation ***
  8   -763.36327372  -0.0000340967  0.000763  0.002114  0.002277  0.000034
  9   -763.36328003  -0.0000063092  0.000487  0.000659  0.001761  0.000025
 10   -763.36328534  -0.0000053042  0.000084  0.000136  0.000591  0.000009
 11   -763.36328568  -0.0000003424  0.000029  0.000051  0.000110  0.000002
 12   -763.36328572  -0.0000000446  0.000014  0.000036  0.000094  0.000001
 13   -763.36328575  -0.0000000216  0.000003  0.000006  0.000009  0.000000
                  ***Gradient check signals convergence***
              ***Rediagonalizing the Fockian in SOSCF/NRSCF***

               *****************************************************
               *                     SUCCESS                       *
               *           SCF CONVERGED AFTER  14 CYCLES          *
               *****************************************************

Old exchange energy                            =    -43.178743281 Eh
New exchange energy                            =    -43.178737640 Eh
Exchange energy change after final integration =      0.000005641 Eh
Total energy after final integration           =   -763.363280105 Eh
Final COS-X integration done in                =    19.014 sec

----------------
TOTAL SCF ENERGY
----------------

Total Energy       :         -763.36328011 Eh          -20772.17089 eV

Components:
Nuclear Repulsion  :         1124.96170290 Eh           30611.76421 eV
Electronic Energy  :        -1888.32498300 Eh          -51383.93510 eV
One Electron Energy:        -3269.96352604 Eh          -88980.23121 eV
Two Electron Energy:         1381.63854304 Eh           37596.29611 eV
Max COSX asymmetry :            0.00000145 Eh               0.00004 eV

Virial components:
Potential Energy   :        -1520.78207167 Eh          -41382.58402 eV
Kinetic Energy     :          757.41879156 Eh           20610.41313 eV
Virial Ratio       :            2.00784835


DFT components:
N(Alpha)           :       61.999997587826 electrons
N(Beta)            :       61.999997587826 electrons
N(Total)           :      123.999995175652 electrons
E(X)               :      -57.398897661568 Eh       
E(C)               :       -5.446958364680 Eh       
E(XC)              :      -62.845856026248 Eh       
DFET-embed. en.    :        0.000000000000 Eh       

---------------
SCF CONVERGENCE
---------------

  Last Energy change         ...   -5.3467e-10  Tolerance :   1.0000e-08
  Last MAX-Density change    ...    2.1094e-15  Tolerance :   1.0000e-07
  Last RMS-Density change    ...    3.2565e-17  Tolerance :   5.0000e-09
  Last Orbital Gradient      ...    1.9961e-06  Tolerance :   1.0000e-05
  Last Orbital Rotation      ...    3.0208e-06  Tolerance :   1.0000e-05

             **** THE GBW FILE WAS UPDATED (pbeh-3c.gbw) ****
             **** DENSITY pbeh-3c.scfp WAS UPDATED ****
             **** ENERGY FILE WAS UPDATED (pbeh-3c.en.tmp) ****
             **** THE GBW FILE WAS UPDATED (pbeh-3c.gbw) ****
             **** DENSITY pbeh-3c.scfp WAS UPDATED ****
----------------
ORBITAL ENERGIES
----------------

  NO   OCC          E(Eh)            E(eV) 
   0   2.0000     -19.522254      -531.2275 
   1   2.0000     -19.449272      -529.2416 
   2   2.0000     -14.688144      -399.6847 
   3   2.0000     -14.655374      -398.7930 
   4   2.0000     -10.544312      -286.9253 
   5   2.0000     -10.503494      -285.8146 
   6   2.0000     -10.488321      -285.4017 
   7   2.0000     -10.487301      -285.3740 
   8   2.0000     -10.484088      -285.2865 
   9   2.0000     -10.479266      -285.1553 
  10   2.0000     -10.456696      -284.5412 
  11   2.0000     -10.455357      -284.5047 
  12   2.0000     -10.448762      -284.3253 
  13   2.0000     -10.448164      -284.3090 
  14   2.0000     -10.444818      -284.2179 
  15   2.0000     -10.443248      -284.1752 
  16   2.0000     -10.439691      -284.0784 
  17   2.0000      -1.170663       -31.8553 
  18   2.0000      -1.135260       -30.8920 
  19   2.0000      -1.090646       -29.6780 
  20   2.0000      -1.021307       -27.7912 
  21   2.0000      -0.940672       -25.5970 
  22   2.0000      -0.906047       -24.6548 
  23   2.0000      -0.850851       -23.1528 
  24   2.0000      -0.835798       -22.7432 
  25   2.0000      -0.824969       -22.4485 
  26   2.0000      -0.806022       -21.9330 
  27   2.0000      -0.779159       -21.2020 
  28   2.0000      -0.735464       -20.0130 
  29   2.0000      -0.695755       -18.9325 
  30   2.0000      -0.669709       -18.2237 
  31   2.0000      -0.655327       -17.8324 
  32   2.0000      -0.632826       -17.2201 
  33   2.0000      -0.614653       -16.7256 
  34   2.0000      -0.582154       -15.8412 
  35   2.0000      -0.565860       -15.3978 
  36   2.0000      -0.554254       -15.0820 
  37   2.0000      -0.547675       -14.9030 
  38   2.0000      -0.532403       -14.4874 
  39   2.0000      -0.531147       -14.4532 
  40   2.0000      -0.524415       -14.2701 
  41   2.0000      -0.505284       -13.7495 
  42   2.0000      -0.503423       -13.6988 
  43   2.0000      -0.485557       -13.2127 
  44   2.0000      -0.482355       -13.1256 
  45   2.0000      -0.468529       -12.7493 
  46   2.0000      -0.462470       -12.5845 
  47   2.0000      -0.455630       -12.3983 
  48   2.0000      -0.453620       -12.3436 
  49   2.0000      -0.443931       -12.0800 
  50   2.0000      -0.438678       -11.9370 
  51   2.0000      -0.420790       -11.4503 
  52   2.0000      -0.417937       -11.3727 
  53   2.0000      -0.411669       -11.2021 
  54   2.0000      -0.408210       -11.1080 
  55   2.0000      -0.382183       -10.3997 
  56   2.0000      -0.353232        -9.6119 
  57   2.0000      -0.322580        -8.7779 
  58   2.0000      -0.303787        -8.2665 
  59   2.0000      -0.295448        -8.0396 
  60   2.0000      -0.248343        -6.7577 
  61   2.0000      -0.241868        -6.5816 
  62   0.0000       0.003926         0.1068 
  63   0.0000       0.056150         1.5279 
  64   0.0000       0.065189         1.7739 
  65   0.0000       0.089327         2.4307 
  66   0.0000       0.120301         3.2736 
  67   0.0000       0.127520         3.4700 
  68   0.0000       0.138995         3.7823 
  69   0.0000       0.146538         3.9875 
  70   0.0000       0.153780         4.1846 
  71   0.0000       0.158526         4.3137 
  72   0.0000       0.169871         4.6224 
  73   0.0000       0.176261         4.7963 
  74   0.0000       0.184252         5.0137 
  75   0.0000       0.201452         5.4818 
  76   0.0000       0.203891         5.5482 
  77   0.0000       0.208610         5.6766 
  78   0.0000       0.213034         5.7970 
  79   0.0000       0.217472         5.9177 
  80   0.0000       0.221742         6.0339 
  81   0.0000       0.225894         6.1469 
  82   0.0000       0.238618         6.4931 
  83   0.0000       0.242501         6.5988 
  84   0.0000       0.247160         6.7256 
  85   0.0000       0.260020         7.0755 
  86   0.0000       0.263869         7.1802 
  87   0.0000       0.272122         7.4048 
  88   0.0000       0.285690         7.7740 
  89   0.0000       0.310428         8.4472 
  90   0.0000       0.322505         8.7758 
  91   0.0000       0.332852         9.0574 
  92   0.0000       0.337404         9.1812 
  93   0.0000       0.358287         9.7495 
  94   0.0000       0.400420        10.8960 
  95   0.0000       0.410015        11.1571 
  96   0.0000       0.422810        11.5052 
  97   0.0000       0.426786        11.6134 
  98   0.0000       0.476323        12.9614 
  99   0.0000       0.488989        13.3061 
 100   0.0000       0.496625        13.5139 
 101   0.0000       0.501997        13.6600 
 102   0.0000       0.510117        13.8810 
 103   0.0000       0.514892        14.0109 
 104   0.0000       0.522604        14.2208 
 105   0.0000       0.530639        14.4394 
 106   0.0000       0.535369        14.5681 
 107   0.0000       0.559736        15.2312 
 108   0.0000       0.566838        15.4245 
 109   0.0000       0.578187        15.7333 
 110   0.0000       0.583236        15.8707 
 111   0.0000       0.591077        16.0840 
 112   0.0000       0.594700        16.1826 
 113   0.0000       0.599760        16.3203 
 114   0.0000       0.609196        16.5771 
 115   0.0000       0.613762        16.7013 
 116   0.0000       0.616867        16.7858 
 117   0.0000       0.624515        16.9939 
 118   0.0000       0.626591        17.0504 
 119   0.0000       0.637289        17.3415 
 120   0.0000       0.654657        17.8141 
 121   0.0000       0.656914        17.8755 
 122   0.0000       0.672048        18.2874 
 123   0.0000       0.681113        18.5340 
 124   0.0000       0.687201        18.6997 
 125   0.0000       0.715845        19.4791 
 126   0.0000       0.717791        19.5321 
 127   0.0000       0.727935        19.8081 
 128   0.0000       0.740573        20.1520 
 129   0.0000       0.755901        20.5691 
 130   0.0000       0.772195        21.0125 
 131   0.0000       0.786932        21.4135 
 132   0.0000       0.813762        22.1436 
 133   0.0000       0.815985        22.2041 
 134   0.0000       0.831698        22.6316 
 135   0.0000       0.886928        24.1345 
 136   0.0000       0.889752        24.2114 
 137   0.0000       0.934459        25.4279 
 138   0.0000       0.952918        25.9302 
 139   0.0000       0.957000        26.0413 
 140   0.0000       0.966137        26.2899 
 141   0.0000       0.973758        26.4973 
 142   0.0000       0.982487        26.7348 
 143   0.0000       0.988303        26.8931 
 144   0.0000       0.992088        26.9961 
 145   0.0000       0.995692        27.0942 
 146   0.0000       1.002960        27.2919 
 147   0.0000       1.005626        27.3645 
 148   0.0000       1.012661        27.5559 
 149   0.0000       1.015175        27.6243 
 150   0.0000       1.019039        27.7295 
 151   0.0000       1.021392        27.7935 
 152   0.0000       1.027483        27.9592 
 153   0.0000       1.041625        28.3441 
 154   0.0000       1.046604        28.4796 
 155   0.0000       1.058393        28.8003 
 156   0.0000       1.059233        28.8232 
 157   0.0000       1.076701        29.2985 
 158   0.0000       1.081487        29.4287 
 159   0.0000       1.101901        29.9842 
 160   0.0000       1.108061        30.1519 
 161   0.0000       1.145775        31.1781 
 162   0.0000       1.149407        31.2770 
 163   0.0000       1.161235        31.5988 
 164   0.0000       1.165661        31.7192 
 165   0.0000       1.184308        32.2267 
 166   0.0000       1.203460        32.7478 
 167   0.0000       1.222939        33.2779 
 168   0.0000       1.247628        33.9497 
 169   0.0000       1.271183        34.5906 
 170   0.0000       1.291110        35.1329 
 171   0.0000       1.303765        35.4773 
 172   0.0000       1.312500        35.7150 
 173   0.0000       1.335742        36.3474 
 174   0.0000       1.370621        37.2965 
 175   0.0000       1.378601        37.5136 
 176   0.0000       1.388776        37.7905 
 177   0.0000       1.419654        38.6307 
 178   0.0000       1.436930        39.1009 
 179   0.0000       1.441402        39.2225 
 180   0.0000       1.455612        39.6092 
 181   0.0000       1.461278        39.7634 
 182   0.0000       1.462238        39.7895 
 183   0.0000       1.495136        40.6847 
 184   0.0000       1.524176        41.4749 
 185   0.0000       1.530143        41.6373 
 186   0.0000       1.535209        41.7751 
 187   0.0000       1.542796        41.9816 
 188   0.0000       1.563393        42.5421 
 189   0.0000       1.572475        42.7892 
 190   0.0000       1.589285        43.2466 
 191   0.0000       1.605359        43.6840 
 192   0.0000       1.703881        46.3650 
 193   0.0000       1.723828        46.9077 
 194   0.0000       1.729319        47.0572 
 195   0.0000       1.756612        47.7998 
 196   0.0000       1.785281        48.5800 
 197   0.0000       1.806576        49.1594 
 198   0.0000       1.817741        49.4633 
 199   0.0000       1.844046        50.1791 
 200   0.0000       1.861227        50.6466 
 201   0.0000       1.877817        51.0980 
 202   0.0000       1.882637        51.2291 
 203   0.0000       1.889886        51.4264 
 204   0.0000       1.900066        51.7034 
 205   0.0000       1.923650        52.3452 
 206   0.0000       1.958483        53.2930 
 207   0.0000       1.976301        53.7779 
 208   0.0000       1.983765        53.9810 
 209   0.0000       2.003716        54.5239 
 210   0.0000       2.018778        54.9337 
 211   0.0000       2.024222        55.0819 
 212   0.0000       2.047704        55.7209 
 213   0.0000       2.069118        56.3036 
 214   0.0000       2.085046        56.7370 
 215   0.0000       2.090054        56.8733 
 216   0.0000       2.094097        56.9833 
 217   0.0000       2.100474        57.1568 
 218   0.0000       2.114637        57.5422 
 219   0.0000       2.139619        58.2220 
 220   0.0000       2.152798        58.5806 
 221   0.0000       2.166642        58.9573 
 222   0.0000       2.172061        59.1048 
 223   0.0000       2.197334        59.7925 
 224   0.0000       2.209126        60.1134 
 225   0.0000       2.219393        60.3927 
 226   0.0000       2.238704        60.9182 
 227   0.0000       2.256395        61.3996 
 228   0.0000       2.268723        61.7351 
 229   0.0000       2.286542        62.2200 
 230   0.0000       2.295566        62.4655 
 231   0.0000       2.309227        62.8373 
 232   0.0000       2.319109        63.1062 
 233   0.0000       2.330555        63.4176 
 234   0.0000       2.348863        63.9158 
 235   0.0000       2.371483        64.5313 
 236   0.0000       2.387372        64.9637 
 237   0.0000       2.408587        65.5410 
 238   0.0000       2.419010        65.8246 
 239   0.0000       2.458630        66.9027 
 240   0.0000       2.462107        66.9973 
 241   0.0000       2.503935        68.1355 
 242   0.0000       2.530401        68.8557 
 243   0.0000       2.536728        69.0279 
 244   0.0000       2.576145        70.1005 
 245   0.0000       2.595053        70.6150 
 246   0.0000       2.600004        70.7497 
 247   0.0000       2.614049        71.1319 
 248   0.0000       2.661263        72.4167 
 249   0.0000       2.671338        72.6908 
 250   0.0000       2.681914        72.9786 
 251   0.0000       2.690478        73.2116 
 252   0.0000       2.713468        73.8372 
 253   0.0000       2.739147        74.5360 
 254   0.0000       2.743260        74.6479 
 255   0.0000       2.758670        75.0672 
 256   0.0000       2.793067        76.0032 
 257   0.0000       2.813495        76.5591 
 258   0.0000       2.847235        77.4772 
 259   0.0000       2.899330        78.8948 
 260   0.0000       2.978224        81.0416 
 261   0.0000       2.985940        81.2516 
 262   0.0000       3.012757        81.9813 
 263   0.0000       3.064761        83.3964 
 264   0.0000       3.076330        83.7112 
 265   0.0000       3.185983        86.6950 
 266   0.0000       3.219297        87.6015 
 267   0.0000       3.233453        87.9867 
 268   0.0000       3.357532        91.3631 
 269   0.0000       3.526154        95.9515 
 270   0.0000      13.265162       360.9634 
 271   0.0000      13.619254       370.5987 
 272   0.0000      13.669575       371.9680 
 273   0.0000      13.758702       374.3933 
 274   0.0000      13.773749       374.8028 
 275   0.0000      13.822319       376.1244 
 276   0.0000      13.847032       376.7969 
 277   0.0000      14.033041       381.8585 
 278   0.0000      14.045154       382.1881 
 279   0.0000      14.125437       384.3727 
 280   0.0000      14.236872       387.4050 
 281   0.0000      14.325797       389.8248 
 282   0.0000      14.540845       395.6765 
 283   0.0000      19.307660       525.3881 
 284   0.0000      19.412864       528.2509 
 285   0.0000      25.724999       700.0128 
 286   0.0000      25.784605       701.6348 

                    ********************************
                    * MULLIKEN POPULATION ANALYSIS *
                    ********************************

-----------------------
MULLIKEN ATOMIC CHARGES
-----------------------
   0 N :   -0.706258
   1 C :   -0.057962
   2 C :    0.007081
   3 C :    0.094267
   4 C :   -0.486344
   5 C :    0.394142
   6 C :   -0.316876
   7 C :   -0.251593
   8 C :    0.349887
   9 H :    0.358756
  10 H :    0.236327
  11 H :    0.222465
  12 H :    0.235614
  13 H :    0.214709
  14 O :   -0.466616
  15 C :   -0.405123
  16 H :    0.205415
  17 H :    0.204649
  18 H :    0.241518
  19 C :   -0.524249
  20 C :   -0.238390
  21 N :   -0.621345
  22 C :    0.497710
  23 C :   -0.780999
  24 H :    0.221900
  25 H :    0.242683
  26 H :    0.225281
  27 H :    0.216397
  28 H :    0.357997
  29 O :   -0.416217
  30 H :    0.239131
  31 H :    0.233155
  32 H :    0.272883
Sum of atomic charges:   -0.0000000

--------------------------------
MULLIKEN REDUCED ORBITAL CHARGES
--------------------------------
  0 N s       :     3.601726  s :     3.601726
      pz      :     1.629927  p :     4.062929
      px      :     1.194356
      py      :     1.238647
      dz2     :     0.004407  d :     0.041602
      dxz     :     0.009428
      dyz     :     0.002969
      dx2y2   :     0.014513
      dxy     :     0.010286
  1 C s       :     3.153544  s :     3.153544
      pz      :     1.066926  p :     2.847903
      px      :     0.830150
      py      :     0.950828
      dz2     :     0.004887  d :     0.056515
      dxz     :     0.007127
      dyz     :     0.009951
      dx2y2   :     0.013938
      dxy     :     0.020612
  2 C s       :     3.201758  s :     3.201758
      pz      :     1.068722  p :     2.745905
      px      :     0.826573
      py      :     0.850610
      dz2     :     0.003777  d :     0.045256
      dxz     :     0.005831
      dyz     :     0.008393
      dx2y2   :     0.016158
      dxy     :     0.011097
  3 C s       :     3.219125  s :     3.219125
      pz      :     1.022286  p :     2.639677
      px      :     0.785657
      py      :     0.831734
      dz2     :     0.003990  d :     0.046930
      dxz     :     0.008168
      dyz     :     0.007339
      dx2y2   :     0.012857
      dxy     :     0.014576
  4 C s       :     3.330249  s :     3.330249
      pz      :     1.106562  p :     3.118119
      px      :     0.949021
      py      :     1.062536
      dz2     :     0.004159  d :     0.037977
      dxz     :     0.006466
      dyz     :     0.003185
      dx2y2   :     0.012261
      dxy     :     0.011907
  5 C s       :     3.051905  s :     3.051905
      pz      :     0.972420  p :     2.478701
      px      :     0.786674
      py      :     0.719607
      dz2     :     0.004967  d :     0.075252
      dxz     :     0.012525
      dyz     :     0.011866
      dx2y2   :     0.019879
      dxy     :     0.026016
  6 C s       :     3.268410  s :     3.268410
      pz      :     1.043987  p :     3.010885
      px      :     1.049088
      py      :     0.917811
      dz2     :     0.004011  d :     0.037580
      dxz     :     0.002359
      dyz     :     0.007133
      dx2y2   :     0.013900
      dxy     :     0.010178
  7 C s       :     3.254234  s :     3.254234
      pz      :     1.032793  p :     2.957135
      px      :     0.911180
      py      :     1.013162
      dz2     :     0.004038  d :     0.040224
      dxz     :     0.006970
      dyz     :     0.003862
      dx2y2   :     0.013265
      dxy     :     0.012089
  8 C s       :     3.081120  s :     3.081120
      pz      :     1.025239  p :     2.505607
      px      :     0.689098
      py      :     0.791270
      dz2     :     0.004650  d :     0.063385
      dxz     :     0.010702
      dyz     :     0.010022
      dx2y2   :     0.014959
      dxy     :     0.023052
  9 H s       :     0.641244  s :     0.641244
 10 H s       :     0.763673  s :     0.763673
 11 H s       :     0.777535  s :     0.777535
 12 H s       :     0.764386  s :     0.764386
 13 H s       :     0.785291  s :     0.785291
 14 O s       :     3.790963  s :     3.790963
      pz      :     1.820388  p :     4.642712
      px      :     1.608211
      py      :     1.214114
      dz2     :     0.004588  d :     0.032940
      dxz     :     0.003953
      dyz     :     0.004816
      dx2y2   :     0.006065
      dxy     :     0.013517
 15 C s       :     3.332209  s :     3.332209
      pz      :     1.115560  p :     3.011247
      px      :     1.104419
      py      :     0.791268
      dz2     :     0.010369  d :     0.061667
      dxz     :     0.013973
      dyz     :     0.009007
      dx2y2   :     0.010495
      dxy     :     0.017824
 16 H s       :     0.794585  s :     0.794585
 17 H s       :     0.795351  s :     0.795351
 18 H s       :     0.758482  s :     0.758482
 19 C s       :     3.371827  s :     3.371827
      pz      :     1.147164  p :     3.108180
      px      :     0.912224
      py      :     1.048793
      dz2     :     0.007083  d :     0.044241
      dxz     :     0.004735
      dyz     :     0.015290
      dx2y2   :     0.007529
      dxy     :     0.009604
 20 C s       :     3.261546  s :     3.261546
      pz      :     1.128539  p :     2.918289
      px      :     0.865489
      py      :     0.924261
      dz2     :     0.008923  d :     0.058555
      dxz     :     0.006257
      dyz     :     0.018552
      dx2y2   :     0.009575
      dxy     :     0.015247
 21 N s       :     3.552838  s :     3.552838
      pz      :     1.613917  p :     4.034465
      px      :     1.165141
      py      :     1.255407
      dz2     :     0.002748  d :     0.034042
      dxz     :     0.004727
      dyz     :     0.007192
      dx2y2   :     0.011057
      dxy     :     0.008318
 22 C s       :     2.968564  s :     2.968564
      pz      :     0.782863  p :     2.412236
      px      :     0.770336
      py      :     0.859037
      dz2     :     0.008789  d :     0.121489
      dxz     :     0.023313
      dyz     :     0.015384
      dx2y2   :     0.046707
      dxy     :     0.027296
 23 C s       :     3.414066  s :     3.414066
      pz      :     1.109321  p :     3.333032
      px      :     1.194108
      py      :     1.029603
      dz2     :     0.005745  d :     0.033901
      dxz     :     0.005610
      dyz     :     0.008560
      dx2y2   :     0.010301
      dxy     :     0.003684
 24 H s       :     0.778100  s :     0.778100
 25 H s       :     0.757317  s :     0.757317
 26 H s       :     0.774719  s :     0.774719
 27 H s       :     0.783603  s :     0.783603
 28 H s       :     0.642003  s :     0.642003
 29 O s       :     3.758175  s :     3.758175
      pz      :     1.488919  p :     4.628619
      px      :     1.628851
      py      :     1.510848
      dz2     :     0.003354  d :     0.029424
      dxz     :     0.004874
      dyz     :     0.005679
      dx2y2   :     0.007042
      dxy     :     0.008475
 30 H s       :     0.760869  s :     0.760869
 31 H s       :     0.766845  s :     0.766845
 32 H s       :     0.727117  s :     0.727117


                     *******************************
                     * LOEWDIN POPULATION ANALYSIS *
                     *******************************

----------------------
LOEWDIN ATOMIC CHARGES
----------------------
   0 N :   -0.157779
   1 C :   -0.092606
   2 C :   -0.105803
   3 C :   -0.050085
   4 C :   -0.195382
   5 C :    0.060311
   6 C :   -0.155480
   7 C :   -0.146289
   8 C :    0.004740
   9 H :    0.262018
  10 H :    0.133729
  11 H :    0.140382
  12 H :    0.146726
  13 H :    0.137893
  14 O :   -0.190403
  15 C :   -0.179955
  16 H :    0.113239
  17 H :    0.112891
  18 H :    0.130523
  19 C :   -0.230762
  20 C :   -0.141450
  21 N :   -0.251673
  22 C :    0.107804
  23 C :   -0.397973
  24 H :    0.131920
  25 H :    0.141022
  26 H :    0.128140
  27 H :    0.114518
  28 H :    0.257746
  29 O :   -0.271521
  30 H :    0.145011
  31 H :    0.142222
  32 H :    0.156327

-------------------------------
LOEWDIN REDUCED ORBITAL CHARGES
-------------------------------
  0 N s       :     3.074627  s :     3.074627
      pz      :     1.585542  p :     3.988619
      px      :     1.208655
      py      :     1.194421
      dz2     :     0.005881  d :     0.094533
      dxz     :     0.020416
      dyz     :     0.005330
      dx2y2   :     0.034267
      dxy     :     0.028639
  1 C s       :     2.879961  s :     2.879961
      pz      :     1.064418  p :     3.089762
      px      :     0.970704
      py      :     1.054641
      dz2     :     0.008820  d :     0.122882
      dxz     :     0.014231
      dyz     :     0.020045
      dx2y2   :     0.034330
      dxy     :     0.045456
  2 C s       :     2.839303  s :     2.839303
      pz      :     1.064475  p :     3.158550
      px      :     1.034325
      py      :     1.059750
      dz2     :     0.006944  d :     0.107950
      dxz     :     0.011744
      dyz     :     0.016071
      dx2y2   :     0.043015
      dxy     :     0.030176
  3 C s       :     2.829181  s :     2.829181
      pz      :     1.012830  p :     3.106857
      px      :     1.038996
      py      :     1.055031
      dz2     :     0.007193  d :     0.114048
      dxz     :     0.016351
      dyz     :     0.014806
      dx2y2   :     0.036152
      dxy     :     0.039545
  4 C s       :     2.883419  s :     2.883419
      pz      :     1.086889  p :     3.226594
      px      :     1.064225
      py      :     1.075479
      dz2     :     0.006707  d :     0.085369
      dxz     :     0.012467
      dyz     :     0.005762
      dx2y2   :     0.031013
      dxy     :     0.029420
  5 C s       :     2.824115  s :     2.824115
      pz      :     0.967439  p :     2.940990
      px      :     1.033421
      py      :     0.940130
      dz2     :     0.010985  d :     0.174584
      dxz     :     0.025403
      dyz     :     0.023991
      dx2y2   :     0.051186
      dxy     :     0.063020
  6 C s       :     2.891621  s :     2.891621
      pz      :     1.033865  p :     3.178675
      px      :     1.079322
      py      :     1.065487
      dz2     :     0.006483  d :     0.085185
      dxz     :     0.003438
      dyz     :     0.014832
      dx2y2   :     0.032987
      dxy     :     0.027444
  7 C s       :     2.885849  s :     2.885849
      pz      :     1.019587  p :     3.169775
      px      :     1.063255
      py      :     1.086933
      dz2     :     0.006533  d :     0.090664
      dxz     :     0.014401
      dyz     :     0.006716
      dx2y2   :     0.032857
      dxy     :     0.030157
  8 C s       :     2.811458  s :     2.811458
      pz      :     1.023599  p :     3.036037
      px      :     1.027431
      py      :     0.985007
      dz2     :     0.009746  d :     0.147764
      dxz     :     0.021373
      dyz     :     0.020793
      dx2y2   :     0.038167
      dxy     :     0.057685
  9 H s       :     0.737982  s :     0.737982
 10 H s       :     0.866271  s :     0.866271
 11 H s       :     0.859618  s :     0.859618
 12 H s       :     0.853274  s :     0.853274
 13 H s       :     0.862107  s :     0.862107
 14 O s       :     3.430000  s :     3.430000
      pz      :     1.803543  p :     4.687820
      px      :     1.623143
      py      :     1.261134
      dz2     :     0.008100  d :     0.072583
      dxz     :     0.005817
      dyz     :     0.012595
      dx2y2   :     0.017045
      dxy     :     0.029027
 15 C s       :     2.952366  s :     2.952366
      pz      :     1.134281  p :     3.106107
      px      :     1.101759
      py      :     0.870067
      dz2     :     0.018861  d :     0.121481
      dxz     :     0.025855
      dyz     :     0.018206
      dx2y2   :     0.020932
      dxy     :     0.037628
 16 H s       :     0.886761  s :     0.886761
 17 H s       :     0.887109  s :     0.887109
 18 H s       :     0.869477  s :     0.869477
 19 C s       :     2.897613  s :     2.897613
      pz      :     1.116326  p :     3.242905
      px      :     1.035879
      py      :     1.090700
      dz2     :     0.013393  d :     0.090244
      dxz     :     0.009406
      dyz     :     0.027583
      dx2y2   :     0.017348
      dxy     :     0.022515
 20 C s       :     2.892997  s :     2.892997
      pz      :     1.119759  p :     3.127847
      px      :     0.988576
      py      :     1.019512
      dz2     :     0.017178  d :     0.120605
      dxz     :     0.012433
      dyz     :     0.035249
      dx2y2   :     0.021944
      dxy     :     0.033801
 21 N s       :     3.117907  s :     3.117907
      pz      :     1.578514  p :     4.054179
      px      :     1.213762
      py      :     1.261903
      dz2     :     0.005742  d :     0.079587
      dxz     :     0.010591
      dyz     :     0.012571
      dx2y2   :     0.027826
      dxy     :     0.022857
 22 C s       :     2.830246  s :     2.830246
      pz      :     0.818052  p :     2.787754
      px      :     0.963387
      py      :     1.006314
      dz2     :     0.019699  d :     0.274196
      dxz     :     0.048690
      dyz     :     0.032156
      dx2y2   :     0.111881
      dxy     :     0.061770
 23 C s       :     2.965963  s :     2.965963
      pz      :     1.123079  p :     3.369311
      px      :     1.151257
      py      :     1.094976
      dz2     :     0.010153  d :     0.062698
      dxz     :     0.009036
      dyz     :     0.016737
      dx2y2   :     0.019574
      dxy     :     0.007198
 24 H s       :     0.868080  s :     0.868080
 25 H s       :     0.858978  s :     0.858978
 26 H s       :     0.871860  s :     0.871860
 27 H s       :     0.885482  s :     0.885482
 28 H s       :     0.742254  s :     0.742254
 29 O s       :     3.523166  s :     3.523166
      pz      :     1.484366  p :     4.692887
      px      :     1.645875
      py      :     1.562646
      dz2     :     0.006658  d :     0.055467
      dxz     :     0.007264
      dyz     :     0.009033
      dx2y2   :     0.013372
      dxy     :     0.019140
 30 H s       :     0.854989  s :     0.854989
 31 H s       :     0.857778  s :     0.857778
 32 H s       :     0.843673  s :     0.843673


                      *****************************
                      * MAYER POPULATION ANALYSIS *
                      *****************************

  NA   - Mulliken gross atomic population
  ZA   - Total nuclear charge
  QA   - Mulliken gross atomic charge
  VA   - Mayer's total valence
  BVA  - Mayer's bonded valence
  FA   - Mayer's free valence

  ATOM       NA         ZA         QA         VA         BVA        FA
  0 N      7.7063     7.0000    -0.7063     3.1707     3.1707     0.0000
  1 C      6.0580     6.0000    -0.0580     3.6682     3.6682     0.0000
  2 C      5.9929     6.0000     0.0071     3.7434     3.7434    -0.0000
  3 C      5.9057     6.0000     0.0943     3.7893     3.7893    -0.0000
  4 C      6.4863     6.0000    -0.4863     3.7132     3.7132     0.0000
  5 C      5.6059     6.0000     0.3941     3.7505     3.7505     0.0000
  6 C      6.3169     6.0000    -0.3169     3.8459     3.8459     0.0000
  7 C      6.2516     6.0000    -0.2516     3.7760     3.7760    -0.0000
  8 C      5.6501     6.0000     0.3499     3.5238     3.5238    -0.0000
  9 H      0.6412     1.0000     0.3588     0.8514     0.8514     0.0000
 10 H      0.7637     1.0000     0.2363     0.9078     0.9078     0.0000
 11 H      0.7775     1.0000     0.2225     0.9206     0.9206     0.0000
 12 H      0.7644     1.0000     0.2356     0.9116     0.9116     0.0000
 13 H      0.7853     1.0000     0.2147     0.9128     0.9128     0.0000
 14 O      8.4666     8.0000    -0.4666     2.1008     2.1008    -0.0000
 15 C      6.4051     6.0000    -0.4051     3.7075     3.7075     0.0000
 16 H      0.7946     1.0000     0.2054     0.9097     0.9097     0.0000
 17 H      0.7954     1.0000     0.2046     0.9100     0.9100     0.0000
 18 H      0.7585     1.0000     0.2415     0.9081     0.9081     0.0000
 19 C      6.5242     6.0000    -0.5242     3.7316     3.7316    -0.0000
 20 C      6.2384     6.0000    -0.2384     3.7167     3.7167    -0.0000
 21 N      7.6213     7.0000    -0.6213     2.9910     2.9910     0.0000
 22 C      5.5023     6.0000     0.4977     4.0866     4.0866     0.0000
 23 C      6.7810     6.0000    -0.7810     3.6635     3.6635     0.0000
 24 H      0.7781     1.0000     0.2219     0.9007     0.9007    -0.0000
 25 H      0.7573     1.0000     0.2427     0.8935     0.8935    -0.0000
 26 H      0.7747     1.0000     0.2253     0.9013     0.9013    -0.0000
 27 H      0.7836     1.0000     0.2164     0.8970     0.8970     0.0000
 28 H      0.6420     1.0000     0.3580     0.8522     0.8522    -0.0000
 29 O      8.4162     8.0000    -0.4162     2.1940     2.1940    -0.0000
 30 H      0.7609     1.0000     0.2391     0.9042     0.9042    -0.0000
 31 H      0.7668     1.0000     0.2332     0.9056     0.9056    -0.0000
 32 H      0.7271     1.0000     0.2729     0.9026     0.9026    -0.0000

  Mayer bond orders larger than 0.100000
B(  0-N ,  1-C ) :   1.1311 B(  0-N ,  8-C ) :   1.0052 B(  0-N ,  9-H ) :   0.8338 
B(  1-C ,  2-C ) :   1.5356 B(  1-C , 10-H ) :   0.9125 B(  2-C ,  3-C ) :   1.2675 
B(  2-C , 19-C ) :   0.9744 B(  3-C ,  4-C ) :   1.2523 B(  3-C ,  8-C ) :   1.2510 
B(  4-C ,  5-C ) :   1.4188 B(  4-C , 11-H ) :   0.9150 B(  5-C ,  6-C ) :   1.2998 
B(  5-C , 14-O ) :   1.0268 B(  6-C ,  7-C ) :   1.5289 B(  6-C , 12-H ) :   0.9083 
B(  7-C ,  8-C ) :   1.2721 B(  7-C , 13-H ) :   0.9197 B( 14-O , 15-C ) :   0.9560 
B( 15-C , 16-H ) :   0.9067 B( 15-C , 17-H ) :   0.9069 B( 15-C , 18-H ) :   0.9230 
B( 19-C , 20-C ) :   1.0060 B( 19-C , 24-H ) :   0.9047 B( 19-C , 25-H ) :   0.8978 
B( 20-C , 21-N ) :   0.9475 B( 20-C , 26-H ) :   0.8983 B( 20-C , 27-H ) :   0.8970 
B( 21-N , 22-C ) :   1.1501 B( 21-N , 28-H ) :   0.8197 B( 22-C , 23-C ) :   0.9287 
B( 22-C , 29-O ) :   2.0387 B( 23-C , 30-H ) :   0.9095 B( 23-C , 31-H ) :   0.9104 
B( 23-C , 32-H ) :   0.9156 

-------
TIMINGS
-------

Total SCF time: 0 days 0 hours 4 min 1 sec 

Total time                  ....     241.375 sec
Sum of individual times     ....     236.255 sec  ( 97.9%)

Fock matrix formation       ....     211.350 sec  ( 87.6%)
  Split-RI-J                ....      17.863 sec  (  8.5% of F)
  Chain of spheres X        ....     145.416 sec  ( 68.8% of F)
  XC integration            ....      36.441 sec  ( 17.2% of F)
    Basis function eval.    ....      11.252 sec  ( 30.9% of XC)
    Density eval.           ....       6.962 sec  ( 19.1% of XC)
    XC-Functional eval.     ....       3.040 sec  (  8.3% of XC)
    XC-Potential eval.      ....       3.894 sec  ( 10.7% of XC)
Diagonalization             ....       2.728 sec  (  1.1%)
Density matrix formation    ....       0.524 sec  (  0.2%)
Population analysis         ....       0.116 sec  (  0.0%)
Initial guess               ....       0.089 sec  (  0.0%)
Orbital Transformation      ....       0.000 sec  (  0.0%)
Orbital Orthonormalization  ....       0.000 sec  (  0.0%)
DIIS solution               ....       4.504 sec  (  1.9%)
SOSCF solution              ....       3.202 sec  (  1.3%)
Grid generation             ....      13.742 sec  (  5.7%)

Maximum memory used throughout the entire SCF-calculation: 97.2 MB


-------------------------------------------------------------------------------
                          DFT DISPERSION CORRECTION                            
                                                                               
                              DFTD3 V3.1  Rev 1                                
                          USING Becke-Johnson damping                          
-------------------------------------------------------------------------------
The PBEh-3c composite method is recognized
Using three-body term ABC
Active option DFTDOPT                   ...         4   

molecular C6(AA) [au] = 10860.158996 


            DFT-D V3
 parameters
 s6 scaling factor         :     1.0000 
 a1 scaling factor         :     0.4860 
 s8 scaling factor         :     0.0000 
 a2 scaling factor         :     4.5000 
 Damping factor alpha9(ATM):    16.0000 
 ad hoc parameters k1-k3   :    16.0000     1.3333    -4.0000 

 Edisp/kcal,au: -12.995151950032  -0.020709090621 
 E6   /kcal   : -12.977101532 
 E8   /kcal   :  -0.000000000 
 E6(ABC)      :  -0.018050418 
 % E8         :   0.000000000 
 % E6(ABC)    :   0.138901170 

-------------------------   ----------------
Dispersion correction           -0.020709091
-------------------------   ----------------

------------------   -----------------
gCP correction             0.062373324
------------------   -----------------

-------------------------   --------------------
FINAL SINGLE POINT ENERGY      -763.321615872283
-------------------------   --------------------


                            ***************************************
                            *     ORCA property calculations      *
                            ***************************************

                                    ---------------------
                                    Active property flags
                                    ---------------------
   (+) Dipole Moment


------------------------------------------------------------------------------
                       ORCA ELECTRIC PROPERTIES CALCULATION
------------------------------------------------------------------------------

Dipole Moment Calculation                       ... on
Quadrupole Moment Calculation                   ... off
Polarizability Calculation                      ... off
GBWName                                         ... pbeh-3c.gbw
Electron density                                ... pbeh-3c.scfp
The origin for moment calculation is the CENTER OF MASS  = ( 0.272291, -0.027562 -0.073924)

-------------
DIPOLE MOMENT
-------------
                                X             Y             Z
Electronic contribution:      6.71154      -2.75920      -1.18998
Nuclear contribution   :     -5.82330       1.36932       1.23068
                        -----------------------------------------
Total Dipole Moment    :      0.88823      -1.38988       0.04069
                        -----------------------------------------
Magnitude (a.u.)       :      1.64996
Magnitude (Debye)      :      4.19387



--------------------
Rotational spectrum 
--------------------
 
Rotational constants in cm-1:     0.030160     0.006189     0.005188 
Rotational constants in MHz :   904.159939   185.540798   155.527495 

 Dipole components along the rotational axes: 
x,y,z [a.u.] :     0.910854     1.375157     0.040725 
x,y,z [Debye]:     2.315206     3.495371     0.103515 

 

Timings for individual modules:

Sum of individual times         ...      244.112 sec (=   4.069 min)
GTO integral calculation        ...        2.327 sec (=   0.039 min)   1.0 %
SCF iterations                  ...      241.785 sec (=   4.030 min)  99.0 %
                             ****ORCA TERMINATED NORMALLY****
TOTAL RUN TIME: 0 days 0 hours 4 minutes 5 seconds 282 msec
