
                                 *****************
                                 * O   R   C   A *
                                 *****************

                                            #,                                       
                                            ###                                      
                                            ####                                     
                                            #####                                    
                                            ######                                   
                                           ########,                                 
                                     ,,################,,,,,                         
                               ,,#################################,,                 
                          ,,##########################################,,             
                       ,#########################################, ''#####,          
                    ,#############################################,,   '####,        
                  ,##################################################,,,,####,       
                ,###########''''           ''''###############################       
              ,#####''   ,,,,##########,,,,          '''####'''          '####       
            ,##' ,,,,###########################,,,                        '##       
           ' ,,###''''                  '''############,,,                           
         ,,##''                                '''############,,,,        ,,,,,,###''
      ,#''                                            '''#######################'''  
     '                                                          ''''####''''         
             ,#######,   #######,   ,#######,      ##                                
            ,#'     '#,  ##    ##  ,#'     '#,    #''#        ######   ,####,        
            ##       ##  ##   ,#'  ##            #'  '#       #        #'  '#        
            ##       ##  #######   ##           ,######,      #####,   #    #        
            '#,     ,#'  ##    ##  '#,     ,#' ,#      #,         ##   #,  ,#        
             '#######'   ##     ##  '#######'  #'      '#     #####' # '####'        



                  #######################################################
                  #                        -***-                        #
                  #          Department of theory and spectroscopy      #
                  #    Directorship and core code : Frank Neese         #
                  #        Max Planck Institute fuer Kohlenforschung    #
                  #                Kaiser Wilhelm Platz 1               #
                  #                 D-45470 Muelheim/Ruhr               #
                  #                      Germany                        #
                  #                                                     #
                  #                  All rights reserved                #
                  #                        -***-                        #
                  #######################################################


                         Program Version 5.0.3 -  RELEASE  -


 With contributions from (in alphabetic order):
   Daniel Aravena         : Magnetic Suceptibility
   Michael Atanasov       : Ab Initio Ligand Field Theory (pilot matlab implementation)
   Alexander A. Auer      : GIAO ZORA, VPT2 properties, NMR spectrum
   Ute Becker             : Parallelization
   Giovanni Bistoni       : ED, misc. LED, open-shell LED, HFLD
   Martin Brehm           : Molecular dynamics
   Dmytro Bykov           : SCF Hessian
   Vijay G. Chilkuri      : MRCI spin determinant printing, contributions to CSF-ICE
   Dipayan Datta          : RHF DLPNO-CCSD density
   Achintya Kumar Dutta   : EOM-CC, STEOM-CC
   Dmitry Ganyushin       : Spin-Orbit,Spin-Spin,Magnetic field MRCI
   Miquel Garcia          : C-PCM and meta-GGA Hessian, CC/C-PCM, Gaussian charge scheme
   Yang Guo               : DLPNO-NEVPT2, F12-NEVPT2, CIM, IAO-localization
   Andreas Hansen         : Spin unrestricted coupled pair/coupled cluster methods
   Benjamin Helmich-Paris : MC-RPA, TRAH-SCF, COSX integrals
   Lee Huntington         : MR-EOM, pCC
   Robert Izsak           : Overlap fitted RIJCOSX, COSX-SCS-MP3, EOM
   Marcus Kettner         : VPT2
   Christian Kollmar      : KDIIS, OOCD, Brueckner-CCSD(T), CCSD density, CASPT2, CASPT2-K
   Simone Kossmann        : Meta GGA functionals, TD-DFT gradient, OOMP2, MP2 Hessian
   Martin Krupicka        : Initial AUTO-CI
   Lucas Lang             : DCDCAS
   Marvin Lechner         : AUTO-CI (C++ implementation), FIC-MRCC
   Dagmar Lenk            : GEPOL surface, SMD
   Dimitrios Liakos       : Extrapolation schemes; Compound Job, initial MDCI parallelization
   Dimitrios Manganas     : Further ROCIS development; embedding schemes
   Dimitrios Pantazis     : SARC Basis sets
   Anastasios Papadopoulos: AUTO-CI, single reference methods and gradients
   Taras Petrenko         : DFT Hessian,TD-DFT gradient, ASA, ECA, R-Raman, ABS, FL, XAS/XES, NRVS
   Peter Pinski           : DLPNO-MP2, DLPNO-MP2 Gradient
   Christoph Reimann      : Effective Core Potentials
   Marius Retegan         : Local ZFS, SOC
   Christoph Riplinger    : Optimizer, TS searches, QM/MM, DLPNO-CCSD(T), (RO)-DLPNO pert. Triples
   Tobias Risthaus        : Range-separated hybrids, TD-DFT gradient, RPA, STAB
   Michael Roemelt        : Original ROCIS implementation
   Masaaki Saitow         : Open-shell DLPNO-CCSD energy and density
   Barbara Sandhoefer     : DKH picture change effects
   Avijit Sen             : IP-ROCIS
   Kantharuban Sivalingam : CASSCF convergence, NEVPT2, FIC-MRCI
   Bernardo de Souza      : ESD, SOC TD-DFT
   Georgi Stoychev        : AutoAux, RI-MP2 NMR, DLPNO-MP2 response
   Willem Van den Heuvel  : Paramagnetic NMR
   Boris Wezisla          : Elementary symmetry handling
   Frank Wennmohs         : Technical directorship


 We gratefully acknowledge several colleagues who have allowed us to
 interface, adapt or use parts of their codes:
   Stefan Grimme, W. Hujo, H. Kruse, P. Pracht,  : VdW corrections, initial TS optimization,
                  C. Bannwarth, S. Ehlert          DFT functionals, gCP, sTDA/sTD-DF
   Ed Valeev, F. Pavosevic, A. Kumar             : LibInt (2-el integral package), F12 methods
   Garnet Chan, S. Sharma, J. Yang, R. Olivares  : DMRG
   Ulf Ekstrom                                   : XCFun DFT Library
   Mihaly Kallay                                 : mrcc  (arbitrary order and MRCC methods)
   Jiri Pittner, Ondrej Demel                    : Mk-CCSD
   Frank Weinhold                                : gennbo (NPA and NBO analysis)
   Christopher J. Cramer and Donald G. Truhlar   : smd solvation model
   Lars Goerigk                                  : TD-DFT with DH, B97 family of functionals
   V. Asgeirsson, H. Jonsson                     : NEB implementation
   FAccTs GmbH                                   : IRC, NEB, NEB-TS, DLPNO-Multilevel, CI-OPT
                                                   MM, QMMM, 2- and 3-layer-ONIOM, Crystal-QMMM,
                                                   LR-CPCM, SF, NACMEs, symmetry and pop. for TD-DFT,
                                                   nearIR, NL-DFT gradient (VV10), updates on ESD,
                                                   ML-optimized integration grids
   S Lehtola, MJT Oliveira, MAL Marques          : LibXC Library
   Liviu Ungur et al                             : ANISO software


 Your calculation uses the libint2 library for the computation of 2-el integrals
 For citations please refer to: http://libint.valeyev.net

 Your ORCA version has been built with support for libXC version: 5.1.0
 For citations please refer to: https://tddft.org/programs/libxc/

 This ORCA versions uses:
   CBLAS   interface :  Fast vector & matrix operations
   LAPACKE interface :  Fast linear algebra routines
   SCALAPACK package :  Parallel linear algebra routines
   Shared memory     :  Shared parallel matrices
   BLAS/LAPACK       :  OpenBLAS 0.3.15  USE64BITINT DYNAMIC_ARCH NO_AFFINITY Haswell SINGLE_THREADED
        Core in use  :  Haswell
   Copyright (c) 2011-2014, The OpenBLAS Project




***************************************
The coordinates will be read from file: hcnh.xyz
***************************************


Your calculation utilizes the geometrical counterpoise correction gCP
Please cite in your paper:
H.Kruse, S. Grimme J.Chem.Phys., 136, (2012), 154101 
   

Your calculation utilizes the atom-pairwise dispersion correction
with the Becke-Johnson damping scheme (D3BJ)
Cite in your paper:
S.Grimme, S.Ehrlich, L.Goerigk, J Comput Chem, (2011), 32, 1456–1465 
S.Grimme, J.Antony, S.Ehrlich and H.Krieg, J.Chem.Phys., 132, (2010), 154104 
   

Your calculation employs the composite approach PBEh-3c.
Please cite in your paper:
S. Grimme, J. G. Brandenburg, C. Bannwarth, A. Hansen J.Chem.Phys., 143, (2015), 054107 
   

================================================================================

----- Orbital basis set information -----
Your calculation utilizes the basis: def2-mSVP

----- AuxJ basis set information -----
Your calculation utilizes the auxiliary basis: def2/J
   F. Weigend, Phys. Chem. Chem. Phys. 8, 1057 (2006).

================================================================================
                                        WARNINGS
                       Please study these warnings very carefully!
================================================================================


WARNING: your system is open-shell and RHF/RKS was chosen
  ===> : WILL SWITCH to UHF/UKS


INFO   : the flag for use of the SHARK integral package has been found!

================================================================================
                                       INPUT FILE
================================================================================
NAME = pbeh-3c.inp
|  1> ! PBEh-3c def2/J TightSCF DefGrid3
|  2> 
|  3> %maxcore 60000
|  4> 
|  5> %pal
|  6> nprocs 4
|  7> end
|  8> 
|  9> *xyzfile 0 2 hcnh.xyz
| 10> 
| 11>                          ****END OF INPUT****
================================================================================

                       ****************************
                       * Single Point Calculation *
                       ****************************

---------------------------------
CARTESIAN COORDINATES (ANGSTROEM)
---------------------------------
  C      0.646925    0.119368    0.000000
  H      1.423652   -0.649696    0.000000
  N     -0.571033   -0.105768    0.000000
  H     -1.197361    0.697059    0.000000

----------------------------
CARTESIAN COORDINATES (A.U.)
----------------------------
  NO LB      ZA    FRAG     MASS         X           Y           Z
   0 C     6.0000    0    12.011    1.222511    0.225572    0.000000
   1 H     1.0000    0     1.008    2.690313   -1.227748    0.000000
   2 N     7.0000    0    14.007   -1.079097   -0.199872    0.000000
   3 H     1.0000    0     1.008   -2.262684    1.317251    0.000000

--------------------------------
INTERNAL COORDINATES (ANGSTROEM)
--------------------------------
 C      0   0   0     0.000000000000     0.00000000     0.00000000
 H      1   0   0     1.093052944399     0.00000000     0.00000000
 N      1   2   0     1.238590989026   124.81134540     0.00000000
 H      3   1   2     1.018242072441   117.48693813   180.00000085

---------------------------
INTERNAL COORDINATES (A.U.)
---------------------------
 C      0   0   0     0.000000000000     0.00000000     0.00000000
 H      1   0   0     2.065570714790     0.00000000     0.00000000
 N      1   2   0     2.340597761202   124.81134540     0.00000000
 H      3   1   2     1.924198654950   117.48693813   180.00000085

---------------------
BASIS SET INFORMATION
---------------------
There are 3 groups of distinct atoms

 Group   1 Type C   : 8s4p1d contracted to 4s2p1d pattern {5111/31/1}
 Group   2 Type H   : 4s contracted to 2s pattern {31}
 Group   3 Type N   : 8s4p1d contracted to 4s2p1d pattern {5111/31/1}

Atom   0C    basis set group =>   1
Atom   1H    basis set group =>   2
Atom   2N    basis set group =>   3
Atom   3H    basis set group =>   2
---------------------------------
AUXILIARY/J BASIS SET INFORMATION
---------------------------------
There are 3 groups of distinct atoms

 Group   1 Type C   : 12s5p4d2f1g contracted to 6s4p3d1f1g pattern {711111/2111/211/2/1}
 Group   2 Type H   : 5s2p1d contracted to 3s1p1d pattern {311/2/1}
 Group   3 Type N   : 12s5p4d2f1g contracted to 6s4p3d1f1g pattern {711111/2111/211/2/1}

Atom   0C    basis set group =>   1
Atom   1H    basis set group =>   2
Atom   2N    basis set group =>   3
Atom   3H    basis set group =>   2


           ************************************************************
           *        Program running with 4 parallel MPI-processes     *
           *              working on a common directory               *
           ************************************************************
------------------------------------------------------------------------------
                           ORCA GTO INTEGRAL CALCULATION
                           -- RI-GTO INTEGRALS CHOSEN --
------------------------------------------------------------------------------
------------------------------------------------------------------------------
                   ___                                                        
                  /   \      - P O W E R E D   B Y -                         
                 /     \                                                     
                 |  |  |   _    _      __       _____    __    __             
                 |  |  |  | |  | |    /  \     |  _  \  |  |  /  |          
                  \  \/   | |  | |   /    \    | | | |  |  | /  /          
                 / \  \   | |__| |  /  /\  \   | |_| |  |  |/  /          
                |  |  |   |  __  | /  /__\  \  |    /   |      \           
                |  |  |   | |  | | |   __   |  |    \   |  |\   \          
                \     /   | |  | | |  |  |  |  | |\  \  |  | \   \       
                 \___/    |_|  |_| |__|  |__|  |_| \__\ |__|  \__/        
                                                                              
                      - O R C A' S   B I G   F R I E N D -                    
                                      &                                       
                       - I N T E G R A L  F E E D E R -                       
                                                                              
 v1 FN, 2020, v2 2021                                                         
------------------------------------------------------------------------------


Reading SHARK input file pbeh-3c.SHARKINP.tmp ... ok
----------------------
SHARK INTEGRAL PACKAGE
----------------------

Number of atoms                             ...      4
Number of basis functions                   ...     34
Number of shells                            ...     18
Maximum angular momentum                    ...      2
Integral batch strategy                     ... SHARK/LIBINT Hybrid
RI-J (if used) integral strategy            ... SPLIT-RIJ (Revised 2003 algorithm where possible)
Printlevel                                  ...      1
Contraction scheme used                     ... SEGMENTED contraction
Coulomb Range Separation                    ... NOT USED
Exchange Range Separation                   ... NOT USED
Finite Nucleus Model                        ... NOT USED
Auxiliary Coulomb fitting basis             ... AVAILABLE
   # of basis functions in Aux-J            ...    120
   # of shells in Aux-J                     ...     40
   Maximum angular momentum in Aux-J        ...      4
Auxiliary J/K fitting basis                 ... NOT available
Auxiliary Correlation fitting basis         ... NOT available
Auxiliary 'external' fitting basis          ... NOT available
Integral threshold                          ...     2.500000e-11
Primitive cut-off                           ...     2.500000e-12
Primitive pair pre-selection threshold      ...     2.500000e-12

Calculating pre-screening integrals         ... done (  0.1 sec) Dimension = 18
Organizing shell pair data                  ... done (  0.2 sec)
Shell pair information
Total number of shell pairs                 ...       171
Shell pairs after pre-screening             ...       170
Total number of primitive shell pairs       ...       627
Primitive shell pairs kept                  ...       549
          la=0 lb=0:     77 shell pairs
          la=1 lb=0:     48 shell pairs
          la=1 lb=1:     10 shell pairs
          la=2 lb=0:     24 shell pairs
          la=2 lb=1:      8 shell pairs
          la=2 lb=2:      3 shell pairs

Calculating one electron integrals          ... done (  0.0 sec)
Calculating RI/J V-Matrix + Cholesky decomp.... done (  0.3 sec)
Calculating Nuclear repulsion               ... done (  0.1 sec) ENN=     28.100852985786 Eh

SHARK setup successfully completed in   1.5 seconds

Maximum memory used throughout the entire GTOINT-calculation: 8.8 MB


           ************************************************************
           *        Program running with 4 parallel MPI-processes     *
           *              working on a common directory               *
           ************************************************************
-------------------------------------------------------------------------------
                                 ORCA SCF
-------------------------------------------------------------------------------

------------
SCF SETTINGS
------------
Hamiltonian:
 Density Functional     Method          .... DFT(GTOs)
 Exchange Functional    Exchange        .... PBE
   PBE kappa parameter   XKappa         ....  1.024500
   PBE mue parameter    XMuePBE         ....  0.123457
 Correlation Functional Correlation     .... PBE
   PBE beta parameter  CBetaPBE         ....  0.030000
 LDA part of GGA corr.  LDAOpt          .... PW91-LDA
 Gradients option       PostSCFGGA      .... off
 Hybrid DFT is turned on
   Fraction HF Exchange ScalHFX         ....  0.420000
   Scaling of DF-GGA-X  ScalDFX         ....  0.580000
   Scaling of DF-GGA-C  ScalDFC         ....  1.000000
   Scaling of DF-LDA-C  ScalLDAC        ....  1.000000
   Perturbative correction              ....  0.000000
   Density functional embedding theory  .... OFF
 RI-approximation to the Coulomb term is turned on
   Number of AuxJ basis functions       .... 120
   RIJ-ON(X) (HFX calculated with O(N)) .... on
   Number of AuxJ basis functions       .... 120
   RIJ-COSX (HFX calculated with COS-X)).... on


General Settings:
 Integral files         IntName         .... pbeh-3c
 Hartree-Fock type      HFTyp           .... UHF
 Total Charge           Charge          ....    0
 Multiplicity           Mult            ....    2
 Number of Electrons    NEL             ....   15
 Basis Dimension        Dim             ....   34
 Nuclear Repulsion      ENuc            ....     28.1008529858 Eh

Convergence Acceleration:
 DIIS                   CNVDIIS         .... on
   Start iteration      DIISMaxIt       ....    12
   Startup error        DIISStart       ....  0.200000
   # of expansion vecs  DIISMaxEq       ....     5
   Bias factor          DIISBfac        ....   1.050
   Max. coefficient     DIISMaxC        ....  10.000
 Trust-Rad. Augm. Hess. CNVTRAH         .... auto
   Auto Start mean grad. ratio tolernc. ....  1.125000
   Auto Start start iteration           ....    20
   Auto Start num. interpolation iter.  ....    10
   Max. Number of Micro iterations      ....    16
   Max. Number of Macro iterations      .... Maxiter - #DIIS iter
   Number of Davidson start vectors     ....     2
   Converg. threshold I  (grad. norm)   ....   1.000e-05
   Converg. threshold II (energy diff.) ....   1.000e-08
   Grad. Scal. Fac. for Micro threshold ....   0.100
   Minimum threshold for Micro iter.    ....   0.010
   NR start threshold (gradient norm)   ....   0.001
   Initial trust radius                 ....   0.400
   Minimum AH scaling param. (alpha)    ....   1.000
   Maximum AH scaling param. (alpha)    .... 1000.000
   Orbital update algorithm             .... Taylor
   White noise on init. David. guess    .... on
   Maximum white noise                  ....   0.010
   Quad. conv. algorithm                .... NR
   COSX micro iterations for RIJONX calc.... off
 SOSCF                  CNVSOSCF        .... off
 Level Shifting         CNVShift        .... on
   Level shift para.    LevelShift      ....    0.2500
   Turn off err/grad.   ShiftErr        ....    0.0010
 Zerner damping         CNVZerner       .... off
 Static damping         CNVDamp         .... on
   Fraction old density DampFac         ....    0.7000
   Max. Damping (<1)    DampMax         ....    0.9800
   Min. Damping (>=0)   DampMin         ....    0.0000
   Turn off err/grad.   DampErr         ....    0.1000
 Fernandez-Rico         CNVRico         .... off

SCF Procedure:
 Maximum # iterations   MaxIter         ....   125
 SCF integral mode      SCFMode         .... Direct
   Integral package                     .... SHARK and LIBINT hybrid scheme
 Reset frequency        DirectResetFreq ....    20
 Integral Threshold     Thresh          ....  2.500e-11 Eh
 Primitive CutOff       TCut            ....  2.500e-12 Eh

Convergence Tolerance:
 Convergence Check Mode ConvCheckMode   .... Total+1el-Energy
 Convergence forced     ConvForced      .... 0
 Energy Change          TolE            ....  1.000e-08 Eh
 1-El. energy change                    ....  1.000e-05 Eh
 DIIS Error             TolErr          ....  5.000e-07


Diagonalization of the overlap matrix:
Smallest eigenvalue                        ... 1.470e-02
Time for diagonalization                   ...    0.000 sec
Threshold for overlap eigenvalues          ... 1.000e-08
Number of eigenvalues below threshold      ... 0
Time for construction of square roots      ...    0.113 sec
Total time needed                          ...    0.114 sec

--------------------------------
INITIAL GUESS: MINIMAL BASIS EHT
--------------------------------
The minimal basis has 12 functions
EHT matrix was diagonalized
Basis set overlap was calculated now projecting the orbitals
Using GuessMode=FMatrix for the initial guess
C*T matrix was formed
Effective Fockian was calculated
Effective Fockian was diagonalized
Initial density was built
                      ------------------
                      INITIAL GUESS DONE
                      ------------------
-------------------
DFT GRID GENERATION
-------------------

General Integration Accuracy     IntAcc      ... 4.959
Radial Grid Type                 RadialGrid  ... OptM3 with GC (2021)
Angular Grid (max. ang.)         AngularGrid ... 6 (Lebedev-590)
Angular grid pruning method      GridPruning ... 4 (adaptive)
Weight generation scheme         WeightScheme... Becke
Basis function cutoff            BFCut       ... 1.0000e-11
Integration weight cutoff        WCut        ... 1.0000e-14
Angular grids for H and He will be reduced by one unit
Partially contracted basis set               ... off
Rotationally invariant grid construction     ... off

Total number of grid points                  ...    47249
Total number of batches                      ...      741
Average number of points per batch           ...       63
Average number of grid points per atom       ...    11812
Time for grid setup =    0.996 sec

--------------------
COSX GRID GENERATION
--------------------

GRIDX 1
-------
General Integration Accuracy     IntAcc      ... 4.020
Radial Grid Type                 RadialGrid  ... OptM3 with GC (2021)
Angular Grid (max. ang.)         AngularGrid ... 2 (Lebedev-110)
Angular grid pruning method      GridPruning ... 4 (adaptive)
Weight generation scheme         WeightScheme... Becke
Basis function cutoff            BFCut       ... 1.0000e-11
Integration weight cutoff        WCut        ... 1.0000e-14
Angular grids for H and He will be reduced by one unit
Partially contracted basis set               ... on
Rotationally invariant grid construction     ... off

Total number of grid points                  ...     5377
Total number of batches                      ...       86
Average number of points per batch           ...       62
Average number of grid points per atom       ...     1344
UseSFitting                                  ... on

GRIDX 2
-------
General Integration Accuracy     IntAcc      ... 4.338
Radial Grid Type                 RadialGrid  ... OptM3 with GC (2021)
Angular Grid (max. ang.)         AngularGrid ... 3 (Lebedev-194)
Angular grid pruning method      GridPruning ... 4 (adaptive)
Weight generation scheme         WeightScheme... Becke
Basis function cutoff            BFCut       ... 1.0000e-11
Integration weight cutoff        WCut        ... 1.0000e-14
Angular grids for H and He will be reduced by one unit
Partially contracted basis set               ... on
Rotationally invariant grid construction     ... off

Total number of grid points                  ...    11908
Total number of batches                      ...      188
Average number of points per batch           ...       63
Average number of grid points per atom       ...     2977
UseSFitting                                  ... on

GRIDX 3
-------
General Integration Accuracy     IntAcc      ... 4.871
Radial Grid Type                 RadialGrid  ... OptM3 with GC (2021)
Angular Grid (max. ang.)         AngularGrid ... 4 (Lebedev-302)
Angular grid pruning method      GridPruning ... 4 (adaptive)
Weight generation scheme         WeightScheme... Becke
Basis function cutoff            BFCut       ... 1.0000e-11
Integration weight cutoff        WCut        ... 1.0000e-14
Angular grids for H and He will be reduced by one unit
Partially contracted basis set               ... on
Rotationally invariant grid construction     ... off

Total number of grid points                  ...    23006
Total number of batches                      ...      362
Average number of points per batch           ...       63
Average number of grid points per atom       ...     5752
UseSFitting                                  ... on

Time for X-Grid setup             =    1.845 sec

--------------
SCF ITERATIONS
--------------
ITER       Energy         Delta-E        Max-DP      RMS-DP      [F,P]     Damp
               ***  Starting incremental Fock matrix formation  ***
  0    -93.4087541635   0.000000000000 0.07343336  0.00491449  0.1871486 0.7000
  1    -93.5282859354  -0.119531771876 0.04790320  0.00329285  0.1282772 0.7000
                               ***Turning on DIIS***
  2    -93.5933218192  -0.065035883739 0.11212204  0.00697920  0.0884569 0.0000
  3    -93.7425156698  -0.149193850684 0.03223590  0.00264351  0.0361480 0.0000
  4    -93.7472519526  -0.004736282729 0.01625100  0.00109813  0.0371388 0.0000
  5    -93.7523707194  -0.005118766837 0.00856551  0.00047974  0.0095639 0.0000
  6    -93.7527504584  -0.000379739032 0.00533273  0.00029330  0.0035287 0.0000
  7    -93.7528386432  -0.000088184757 0.00283283  0.00017917  0.0018813 0.0000
  8    -93.7528732137  -0.000034570523 0.00156402  0.00011043  0.0012238 0.0000
  9    -93.7528883926  -0.000015178907 0.00191431  0.00012111  0.0007936 0.0000
               *** Restarting incremental Fock matrix formation ***
                                   *** Resetting DIIS ***
 10    -93.7528822689   0.000006123690 0.00040090  0.00002465  0.0003270 0.0000
 11    -93.7528833934  -0.000001124420 0.00037889  0.00002043  0.0002716 0.0000
 12    -93.7528840866  -0.000000693218 0.00058045  0.00003100  0.0001641 0.0000
 13    -93.7528846678  -0.000000581200 0.00020024  0.00000892  0.0000885 0.0000
 14    -93.7528847155  -0.000000047722 0.00007070  0.00000314  0.0000639 0.0000
 15    -93.7528847306  -0.000000015060 0.00003409  0.00000201  0.0000128 0.0000
 16    -93.7528847328  -0.000000002257 0.00000741  0.00000040  0.0000029 0.0000
                 **** Energy Check signals convergence ****

               *****************************************************
               *                     SUCCESS                       *
               *           SCF CONVERGED AFTER  17 CYCLES          *
               *****************************************************

Old exchange energy                            =     -5.212337751 Eh
New exchange energy                            =     -5.212336628 Eh
Exchange energy change after final integration =      0.000001124 Eh
Total energy after final integration           =    -93.752883609 Eh
Final COS-X integration done in                =     0.439 sec

----------------
TOTAL SCF ENERGY
----------------

Total Energy       :          -93.75288361 Eh           -2551.14566 eV

Components:
Nuclear Repulsion  :           28.10085299 Eh             764.66308 eV
Electronic Energy  :         -121.85373660 Eh           -3315.80875 eV
One Electron Energy:         -181.67485985 Eh           -4943.62427 eV
Two Electron Energy:           59.82112326 Eh            1627.81552 eV
Max COSX asymmetry :            0.00000032 Eh               0.00001 eV

Virial components:
Potential Energy   :         -186.82946429 Eh           -5083.88818 eV
Kinetic Energy     :           93.07658068 Eh            2532.74252 eV
Virial Ratio       :            2.00726609


DFT components:
N(Alpha)           :        8.000000047525 electrons
N(Beta)            :        7.000000025379 electrons
N(Total)           :       15.000000072904 electrons
E(X)               :       -6.934678402524 Eh       
E(C)               :       -0.630192754830 Eh       
E(XC)              :       -7.564871157355 Eh       
DFET-embed. en.    :        0.000000000000 Eh       

---------------
SCF CONVERGENCE
---------------

  Last Energy change         ...   -7.8529e-11  Tolerance :   1.0000e-08
  Last MAX-Density change    ...    0.0000e+00  Tolerance :   1.0000e-07
  Last RMS-Density change    ...    0.0000e+00  Tolerance :   5.0000e-09
  Last DIIS Error            ...    6.8918e-07  Tolerance :   5.0000e-07

             **** THE GBW FILE WAS UPDATED (pbeh-3c.gbw) ****
             **** DENSITY pbeh-3c.scfp WAS UPDATED ****
             **** ENERGY FILE WAS UPDATED (pbeh-3c.en.tmp) ****
----------------------
UHF SPIN CONTAMINATION
----------------------

Warning: in a DFT calculation there is little theoretical justification to 
         calculate <S**2> as in Hartree-Fock theory. We will do it anyways
         but you should keep in mind that the values have only limited relevance

Expectation value of <S**2>     :     0.755150
Ideal value S*(S+1) for S=0.5   :     0.750000
Deviation                       :     0.005150

             **** THE GBW FILE WAS UPDATED (pbeh-3c.gbw) ****
             **** DENSITY pbeh-3c.scfp WAS UPDATED ****
----------------
ORBITAL ENERGIES
----------------
                 SPIN UP ORBITALS
  NO   OCC          E(Eh)            E(eV) 
   0   1.0000     -14.658001      -398.8645 
   1   1.0000     -10.502292      -285.7819 
   2   1.0000      -1.023916       -27.8622 
   3   1.0000      -0.699654       -19.0385 
   4   1.0000      -0.544729       -14.8228 
   5   1.0000      -0.468229       -12.7412 
   6   1.0000      -0.398379       -10.8405 
   7   1.0000      -0.258092        -7.0230 
   8   0.0000       0.023038         0.6269 
   9   0.0000       0.149112         4.0575 
  10   0.0000       0.209177         5.6920 
  11   0.0000       0.310909         8.4603 
  12   0.0000       0.531083        14.4515 
  13   0.0000       0.544707        14.8222 
  14   0.0000       0.649973        17.6867 
  15   0.0000       0.687324        18.7030 
  16   0.0000       0.796588        21.6763 
  17   0.0000       0.847636        23.0654 
  18   0.0000       0.948844        25.8193 
  19   0.0000       1.016878        27.6706 
  20   0.0000       1.046248        28.4699 
  21   0.0000       1.451600        39.5000 
  22   0.0000       1.537072        41.8259 
  23   0.0000       1.558903        42.4199 
  24   0.0000       1.712811        46.6080 
  25   0.0000       1.832875        49.8751 
  26   0.0000       1.928488        52.4768 
  27   0.0000       2.310783        62.8796 
  28   0.0000       2.356961        64.1362 
  29   0.0000       2.539441        69.1017 
  30   0.0000       2.664089        72.4936 
  31   0.0000       2.800118        76.1951 
  32   0.0000      13.558855       368.9552 
  33   0.0000      19.134112       520.6657 

                 SPIN DOWN ORBITALS
  NO   OCC          E(Eh)            E(eV) 
   0   1.0000     -14.653427      -398.7400 
   1   1.0000     -10.488742      -285.4132 
   2   1.0000      -1.009336       -27.4654 
   3   1.0000      -0.673620       -18.3301 
   4   1.0000      -0.523894       -14.2559 
   5   1.0000      -0.393381       -10.7045 
   6   1.0000      -0.391811       -10.6617 
   7   0.0000      -0.029226        -0.7953 
   8   0.0000       0.041879         1.1396 
   9   0.0000       0.158438         4.3113 
  10   0.0000       0.226863         6.1733 
  11   0.0000       0.328203         8.9309 
  12   0.0000       0.546385        14.8679 
  13   0.0000       0.582573        15.8526 
  14   0.0000       0.683926        18.6106 
  15   0.0000       0.706352        19.2208 
  16   0.0000       0.827657        22.5217 
  17   0.0000       0.847895        23.0724 
  18   0.0000       0.972288        26.4573 
  19   0.0000       1.028266        27.9805 
  20   0.0000       1.065347        28.9896 
  21   0.0000       1.462815        39.8052 
  22   0.0000       1.553164        42.2637 
  23   0.0000       1.581388        43.0318 
  24   0.0000       1.753336        47.7107 
  25   0.0000       1.862548        50.6825 
  26   0.0000       1.958855        53.3032 
  27   0.0000       2.335994        63.5656 
  28   0.0000       2.370973        64.5174 
  29   0.0000       2.555550        69.5401 
  30   0.0000       2.698230        73.4226 
  31   0.0000       2.818104        76.6845 
  32   0.0000      13.577806       369.4709 
  33   0.0000      19.140536       520.8405 

                    ********************************
                    * MULLIKEN POPULATION ANALYSIS *
                    ********************************

--------------------------------------------
MULLIKEN ATOMIC CHARGES AND SPIN POPULATIONS
--------------------------------------------
   0 C :   -0.128096    0.760547
   1 H :    0.222102    0.067182
   2 N :   -0.441701    0.130938
   3 H :    0.347695    0.041334
Sum of atomic charges         :    0.0000000
Sum of atomic spin populations:    1.0000000

-----------------------------------------------------
MULLIKEN REDUCED ORBITAL CHARGES AND SPIN POPULATIONS
-----------------------------------------------------
CHARGE
  0 C s       :     3.376296  s :     3.376296
      pz      :     0.748916  p :     2.700447
      px      :     0.906120
      py      :     1.045411
      dz2     :     0.004574  d :     0.051353
      dxz     :     0.011585
      dyz     :     0.000974
      dx2y2   :     0.010682
      dxy     :     0.023538
  1 H s       :     0.777898  s :     0.777898
  2 N s       :     3.603583  s :     3.603583
      pz      :     1.229260  p :     3.800957
      px      :     1.163153
      py      :     1.408545
      dz2     :     0.004063  d :     0.037162
      dxz     :     0.007418
      dyz     :     0.001848
      dx2y2   :     0.006674
      dxy     :     0.017158
  3 H s       :     0.652305  s :     0.652305

SPIN
  0 C s       :     0.180492  s :     0.180492
      pz      :     0.053991  p :     0.581455
      px      :     0.047212
      py      :     0.480253
      dz2     :     0.000884  d :    -0.001400
      dxz     :    -0.000970
      dyz     :    -0.000355
      dx2y2   :    -0.000770
      dxy     :    -0.000189
  1 H s       :     0.067182  s :     0.067182
  2 N s       :     0.019399  s :     0.019399
      pz      :    -0.052503  p :     0.110311
      px      :     0.025048
      py      :     0.137766
      dz2     :     0.000572  d :     0.001228
      dxz     :    -0.000003
      dyz     :    -0.000160
      dx2y2   :    -0.000089
      dxy     :     0.000908
  3 H s       :     0.041334  s :     0.041334


                     *******************************
                     * LOEWDIN POPULATION ANALYSIS *
                     *******************************

-------------------------------------------
LOEWDIN ATOMIC CHARGES AND SPIN POPULATIONS
-------------------------------------------
   0 C :   -0.124380    0.732506
   1 H :    0.129249    0.049735
   2 N :   -0.252488    0.182373
   3 H :    0.247619    0.035386

----------------------------------------------------
LOEWDIN REDUCED ORBITAL CHARGES AND SPIN POPULATIONS
----------------------------------------------------
CHARGE
  0 C s       :     3.123701  s :     3.123701
      pz      :     0.762942  p :     2.898605
      px      :     1.081648
      py      :     1.054015
      dz2     :     0.009150  d :     0.102074
      dxz     :     0.019915
      dyz     :     0.001142
      dx2y2   :     0.024640
      dxy     :     0.047227
  1 H s       :     0.870751  s :     0.870751
  2 N s       :     3.285912  s :     3.285912
      pz      :     1.203601  p :     3.896920
      px      :     1.287665
      py      :     1.405654
      dz2     :     0.006670  d :     0.069657
      dxz     :     0.010649
      dyz     :     0.001751
      dx2y2   :     0.016178
      dxy     :     0.034408
  3 H s       :     0.752381  s :     0.752381

SPIN
  0 C s       :     0.136099  s :     0.136099
      pz      :     0.048232  p :     0.588395
      px      :     0.053364
      py      :     0.486799
      dz2     :     0.001663  d :     0.008012
      dxz     :    -0.001768
      dyz     :    -0.000345
      dx2y2   :     0.001137
      dxy     :     0.007325
  1 H s       :     0.049735  s :     0.049735
  2 N s       :     0.029083  s :     0.029083
      pz      :    -0.046631  p :     0.139241
      px      :     0.033906
      py      :     0.151966
      dz2     :     0.000732  d :     0.014049
      dxz     :     0.000623
      dyz     :    -0.000111
      dx2y2   :     0.000866
      dxy     :     0.011939
  3 H s       :     0.035386  s :     0.035386


                      *****************************
                      * MAYER POPULATION ANALYSIS *
                      *****************************

  NA   - Mulliken gross atomic population
  ZA   - Total nuclear charge
  QA   - Mulliken gross atomic charge
  VA   - Mayer's total valence
  BVA  - Mayer's bonded valence
  FA   - Mayer's free valence

  ATOM       NA         ZA         QA         VA         BVA        FA
  0 C      6.1281     6.0000    -0.1281     3.6867     3.1628     0.5239
  1 H      0.7779     1.0000     0.2221     0.9115     0.9068     0.0047
  2 N      7.4417     7.0000    -0.4417     3.1353     3.0780     0.0573
  3 H      0.6523     1.0000     0.3477     0.8435     0.8416     0.0019

  Mayer bond orders larger than 0.100000
B(  0-C ,  1-H ) :   0.8927 B(  0-C ,  2-N ) :   2.2583 B(  2-N ,  3-H ) :   0.8177 


-------
TIMINGS
-------

Total SCF time: 0 days 0 hours 0 min 59 sec 

Total time                  ....      59.896 sec
Sum of individual times     ....      54.264 sec  ( 90.6%)

Fock matrix formation       ....      46.412 sec  ( 77.5%)
  Split-RI-J                ....       4.464 sec  (  9.6% of F)
  Chain of spheres X        ....       4.589 sec  (  9.9% of F)
  XC integration            ....      14.263 sec  ( 30.7% of F)
    Basis function eval.    ....       0.351 sec  (  2.5% of XC)
    Density eval.           ....       0.548 sec  (  3.8% of XC)
    XC-Functional eval.     ....       0.668 sec  (  4.7% of XC)
    XC-Potential eval.      ....       0.217 sec  (  1.5% of XC)
Diagonalization             ....       0.726 sec  (  1.2%)
Density matrix formation    ....       0.074 sec  (  0.1%)
Population analysis         ....       1.031 sec  (  1.7%)
Initial guess               ....       0.001 sec  (  0.0%)
Orbital Transformation      ....       0.000 sec  (  0.0%)
Orbital Orthonormalization  ....       0.000 sec  (  0.0%)
DIIS solution               ....       3.177 sec  (  5.3%)
Grid generation             ....       2.842 sec  (  4.7%)

Maximum memory used throughout the entire SCF-calculation: 44.3 MB


-------------------------------------------------------------------------------
                          DFT DISPERSION CORRECTION                            
                                                                               
                              DFTD3 V3.1  Rev 1                                
                          USING Becke-Johnson damping                          
-------------------------------------------------------------------------------
The PBEh-3c composite method is recognized
Using three-body term ABC
Active option DFTDOPT                   ...         4   

molecular C6(AA) [au] = 178.335596 


            DFT-D V3
 parameters
 s6 scaling factor         :     1.0000 
 a1 scaling factor         :     0.4860 
 s8 scaling factor         :     0.0000 
 a2 scaling factor         :     4.5000 
 Damping factor alpha9(ATM):    16.0000 
 ad hoc parameters k1-k3   :    16.0000     1.3333    -4.0000 

 Edisp/kcal,au: -0.428648461466  -0.000683094732 
 E6   /kcal   :  -0.428635561 
 E8   /kcal   :  -0.000000000 
 E6(ABC)      :  -0.000012901 
 % E8         :   0.000000000 
 % E6(ABC)    :   0.003009625 

-------------------------   ----------------
Dispersion correction           -0.000683095
-------------------------   ----------------

------------------   -----------------
gCP correction             0.003678468
------------------   -----------------

-------------------------   --------------------
FINAL SINGLE POINT ENERGY       -93.749888235842
-------------------------   --------------------


                            ***************************************
                            *     ORCA property calculations      *
                            ***************************************

                                    ---------------------
                                    Active property flags
                                    ---------------------
   (+) Dipole Moment


------------------------------------------------------------------------------
                       ORCA ELECTRIC PROPERTIES CALCULATION
------------------------------------------------------------------------------

Dipole Moment Calculation                       ... on
Quadrupole Moment Calculation                   ... off
Polarizability Calculation                      ... off
GBWName                                         ... pbeh-3c.gbw
Electron density                                ... pbeh-3c.scfp
The origin for moment calculation is the CENTER OF MASS  = (-0.000010, -0.000002  0.000000)

-------------
DIPOLE MOMENT
-------------
                                X             Y             Z
Electronic contribution:     -0.14308       0.19291       0.00000
Nuclear contribution   :      0.20917       0.04385       0.00000
                        -----------------------------------------
Total Dipole Moment    :      0.06609       0.23676       0.00000
                        -----------------------------------------
Magnitude (a.u.)       :      0.24582
Magnitude (Debye)      :      0.62481



--------------------
Rotational spectrum 
--------------------
 
Rotational constants in cm-1:    13.561033     1.288587     1.176769 
Rotational constants in MHz : 406549.527433 38630.860717 35278.638922 

 Dipole components along the rotational axes: 
x,y,z [a.u.] :    -0.066088     0.236765     0.000000 
x,y,z [Debye]:    -0.167982     0.601808     0.000000 

 

Timings for individual modules:

Sum of individual times         ...       62.369 sec (=   1.039 min)
GTO integral calculation        ...        1.917 sec (=   0.032 min)   3.1 %
SCF iterations                  ...       60.451 sec (=   1.008 min)  96.9 %
                             ****ORCA TERMINATED NORMALLY****
TOTAL RUN TIME: 0 days 0 hours 1 minutes 12 seconds 388 msec
