
                                 *****************
                                 * O   R   C   A *
                                 *****************

                                            #,                                       
                                            ###                                      
                                            ####                                     
                                            #####                                    
                                            ######                                   
                                           ########,                                 
                                     ,,################,,,,,                         
                               ,,#################################,,                 
                          ,,##########################################,,             
                       ,#########################################, ''#####,          
                    ,#############################################,,   '####,        
                  ,##################################################,,,,####,       
                ,###########''''           ''''###############################       
              ,#####''   ,,,,##########,,,,          '''####'''          '####       
            ,##' ,,,,###########################,,,                        '##       
           ' ,,###''''                  '''############,,,                           
         ,,##''                                '''############,,,,        ,,,,,,###''
      ,#''                                            '''#######################'''  
     '                                                          ''''####''''         
             ,#######,   #######,   ,#######,      ##                                
            ,#'     '#,  ##    ##  ,#'     '#,    #''#        ######   ,####,        
            ##       ##  ##   ,#'  ##            #'  '#       #        #'  '#        
            ##       ##  #######   ##           ,######,      #####,   #    #        
            '#,     ,#'  ##    ##  '#,     ,#' ,#      #,         ##   #,  ,#        
             '#######'   ##     ##  '#######'  #'      '#     #####' # '####'        



                  #######################################################
                  #                        -***-                        #
                  #          Department of theory and spectroscopy      #
                  #    Directorship and core code : Frank Neese         #
                  #        Max Planck Institute fuer Kohlenforschung    #
                  #                Kaiser Wilhelm Platz 1               #
                  #                 D-45470 Muelheim/Ruhr               #
                  #                      Germany                        #
                  #                                                     #
                  #                  All rights reserved                #
                  #                        -***-                        #
                  #######################################################


                         Program Version 5.0.3 -  RELEASE  -


 With contributions from (in alphabetic order):
   Daniel Aravena         : Magnetic Suceptibility
   Michael Atanasov       : Ab Initio Ligand Field Theory (pilot matlab implementation)
   Alexander A. Auer      : GIAO ZORA, VPT2 properties, NMR spectrum
   Ute Becker             : Parallelization
   Giovanni Bistoni       : ED, misc. LED, open-shell LED, HFLD
   Martin Brehm           : Molecular dynamics
   Dmytro Bykov           : SCF Hessian
   Vijay G. Chilkuri      : MRCI spin determinant printing, contributions to CSF-ICE
   Dipayan Datta          : RHF DLPNO-CCSD density
   Achintya Kumar Dutta   : EOM-CC, STEOM-CC
   Dmitry Ganyushin       : Spin-Orbit,Spin-Spin,Magnetic field MRCI
   Miquel Garcia          : C-PCM and meta-GGA Hessian, CC/C-PCM, Gaussian charge scheme
   Yang Guo               : DLPNO-NEVPT2, F12-NEVPT2, CIM, IAO-localization
   Andreas Hansen         : Spin unrestricted coupled pair/coupled cluster methods
   Benjamin Helmich-Paris : MC-RPA, TRAH-SCF, COSX integrals
   Lee Huntington         : MR-EOM, pCC
   Robert Izsak           : Overlap fitted RIJCOSX, COSX-SCS-MP3, EOM
   Marcus Kettner         : VPT2
   Christian Kollmar      : KDIIS, OOCD, Brueckner-CCSD(T), CCSD density, CASPT2, CASPT2-K
   Simone Kossmann        : Meta GGA functionals, TD-DFT gradient, OOMP2, MP2 Hessian
   Martin Krupicka        : Initial AUTO-CI
   Lucas Lang             : DCDCAS
   Marvin Lechner         : AUTO-CI (C++ implementation), FIC-MRCC
   Dagmar Lenk            : GEPOL surface, SMD
   Dimitrios Liakos       : Extrapolation schemes; Compound Job, initial MDCI parallelization
   Dimitrios Manganas     : Further ROCIS development; embedding schemes
   Dimitrios Pantazis     : SARC Basis sets
   Anastasios Papadopoulos: AUTO-CI, single reference methods and gradients
   Taras Petrenko         : DFT Hessian,TD-DFT gradient, ASA, ECA, R-Raman, ABS, FL, XAS/XES, NRVS
   Peter Pinski           : DLPNO-MP2, DLPNO-MP2 Gradient
   Christoph Reimann      : Effective Core Potentials
   Marius Retegan         : Local ZFS, SOC
   Christoph Riplinger    : Optimizer, TS searches, QM/MM, DLPNO-CCSD(T), (RO)-DLPNO pert. Triples
   Tobias Risthaus        : Range-separated hybrids, TD-DFT gradient, RPA, STAB
   Michael Roemelt        : Original ROCIS implementation
   Masaaki Saitow         : Open-shell DLPNO-CCSD energy and density
   Barbara Sandhoefer     : DKH picture change effects
   Avijit Sen             : IP-ROCIS
   Kantharuban Sivalingam : CASSCF convergence, NEVPT2, FIC-MRCI
   Bernardo de Souza      : ESD, SOC TD-DFT
   Georgi Stoychev        : AutoAux, RI-MP2 NMR, DLPNO-MP2 response
   Willem Van den Heuvel  : Paramagnetic NMR
   Boris Wezisla          : Elementary symmetry handling
   Frank Wennmohs         : Technical directorship


 We gratefully acknowledge several colleagues who have allowed us to
 interface, adapt or use parts of their codes:
   Stefan Grimme, W. Hujo, H. Kruse, P. Pracht,  : VdW corrections, initial TS optimization,
                  C. Bannwarth, S. Ehlert          DFT functionals, gCP, sTDA/sTD-DF
   Ed Valeev, F. Pavosevic, A. Kumar             : LibInt (2-el integral package), F12 methods
   Garnet Chan, S. Sharma, J. Yang, R. Olivares  : DMRG
   Ulf Ekstrom                                   : XCFun DFT Library
   Mihaly Kallay                                 : mrcc  (arbitrary order and MRCC methods)
   Jiri Pittner, Ondrej Demel                    : Mk-CCSD
   Frank Weinhold                                : gennbo (NPA and NBO analysis)
   Christopher J. Cramer and Donald G. Truhlar   : smd solvation model
   Lars Goerigk                                  : TD-DFT with DH, B97 family of functionals
   V. Asgeirsson, H. Jonsson                     : NEB implementation
   FAccTs GmbH                                   : IRC, NEB, NEB-TS, DLPNO-Multilevel, CI-OPT
                                                   MM, QMMM, 2- and 3-layer-ONIOM, Crystal-QMMM,
                                                   LR-CPCM, SF, NACMEs, symmetry and pop. for TD-DFT,
                                                   nearIR, NL-DFT gradient (VV10), updates on ESD,
                                                   ML-optimized integration grids
   S Lehtola, MJT Oliveira, MAL Marques          : LibXC Library
   Liviu Ungur et al                             : ANISO software


 Your calculation uses the libint2 library for the computation of 2-el integrals
 For citations please refer to: http://libint.valeyev.net

 Your ORCA version has been built with support for libXC version: 5.1.0
 For citations please refer to: https://tddft.org/programs/libxc/

 This ORCA versions uses:
   CBLAS   interface :  Fast vector & matrix operations
   LAPACKE interface :  Fast linear algebra routines
   SCALAPACK package :  Parallel linear algebra routines
   Shared memory     :  Shared parallel matrices
   BLAS/LAPACK       :  OpenBLAS 0.3.15  USE64BITINT DYNAMIC_ARCH NO_AFFINITY Haswell SINGLE_THREADED
        Core in use  :  Haswell
   Copyright (c) 2011-2014, The OpenBLAS Project




***************************************
The coordinates will be read from file: bih3_hbr.xyz
***************************************


Your calculation utilizes the geometrical counterpoise correction gCP
Please cite in your paper:
H.Kruse, S. Grimme J.Chem.Phys., 136, (2012), 154101 
   

Your calculation utilizes the atom-pairwise dispersion correction
with the Becke-Johnson damping scheme (D3BJ)
Cite in your paper:
S.Grimme, S.Ehrlich, L.Goerigk, J Comput Chem, (2011), 32, 1456–1465 
S.Grimme, J.Antony, S.Ehrlich and H.Krieg, J.Chem.Phys., 132, (2010), 154104 
   

Your calculation employs the composite approach PBEh-3c.
Please cite in your paper:
S. Grimme, J. G. Brandenburg, C. Bannwarth, A. Hansen J.Chem.Phys., 143, (2015), 054107 
   

================================================================================

cite the ECPs for Bi [Def2-ECP] as follows:
Ce-Yb(ecp-28): M. Dolg, H. Stoll, H.Preuss, J. Chem. Phys., 1989, 90, 1730-1734.
Y-Cd(ecp-28), Hf-Hg(ecp-46): D. Andrae,U. Haeussermann, M. Dolg, H. Stoll, H. Preuss, Theor. Chim. Acta, 1990, 77, 123-141.
In-Sb(ecp-28), Tl-Bi(ecp-46): B. Metz, H. Stoll, M. Dolg, J. Chem. Phys., 2000, 113, 2563-2569.
Te-Xe(ecp-28), Po-Rn(ecp-46): K. A. Peterson, D. Figgen, E. Goll, H. Stoll, M. Dolg, J. Chem. Phys., 2003, 119, 11113-11123.
Rb(ecp-28), Cs(ecp-46): T. Leininger, A. Nicklass, W. Kuechle, H. Stoll, M. Dolg, A. Bergner, Chem. Phys. Lett., 1996, 255, 274-280.
Sr(ecp-28), Ba(ecp-46): M. Kaupp, P. V. Schleyer, H. Stoll and H. Preuss, J. Chem. Phys., 1991, 94, 1360-1366.
La(ecp-46): M. Dolg, H. Stoll, A. Savin, H. Preuss, Theor. Chim. Acta, 1989, 75, 173-194.
Lu(ecp-28): X. Cao, M. Dolg, J. Chem. Phys., 2001, 115, 7348-7355.

ECP parameters for Bi [Def2-ECP] have been obtained from:
TURBOMOLE (7.0.2)

----- Orbital basis set information -----
Your calculation utilizes the basis: def2-mSVP

----- AuxJ basis set information -----
Your calculation utilizes the auxiliary basis: def2/J
   F. Weigend, Phys. Chem. Chem. Phys. 8, 1057 (2006).

================================================================================
                                        WARNINGS
                       Please study these warnings very carefully!
================================================================================


WARNING: No Hueckel Guess possible with ECP basis!
  ===> : Switching to HCORE guess!

INFO   : the flag for use of the SHARK integral package has been found!

================================================================================
                                       INPUT FILE
================================================================================
NAME = pbeh-3c.inp
|  1> ! PBEh-3c def2/J TightSCF DefGrid3
|  2> 
|  3> %maxcore 60000
|  4> 
|  5> %pal
|  6> nprocs 4
|  7> end
|  8> 
|  9> *xyzfile 0 1 bih3_hbr.xyz
| 10> 
| 11>                          ****END OF INPUT****
================================================================================

                       ****************************
                       * Single Point Calculation *
                       ****************************

---------------------------------
CARTESIAN COORDINATES (ANGSTROEM)
---------------------------------
  Bi     0.000000    0.000000    1.032005
  H     -0.718722    1.244863    2.050298
  H     -0.718722   -1.244863    2.050298
  H      1.437444    0.000000    2.050298
  Br     0.000000    0.000000   -2.883569
  H      0.000000    0.000000   -4.299331

----------------------------
CARTESIAN COORDINATES (A.U.)
----------------------------
  NO LB      ZA    FRAG     MASS         X           Y           Z
   0 Bi   23.0000*   0   208.980    0.000000    0.000000    1.950206
   1 H     1.0000    0     1.008   -1.358188    2.352450    3.874503
   2 H     1.0000    0     1.008   -1.358188   -2.352450    3.874503
   3 H     1.0000    0     1.008    2.716375    0.000000    3.874503
   4 Br   35.0000    0    79.900    0.000000    0.000000   -5.449156
   5 H     1.0000    0     1.008    0.000000    0.000000   -8.124558
* core charge reduced due to ECP

--------------------------------
INTERNAL COORDINATES (ANGSTROEM)
--------------------------------
 Bi     0   0   0     0.000000000000     0.00000000     0.00000000
 H      1   0   0     1.761580943317     0.00000000     0.00000000
 H      1   2   0     1.761580943317    89.92983554     0.00000000
 H      1   2   3     1.761580946884    89.92983976   270.07007443
 Br     1   2   3     3.915573700000   125.31398632   135.03503516
 H      5   1   2     1.415761900000   179.99999852     0.00000000

---------------------------
INTERNAL COORDINATES (A.U.)
---------------------------
 Bi     0   0   0     0.000000000000     0.00000000     0.00000000
 H      1   0   0     3.328905545604     0.00000000     0.00000000
 H      1   2   0     3.328905545604    89.92983554     0.00000000
 H      1   2   3     3.328905552344    89.92983976   270.07007443
 Br     1   2   3     7.399361950185   125.31398632   135.03503516
 H      5   1   2     2.675402261840   179.99999852     0.00000000

---------------------
BASIS SET INFORMATION
---------------------
There are 3 groups of distinct atoms

 Group   1 Type Bi  : 10s7p6d contracted to 4s4p2d pattern {6211/4111/51}
 Group   2 Type H   : 4s contracted to 2s pattern {31}
 Group   3 Type Br  : 14s10p6d contracted to 5s4p3d pattern {63311/5311/411}

Atom   0Bi   basis set group =>   1
Atom   1H    basis set group =>   2
Atom   2H    basis set group =>   2
Atom   3H    basis set group =>   2
Atom   4Br   basis set group =>   3
Atom   5H    basis set group =>   2
---------------------------------
AUXILIARY/J BASIS SET INFORMATION
---------------------------------
There are 3 groups of distinct atoms

 Group   1 Type Bi  : 11s5p5d3f1g contracted to 8s4p3d2f1g pattern {41111111/2111/311/21/1}
 Group   2 Type H   : 5s2p1d contracted to 3s1p1d pattern {311/2/1}
 Group   3 Type Br  : 19s5p5d3f1g contracted to 8s4p3d2f1g pattern {121111111/2111/311/21/1}

Atom   0Bi   basis set group =>   1
Atom   1H    basis set group =>   2
Atom   2H    basis set group =>   2
Atom   3H    basis set group =>   2
Atom   4Br   basis set group =>   3
Atom   5H    basis set group =>   2
-------------------------
ECP PARAMETER INFORMATION
-------------------------

 Group 1, Type Bi ECP Def2-ECP (replacing 60 core electrons, lmax=3)

Atom   0Bi   ECP group =>   1



           ************************************************************
           *        Program running with 4 parallel MPI-processes     *
           *              working on a common directory               *
           ************************************************************
------------------------------------------------------------------------------
                           ORCA GTO INTEGRAL CALCULATION
                           -- RI-GTO INTEGRALS CHOSEN --
------------------------------------------------------------------------------
------------------------------------------------------------------------------
                   ___                                                        
                  /   \      - P O W E R E D   B Y -                         
                 /     \                                                     
                 |  |  |   _    _      __       _____    __    __             
                 |  |  |  | |  | |    /  \     |  _  \  |  |  /  |          
                  \  \/   | |  | |   /    \    | | | |  |  | /  /          
                 / \  \   | |__| |  /  /\  \   | |_| |  |  |/  /          
                |  |  |   |  __  | /  /__\  \  |    /   |      \           
                |  |  |   | |  | | |   __   |  |    \   |  |\   \          
                \     /   | |  | | |  |  |  |  | |\  \  |  | \   \       
                 \___/    |_|  |_| |__|  |__|  |_| \__\ |__|  \__/        
                                                                              
                      - O R C A' S   B I G   F R I E N D -                    
                                      &                                       
                       - I N T E G R A L  F E E D E R -                       
                                                                              
 v1 FN, 2020, v2 2021                                                         
------------------------------------------------------------------------------


Reading SHARK input file pbeh-3c.SHARKINP.tmp ... ok
----------------------
SHARK INTEGRAL PACKAGE
----------------------

Number of atoms                             ...      6
Number of basis functions                   ...     66
Number of shells                            ...     30
Maximum angular momentum                    ...      2
Integral batch strategy                     ... SHARK/LIBINT Hybrid
RI-J (if used) integral strategy            ... SPLIT-RIJ (Revised 2003 algorithm where possible)
Printlevel                                  ...      1
Contraction scheme used                     ... SEGMENTED contraction
Coulomb Range Separation                    ... NOT USED
Exchange Range Separation                   ... NOT USED
Finite Nucleus Model                        ... NOT USED
Auxiliary Coulomb fitting basis             ... AVAILABLE
   # of basis functions in Aux-J            ...    160
   # of shells in Aux-J                     ...     56
   Maximum angular momentum in Aux-J        ...      4
Auxiliary J/K fitting basis                 ... NOT available
Auxiliary Correlation fitting basis         ... NOT available
Auxiliary 'external' fitting basis          ... NOT available
Integral threshold                          ...     2.500000e-11
Primitive cut-off                           ...     2.500000e-12
Primitive pair pre-selection threshold      ...     2.500000e-12

Calculating pre-screening integrals         ... done (  0.1 sec) Dimension = 30
Organizing shell pair data                  ... done (  0.2 sec)
Shell pair information
Total number of shell pairs                 ...       465
Shell pairs after pre-screening             ...       410
Total number of primitive shell pairs       ...      2499
Primitive shell pairs kept                  ...      1677
          la=0 lb=0:    133 shell pairs
          la=1 lb=0:    118 shell pairs
          la=1 lb=1:     33 shell pairs
          la=2 lb=0:     74 shell pairs
          la=2 lb=1:     37 shell pairs
          la=2 lb=2:     15 shell pairs

Calculating one electron integrals          ... done (  0.0 sec)
Calculating ECP integrals                   ... done (  0.1 sec)
Calculating RI/J V-Matrix + Cholesky decomp.... done (  0.3 sec)
Calculating Nuclear repulsion               ... done (  0.0 sec) ENN=    156.579405535907 Eh

SHARK setup successfully completed in   1.5 seconds

Maximum memory used throughout the entire GTOINT-calculation: 10.1 MB


           ************************************************************
           *        Program running with 4 parallel MPI-processes     *
           *              working on a common directory               *
           ************************************************************
-------------------------------------------------------------------------------
                                 ORCA SCF
-------------------------------------------------------------------------------

------------
SCF SETTINGS
------------
Hamiltonian:
 Density Functional     Method          .... DFT(GTOs)
 Exchange Functional    Exchange        .... PBE
   PBE kappa parameter   XKappa         ....  1.024500
   PBE mue parameter    XMuePBE         ....  0.123457
 Correlation Functional Correlation     .... PBE
   PBE beta parameter  CBetaPBE         ....  0.030000
 LDA part of GGA corr.  LDAOpt          .... PW91-LDA
 Gradients option       PostSCFGGA      .... off
 Hybrid DFT is turned on
   Fraction HF Exchange ScalHFX         ....  0.420000
   Scaling of DF-GGA-X  ScalDFX         ....  0.580000
   Scaling of DF-GGA-C  ScalDFC         ....  1.000000
   Scaling of DF-LDA-C  ScalLDAC        ....  1.000000
   Perturbative correction              ....  0.000000
   Density functional embedding theory  .... OFF
 RI-approximation to the Coulomb term is turned on
   Number of AuxJ basis functions       .... 160
   RIJ-ON(X) (HFX calculated with O(N)) .... on
   Number of AuxJ basis functions       .... 160
   RIJ-COSX (HFX calculated with COS-X)).... on


General Settings:
 Integral files         IntName         .... pbeh-3c
 Hartree-Fock type      HFTyp           .... RHF
 Total Charge           Charge          ....    0
 Multiplicity           Mult            ....    1
 Number of Electrons    NEL             ....   62
 Basis Dimension        Dim             ....   66
 Nuclear Repulsion      ENuc            ....    156.5794055359 Eh

Convergence Acceleration:
 DIIS                   CNVDIIS         .... on
   Start iteration      DIISMaxIt       ....    12
   Startup error        DIISStart       ....  0.200000
   # of expansion vecs  DIISMaxEq       ....     5
   Bias factor          DIISBfac        ....   1.050
   Max. coefficient     DIISMaxC        ....  10.000
 Trust-Rad. Augm. Hess. CNVTRAH         .... auto
   Auto Start mean grad. ratio tolernc. ....  1.125000
   Auto Start start iteration           ....    20
   Auto Start num. interpolation iter.  ....    10
   Max. Number of Micro iterations      ....    16
   Max. Number of Macro iterations      .... Maxiter - #DIIS iter
   Number of Davidson start vectors     ....     2
   Converg. threshold I  (grad. norm)   ....   1.000e-05
   Converg. threshold II (energy diff.) ....   1.000e-08
   Grad. Scal. Fac. for Micro threshold ....   0.100
   Minimum threshold for Micro iter.    ....   0.010
   NR start threshold (gradient norm)   ....   0.001
   Initial trust radius                 ....   0.400
   Minimum AH scaling param. (alpha)    ....   1.000
   Maximum AH scaling param. (alpha)    .... 1000.000
   Orbital update algorithm             .... Taylor
   White noise on init. David. guess    .... on
   Maximum white noise                  ....   0.010
   Quad. conv. algorithm                .... NR
   COSX micro iterations for RIJONX calc.... off
 SOSCF                  CNVSOSCF        .... on
   Start iteration      SOSCFMaxIt      ....   150
   Startup grad/error   SOSCFStart      ....  0.003300
 Level Shifting         CNVShift        .... on
   Level shift para.    LevelShift      ....    0.2500
   Turn off err/grad.   ShiftErr        ....    0.0010
 Zerner damping         CNVZerner       .... off
 Static damping         CNVDamp         .... on
   Fraction old density DampFac         ....    0.7000
   Max. Damping (<1)    DampMax         ....    0.9800
   Min. Damping (>=0)   DampMin         ....    0.0000
   Turn off err/grad.   DampErr         ....    0.1000
 Fernandez-Rico         CNVRico         .... off

SCF Procedure:
 Maximum # iterations   MaxIter         ....   125
 SCF integral mode      SCFMode         .... Direct
   Integral package                     .... SHARK and LIBINT hybrid scheme
 Reset frequency        DirectResetFreq ....    20
 Integral Threshold     Thresh          ....  2.500e-11 Eh
 Primitive CutOff       TCut            ....  2.500e-12 Eh

Convergence Tolerance:
 Convergence Check Mode ConvCheckMode   .... Total+1el-Energy
 Convergence forced     ConvForced      .... 0
 Energy Change          TolE            ....  1.000e-08 Eh
 1-El. energy change                    ....  1.000e-05 Eh
 Orbital Gradient       TolG            ....  1.000e-05
 Orbital Rotation angle TolX            ....  1.000e-05
 DIIS Error             TolErr          ....  5.000e-07


Diagonalization of the overlap matrix:
Smallest eigenvalue                        ... 2.466e-02
Time for diagonalization                   ...    0.001 sec
Threshold for overlap eigenvalues          ... 1.000e-08
Number of eigenvalues below threshold      ... 0
Time for construction of square roots      ...    0.250 sec
Total time needed                          ...    0.255 sec

--------------------
INITIAL GUESS: HCORE
--------------------
                      -----------------
                      INTIAL GUESS DONE 
                      -----------------
-------------------
DFT GRID GENERATION
-------------------

General Integration Accuracy     IntAcc      ... 4.959
Radial Grid Type                 RadialGrid  ... OptM3 with GC (2021)
Angular Grid (max. ang.)         AngularGrid ... 6 (Lebedev-590)
Angular grid pruning method      GridPruning ... 4 (adaptive)
Weight generation scheme         WeightScheme... Becke
Basis function cutoff            BFCut       ... 1.0000e-11
Integration weight cutoff        WCut        ... 1.0000e-14
Angular grids for H and He will be reduced by one unit
Partially contracted basis set               ... off
Rotationally invariant grid construction     ... off

Total number of grid points                  ...    87658
Total number of batches                      ...     1373
Average number of points per batch           ...       63
Average number of grid points per atom       ...    14610
Time for grid setup =    1.951 sec

--------------------
COSX GRID GENERATION
--------------------

GRIDX 1
-------
General Integration Accuracy     IntAcc      ... 4.020
Radial Grid Type                 RadialGrid  ... OptM3 with GC (2021)
Angular Grid (max. ang.)         AngularGrid ... 2 (Lebedev-110)
Angular grid pruning method      GridPruning ... 4 (adaptive)
Weight generation scheme         WeightScheme... Becke
Basis function cutoff            BFCut       ... 1.0000e-11
Integration weight cutoff        WCut        ... 1.0000e-14
Angular grids for H and He will be reduced by one unit
Partially contracted basis set               ... on
Rotationally invariant grid construction     ... off

Total number of grid points                  ...     9844
Total number of batches                      ...      157
Average number of points per batch           ...       62
Average number of grid points per atom       ...     1641
UseSFitting                                  ... on

GRIDX 2
-------
General Integration Accuracy     IntAcc      ... 4.338
Radial Grid Type                 RadialGrid  ... OptM3 with GC (2021)
Angular Grid (max. ang.)         AngularGrid ... 3 (Lebedev-194)
Angular grid pruning method      GridPruning ... 4 (adaptive)
Weight generation scheme         WeightScheme... Becke
Basis function cutoff            BFCut       ... 1.0000e-11
Integration weight cutoff        WCut        ... 1.0000e-14
Angular grids for H and He will be reduced by one unit
Partially contracted basis set               ... on
Rotationally invariant grid construction     ... off

Total number of grid points                  ...    20498
Total number of batches                      ...      324
Average number of points per batch           ...       63
Average number of grid points per atom       ...     3416
UseSFitting                                  ... on

GRIDX 3
-------
General Integration Accuracy     IntAcc      ... 4.871
Radial Grid Type                 RadialGrid  ... OptM3 with GC (2021)
Angular Grid (max. ang.)         AngularGrid ... 4 (Lebedev-302)
Angular grid pruning method      GridPruning ... 4 (adaptive)
Weight generation scheme         WeightScheme... Becke
Basis function cutoff            BFCut       ... 1.0000e-11
Integration weight cutoff        WCut        ... 1.0000e-14
Angular grids for H and He will be reduced by one unit
Partially contracted basis set               ... on
Rotationally invariant grid construction     ... off

Total number of grid points                  ...    40559
Total number of batches                      ...      637
Average number of points per batch           ...       63
Average number of grid points per atom       ...     6760
UseSFitting                                  ... on

Time for X-Grid setup             =    2.791 sec

--------------
SCF ITERATIONS
--------------
ITER       Energy         Delta-E        Max-DP      RMS-DP      [F,P]     Damp
               ***  Starting incremental Fock matrix formation  ***
  0  -2691.8147614053   0.00000000000011.32526420  0.30274375  2.2383825 0.7000
  1  -2730.8054051720 -38.990643766658 3.39040289  0.09356736  1.6581464 0.7000
  2  -2747.9593411617 -17.153935989732 2.32592138  0.06759933  1.1744544 0.7000
  3  -2760.4708830715 -12.511541909761 1.61164623  0.04798879  0.8153561 0.7000
  4  -2769.2298752185  -8.758992147067 1.12572764  0.03398405  0.5627963 0.7000
  5  -2775.3969011583  -6.167025939746 0.78926423  0.02405217  0.3881105 0.7000
  6  -2779.7450396670  -4.348138508750 0.55393240  0.01700856  0.2678877 0.7000
                               ***Turning on DIIS***
  7  -2782.8068399868  -3.061800319794 0.38877075  0.01201243  0.1850979 0.7000
  8  -2784.9595483325  -2.152708345649 0.27358047  0.00852232  0.1279513 0.7000
  9  -2786.4713617449  -1.511813412444 0.64094193  0.02006095  0.0891850 0.0000
 10  -2790.0154162370  -3.544054492113 0.00906999  0.00056844  0.0043328 0.0000
                      *** Initiating the SOSCF procedure ***
                           *** Shutting down DIIS ***
                      *** Re-Reading the Fockian *** 
                      *** Removing any level shift *** 
ITER      Energy       Delta-E        Grad      Rot      Max-DP    RMS-DP
 11  -2790.01564783  -0.0002315882  0.003217  0.003217  0.005037  0.000305
               *** Restarting incremental Fock matrix formation ***
 12  -2790.01561421   0.0000336170  0.001355  0.004025  0.003771  0.000204
 13  -2790.01562798  -0.0000137685  0.000392  0.000865  0.001038  0.000052
 14  -2790.01562851  -0.0000005328  0.000232  0.000184  0.000431  0.000015
 15  -2790.01562867  -0.0000001653  0.000011  0.000015  0.000074  0.000003
 16  -2790.01562868  -0.0000000004  0.000006  0.000007  0.000012  0.000001
                 **** Energy Check signals convergence ****
              ***Rediagonalizing the Fockian in SOSCF/NRSCF***

               *****************************************************
               *                     SUCCESS                       *
               *           SCF CONVERGED AFTER  17 CYCLES          *
               *****************************************************

Old exchange energy                            =    -44.947104150 Eh
New exchange energy                            =    -44.947098543 Eh
Exchange energy change after final integration =      0.000005607 Eh
Total energy after final integration           =  -2790.015623067 Eh
Final COS-X integration done in                =     0.800 sec

----------------
TOTAL SCF ENERGY
----------------

Total Energy       :        -2790.01562307 Eh          -75920.18481 eV

Components:
Nuclear Repulsion  :          156.57940554 Eh            4260.74224 eV
Electronic Energy  :        -2946.59502860 Eh          -80180.92705 eV
One Electron Energy:        -4270.49051577 Eh         -116205.95473 eV
Two Electron Energy:         1323.89548716 Eh           36025.02768 eV
Max COSX asymmetry :            0.00000602 Eh               0.00016 eV

Virial components:
Potential Energy   :        -5432.55875832 Eh         -147827.43922 eV
Kinetic Energy     :         2642.54313526 Eh           71907.25440 eV
Virial Ratio       :            2.05580703


DFT components:
N(Alpha)           :       31.000009757996 electrons
N(Beta)            :       31.000009757996 electrons
N(Total)           :       62.000019515991 electrons
E(X)               :      -60.611288307098 Eh       
E(C)               :       -3.563243728821 Eh       
E(XC)              :      -64.174532035919 Eh       
DFET-embed. en.    :        0.000000000000 Eh       

---------------
SCF CONVERGENCE
---------------

  Last Energy change         ...    7.9081e-10  Tolerance :   1.0000e-08
  Last MAX-Density change    ...    3.9968e-15  Tolerance :   1.0000e-07
  Last RMS-Density change    ...    1.7426e-16  Tolerance :   5.0000e-09
  Last Orbital Gradient      ...    8.1818e-07  Tolerance :   1.0000e-05
  Last Orbital Rotation      ...    8.0107e-07  Tolerance :   1.0000e-05

             **** THE GBW FILE WAS UPDATED (pbeh-3c.gbw) ****
             **** DENSITY pbeh-3c.scfp WAS UPDATED ****
             **** ENERGY FILE WAS UPDATED (pbeh-3c.en.tmp) ****
             **** THE GBW FILE WAS UPDATED (pbeh-3c.gbw) ****
             **** DENSITY pbeh-3c.scfp WAS UPDATED ****
----------------
ORBITAL ENERGIES
----------------

  NO   OCC          E(Eh)            E(eV) 
   0   2.0000    -484.535370    -13184.8777 
   1   2.0000     -63.199087     -1719.7346 
   2   2.0000     -56.902882     -1548.4061 
   3   2.0000     -56.901275     -1548.3624 
   4   2.0000     -56.901275     -1548.3624 
   5   2.0000      -9.028556      -245.6795 
   6   2.0000      -6.803265      -185.1262 
   7   2.0000      -6.790362      -184.7751 
   8   2.0000      -6.790362      -184.7751 
   9   2.0000      -6.169711      -167.8864 
  10   2.0000      -3.860308      -105.0443 
  11   2.0000      -3.860308      -105.0443 
  12   2.0000      -3.856165      -104.9316 
  13   2.0000      -2.817173       -76.6592 
  14   2.0000      -2.812676       -76.5368 
  15   2.0000      -2.812676       -76.5368 
  16   2.0000      -2.801898       -76.2435 
  17   2.0000      -2.801895       -76.2434 
  18   2.0000      -1.141137       -31.0519 
  19   2.0000      -1.141134       -31.0518 
  20   2.0000      -1.134330       -30.8667 
  21   2.0000      -1.134328       -30.8666 
  22   2.0000      -1.130800       -30.7706 
  23   2.0000      -0.876487       -23.8504 
  24   2.0000      -0.683110       -18.5884 
  25   2.0000      -0.500357       -13.6154 
  26   2.0000      -0.369151       -10.0451 
  27   2.0000      -0.369149       -10.0451 
  28   2.0000      -0.353568        -9.6211 
  29   2.0000      -0.353568        -9.6211 
  30   2.0000      -0.309534        -8.4228 
  31   0.0000       0.026415         0.7188 
  32   0.0000       0.030481         0.8294 
  33   0.0000       0.030483         0.8295 
  34   0.0000       0.109846         2.9890 
  35   0.0000       0.295522         8.0416 
  36   0.0000       0.295530         8.0418 
  37   0.0000       0.300883         8.1874 
  38   0.0000       0.317729         8.6459 
  39   0.0000       0.354775         9.6539 
  40   0.0000       0.354776         9.6539 
  41   0.0000       0.359675         9.7873 
  42   0.0000       0.375260        10.2113 
  43   0.0000       0.538043        14.6409 
  44   0.0000       0.538043        14.6409 
  45   0.0000       0.558745        15.2042 
  46   0.0000       0.558749        15.2043 
  47   0.0000       0.569360        15.4931 
  48   0.0000       0.569367        15.4933 
  49   0.0000       0.608828        16.5671 
  50   0.0000       0.657999        17.9051 
  51   0.0000       0.657999        17.9051 
  52   0.0000       0.844256        22.9734 
  53   0.0000       1.057741        28.7826 
  54   0.0000       1.057741        28.7826 
  55   0.0000       1.068523        29.0760 
  56   0.0000       1.089654        29.6510 
  57   0.0000       3.501277        95.2746 
  58   0.0000       3.501277        95.2746 
  59   0.0000       3.522849        95.8616 
  60   0.0000       3.522861        95.8619 
  61   0.0000       3.666936        99.7824 
  62   0.0000      21.147172       575.4438 
  63   0.0000      21.147172       575.4438 
  64   0.0000      21.202966       576.9620 
  65   0.0000      54.240126      1475.9489 

                    ********************************
                    * MULLIKEN POPULATION ANALYSIS *
                    ********************************

-----------------------
MULLIKEN ATOMIC CHARGES
-----------------------
   0 Bi:    0.009546
   1 H :   -0.002325
   2 H :   -0.002325
   3 H :   -0.002305
   4 Br:   -0.251417
   5 H :    0.248827
Sum of atomic charges:   -0.0000000

--------------------------------
MULLIKEN REDUCED ORBITAL CHARGES
--------------------------------
  0 Bis       :     3.854682  s :     3.854682
      pz      :     3.229685  p :     9.024299
      px      :     2.897310
      py      :     2.897304
      dz2     :     2.000984  d :    10.111473
      dxz     :     2.039763
      dyz     :     2.039763
      dx2y2   :     2.015481
      dxy     :     2.015481
  1 H s       :     1.002325  s :     1.002325
  2 H s       :     1.002325  s :     1.002325
  3 H s       :     1.002305  s :     1.002305
  4 Brs       :     7.962887  s :     7.962887
      pz      :     5.253280  p :    17.247765
      px      :     5.997243
      py      :     5.997243
      dz2     :     2.038502  d :    10.040764
      dxz     :     2.001131
      dyz     :     2.001131
      dx2y2   :     2.000000
      dxy     :     2.000000
  5 H s       :     0.751173  s :     0.751173


                     *******************************
                     * LOEWDIN POPULATION ANALYSIS *
                     *******************************

----------------------
LOEWDIN ATOMIC CHARGES
----------------------
   0 Bi:    0.001310
   1 H :   -0.001488
   2 H :   -0.001488
   3 H :   -0.001477
   4 Br:   -0.158295
   5 H :    0.161438

-------------------------------
LOEWDIN REDUCED ORBITAL CHARGES
-------------------------------
  0 Bis       :     3.728416  s :     3.728416
      pz      :     3.277659  p :     9.122538
      px      :     2.922441
      py      :     2.922437
      dz2     :     2.001624  d :    10.147736
      dxz     :     2.051150
      dyz     :     2.051151
      dx2y2   :     2.021905
      dxy     :     2.021905
  1 H s       :     1.001488  s :     1.001488
  2 H s       :     1.001488  s :     1.001488
  3 H s       :     1.001477  s :     1.001477
  4 Brs       :     7.881237  s :     7.881237
      pz      :     5.237938  p :    17.232112
      px      :     5.997087
      py      :     5.997087
      dz2     :     2.042678  d :    10.044947
      dxz     :     2.001134
      dyz     :     2.001134
      dx2y2   :     2.000000
      dxy     :     2.000000
  5 H s       :     0.838562  s :     0.838562


                      *****************************
                      * MAYER POPULATION ANALYSIS *
                      *****************************

  NA   - Mulliken gross atomic population
  ZA   - Total nuclear charge
  QA   - Mulliken gross atomic charge
  VA   - Mayer's total valence
  BVA  - Mayer's bonded valence
  FA   - Mayer's free valence

  ATOM       NA         ZA         QA         VA         BVA        FA
  0 Bi    22.9905    23.0000     0.0095     2.9675     2.9675     0.0000
  1 H      1.0023     1.0000    -0.0023     0.9854     0.9854    -0.0000
  2 H      1.0023     1.0000    -0.0023     0.9854     0.9854    -0.0000
  3 H      1.0023     1.0000    -0.0023     0.9854     0.9854     0.0000
  4 Br    35.2514    35.0000    -0.2514     0.9256     0.9256    -0.0000
  5 H      0.7512     1.0000     0.2488     0.9145     0.9145    -0.0000

  Mayer bond orders larger than 0.100000
B(  0-Bi,  1-H ) :   0.9832 B(  0-Bi,  2-H ) :   0.9832 B(  0-Bi,  3-H ) :   0.9832 
B(  4-Br,  5-H ) :   0.9087 

-------
TIMINGS
-------

Total SCF time: 0 days 0 hours 1 min 26 sec 

Total time                  ....      86.127 sec
Sum of individual times     ....      76.882 sec  ( 89.3%)

Fock matrix formation       ....      65.965 sec  ( 76.6%)
  Split-RI-J                ....       8.608 sec  ( 13.0% of F)
  Chain of spheres X        ....      11.646 sec  ( 17.7% of F)
  XC integration            ....      20.425 sec  ( 31.0% of F)
    Basis function eval.    ....       1.242 sec  (  6.1% of XC)
    Density eval.           ....       0.880 sec  (  4.3% of XC)
    XC-Functional eval.     ....       1.095 sec  (  5.4% of XC)
    XC-Potential eval.      ....       0.285 sec  (  1.4% of XC)
Diagonalization             ....       1.026 sec  (  1.2%)
Density matrix formation    ....       0.062 sec  (  0.1%)
Population analysis         ....       0.406 sec  (  0.5%)
Initial guess               ....       0.152 sec  (  0.2%)
Orbital Transformation      ....       0.000 sec  (  0.0%)
Orbital Orthonormalization  ....       0.000 sec  (  0.0%)
DIIS solution               ....       3.730 sec  (  4.3%)
SOSCF solution              ....       0.799 sec  (  0.9%)
Grid generation             ....       4.742 sec  (  5.5%)

Maximum memory used throughout the entire SCF-calculation: 46.9 MB


-------------------------------------------------------------------------------
                          DFT DISPERSION CORRECTION                            
                                                                               
                              DFTD3 V3.1  Rev 1                                
                          USING Becke-Johnson damping                          
-------------------------------------------------------------------------------
The PBEh-3c composite method is recognized
Using three-body term ABC
Active option DFTDOPT                   ...         4   

molecular C6(AA) [au] = 1854.388396 


            DFT-D V3
 parameters
 s6 scaling factor         :     1.0000 
 a1 scaling factor         :     0.4860 
 s8 scaling factor         :     0.0000 
 a2 scaling factor         :     4.5000 
 Damping factor alpha9(ATM):    16.0000 
 ad hoc parameters k1-k3   :    16.0000     1.3333    -4.0000 

 Edisp/kcal,au: -0.902922252949  -0.001438898047 
 E6   /kcal   :  -0.901553004 
 E8   /kcal   :  -0.000000000 
 E6(ABC)      :  -0.001369249 
 % E8         :   0.000000000 
 % E6(ABC)    :   0.151646365 

-------------------------   ----------------
Dispersion correction           -0.001438898
-------------------------   ----------------

 ** NOTE ** -> element bi will be treated as as
NOTIFICATION: Different basis set in ORCA and otool_gcp:
ORCA: 66  gCP: 72 
If you are NOT using ECPs, check your basis set inputs!
------------------   -----------------
gCP correction             0.014255317
------------------   -----------------

-------------------------   --------------------
FINAL SINGLE POINT ENERGY     -2790.002806648390
-------------------------   --------------------


                            ***************************************
                            *     ORCA property calculations      *
                            ***************************************

                                    ---------------------
                                    Active property flags
                                    ---------------------
   (+) Dipole Moment


------------------------------------------------------------------------------
                       ORCA ELECTRIC PROPERTIES CALCULATION
------------------------------------------------------------------------------

Dipole Moment Calculation                       ... on
Quadrupole Moment Calculation                   ... off
Polarizability Calculation                      ... off
GBWName                                         ... pbeh-3c.gbw
Electron density                                ... pbeh-3c.scfp
The origin for moment calculation is the CENTER OF MASS  = (-0.000000,  0.000000 -0.082980)

-------------
DIPOLE MOMENT
-------------
                                X             Y             Z
Electronic contribution:      0.00003      -0.00000     136.52944
Nuclear contribution   :     -0.00000       0.00000    -137.22203
                        -----------------------------------------
Total Dipole Moment    :      0.00003      -0.00000      -0.69259
                        -----------------------------------------
Magnitude (a.u.)       :      0.69259
Magnitude (Debye)      :      1.76042



--------------------
Rotational spectrum 
--------------------
 
Rotational constants in cm-1:     2.697946     0.018307     0.018307 
Rotational constants in MHz : 80882.396458   548.823915   548.823915 

 Dipole components along the rotational axes: 
x,y,z [a.u.] :     0.692589     0.000027     0.000000 
x,y,z [Debye]:     1.760422     0.000068     0.000000 

 

Timings for individual modules:

Sum of individual times         ...       89.341 sec (=   1.489 min)
GTO integral calculation        ...        2.486 sec (=   0.041 min)   2.8 %
SCF iterations                  ...       86.855 sec (=   1.448 min)  97.2 %
                             ****ORCA TERMINATED NORMALLY****
TOTAL RUN TIME: 0 days 0 hours 1 minutes 32 seconds 748 msec
