
                                 *****************
                                 * O   R   C   A *
                                 *****************

                                            #,                                       
                                            ###                                      
                                            ####                                     
                                            #####                                    
                                            ######                                   
                                           ########,                                 
                                     ,,################,,,,,                         
                               ,,#################################,,                 
                          ,,##########################################,,             
                       ,#########################################, ''#####,          
                    ,#############################################,,   '####,        
                  ,##################################################,,,,####,       
                ,###########''''           ''''###############################       
              ,#####''   ,,,,##########,,,,          '''####'''          '####       
            ,##' ,,,,###########################,,,                        '##       
           ' ,,###''''                  '''############,,,                           
         ,,##''                                '''############,,,,        ,,,,,,###''
      ,#''                                            '''#######################'''  
     '                                                          ''''####''''         
             ,#######,   #######,   ,#######,      ##                                
            ,#'     '#,  ##    ##  ,#'     '#,    #''#        ######   ,####,        
            ##       ##  ##   ,#'  ##            #'  '#       #        #'  '#        
            ##       ##  #######   ##           ,######,      #####,   #    #        
            '#,     ,#'  ##    ##  '#,     ,#' ,#      #,         ##   #,  ,#        
             '#######'   ##     ##  '#######'  #'      '#     #####' # '####'        



                  #######################################################
                  #                        -***-                        #
                  #          Department of theory and spectroscopy      #
                  #    Directorship and core code : Frank Neese         #
                  #        Max Planck Institute fuer Kohlenforschung    #
                  #                Kaiser Wilhelm Platz 1               #
                  #                 D-45470 Muelheim/Ruhr               #
                  #                      Germany                        #
                  #                                                     #
                  #                  All rights reserved                #
                  #                        -***-                        #
                  #######################################################


                         Program Version 5.0.3 -  RELEASE  -


 With contributions from (in alphabetic order):
   Daniel Aravena         : Magnetic Suceptibility
   Michael Atanasov       : Ab Initio Ligand Field Theory (pilot matlab implementation)
   Alexander A. Auer      : GIAO ZORA, VPT2 properties, NMR spectrum
   Ute Becker             : Parallelization
   Giovanni Bistoni       : ED, misc. LED, open-shell LED, HFLD
   Martin Brehm           : Molecular dynamics
   Dmytro Bykov           : SCF Hessian
   Vijay G. Chilkuri      : MRCI spin determinant printing, contributions to CSF-ICE
   Dipayan Datta          : RHF DLPNO-CCSD density
   Achintya Kumar Dutta   : EOM-CC, STEOM-CC
   Dmitry Ganyushin       : Spin-Orbit,Spin-Spin,Magnetic field MRCI
   Miquel Garcia          : C-PCM and meta-GGA Hessian, CC/C-PCM, Gaussian charge scheme
   Yang Guo               : DLPNO-NEVPT2, F12-NEVPT2, CIM, IAO-localization
   Andreas Hansen         : Spin unrestricted coupled pair/coupled cluster methods
   Benjamin Helmich-Paris : MC-RPA, TRAH-SCF, COSX integrals
   Lee Huntington         : MR-EOM, pCC
   Robert Izsak           : Overlap fitted RIJCOSX, COSX-SCS-MP3, EOM
   Marcus Kettner         : VPT2
   Christian Kollmar      : KDIIS, OOCD, Brueckner-CCSD(T), CCSD density, CASPT2, CASPT2-K
   Simone Kossmann        : Meta GGA functionals, TD-DFT gradient, OOMP2, MP2 Hessian
   Martin Krupicka        : Initial AUTO-CI
   Lucas Lang             : DCDCAS
   Marvin Lechner         : AUTO-CI (C++ implementation), FIC-MRCC
   Dagmar Lenk            : GEPOL surface, SMD
   Dimitrios Liakos       : Extrapolation schemes; Compound Job, initial MDCI parallelization
   Dimitrios Manganas     : Further ROCIS development; embedding schemes
   Dimitrios Pantazis     : SARC Basis sets
   Anastasios Papadopoulos: AUTO-CI, single reference methods and gradients
   Taras Petrenko         : DFT Hessian,TD-DFT gradient, ASA, ECA, R-Raman, ABS, FL, XAS/XES, NRVS
   Peter Pinski           : DLPNO-MP2, DLPNO-MP2 Gradient
   Christoph Reimann      : Effective Core Potentials
   Marius Retegan         : Local ZFS, SOC
   Christoph Riplinger    : Optimizer, TS searches, QM/MM, DLPNO-CCSD(T), (RO)-DLPNO pert. Triples
   Tobias Risthaus        : Range-separated hybrids, TD-DFT gradient, RPA, STAB
   Michael Roemelt        : Original ROCIS implementation
   Masaaki Saitow         : Open-shell DLPNO-CCSD energy and density
   Barbara Sandhoefer     : DKH picture change effects
   Avijit Sen             : IP-ROCIS
   Kantharuban Sivalingam : CASSCF convergence, NEVPT2, FIC-MRCI
   Bernardo de Souza      : ESD, SOC TD-DFT
   Georgi Stoychev        : AutoAux, RI-MP2 NMR, DLPNO-MP2 response
   Willem Van den Heuvel  : Paramagnetic NMR
   Boris Wezisla          : Elementary symmetry handling
   Frank Wennmohs         : Technical directorship


 We gratefully acknowledge several colleagues who have allowed us to
 interface, adapt or use parts of their codes:
   Stefan Grimme, W. Hujo, H. Kruse, P. Pracht,  : VdW corrections, initial TS optimization,
                  C. Bannwarth, S. Ehlert          DFT functionals, gCP, sTDA/sTD-DF
   Ed Valeev, F. Pavosevic, A. Kumar             : LibInt (2-el integral package), F12 methods
   Garnet Chan, S. Sharma, J. Yang, R. Olivares  : DMRG
   Ulf Ekstrom                                   : XCFun DFT Library
   Mihaly Kallay                                 : mrcc  (arbitrary order and MRCC methods)
   Jiri Pittner, Ondrej Demel                    : Mk-CCSD
   Frank Weinhold                                : gennbo (NPA and NBO analysis)
   Christopher J. Cramer and Donald G. Truhlar   : smd solvation model
   Lars Goerigk                                  : TD-DFT with DH, B97 family of functionals
   V. Asgeirsson, H. Jonsson                     : NEB implementation
   FAccTs GmbH                                   : IRC, NEB, NEB-TS, DLPNO-Multilevel, CI-OPT
                                                   MM, QMMM, 2- and 3-layer-ONIOM, Crystal-QMMM,
                                                   LR-CPCM, SF, NACMEs, symmetry and pop. for TD-DFT,
                                                   nearIR, NL-DFT gradient (VV10), updates on ESD,
                                                   ML-optimized integration grids
   S Lehtola, MJT Oliveira, MAL Marques          : LibXC Library
   Liviu Ungur et al                             : ANISO software


 Your calculation uses the libint2 library for the computation of 2-el integrals
 For citations please refer to: http://libint.valeyev.net

 Your ORCA version has been built with support for libXC version: 5.1.0
 For citations please refer to: https://tddft.org/programs/libxc/

 This ORCA versions uses:
   CBLAS   interface :  Fast vector & matrix operations
   LAPACKE interface :  Fast linear algebra routines
   SCALAPACK package :  Parallel linear algebra routines
   Shared memory     :  Shared parallel matrices
   BLAS/LAPACK       :  OpenBLAS 0.3.15  USE64BITINT DYNAMIC_ARCH NO_AFFINITY Haswell SINGLE_THREADED
        Core in use  :  Haswell
   Copyright (c) 2011-2014, The OpenBLAS Project




***************************************
The coordinates will be read from file: pxylene.xyz
***************************************


Your calculation utilizes the geometrical counterpoise correction gCP
Please cite in your paper:
H.Kruse, S. Grimme J.Chem.Phys., 136, (2012), 154101 
   

Your calculation utilizes the atom-pairwise dispersion correction
with the Becke-Johnson damping scheme (D3BJ)
Cite in your paper:
S.Grimme, S.Ehrlich, L.Goerigk, J Comput Chem, (2011), 32, 1456–1465 
S.Grimme, J.Antony, S.Ehrlich and H.Krieg, J.Chem.Phys., 132, (2010), 154104 
   

Your calculation employs the composite approach PBEh-3c.
Please cite in your paper:
S. Grimme, J. G. Brandenburg, C. Bannwarth, A. Hansen J.Chem.Phys., 143, (2015), 054107 
   

================================================================================

----- Orbital basis set information -----
Your calculation utilizes the basis: def2-mSVP

----- AuxJ basis set information -----
Your calculation utilizes the auxiliary basis: def2/J
   F. Weigend, Phys. Chem. Chem. Phys. 8, 1057 (2006).

================================================================================
                                        WARNINGS
                       Please study these warnings very carefully!
================================================================================


INFO   : the flag for use of the SHARK integral package has been found!

================================================================================
                                       INPUT FILE
================================================================================
NAME = pbeh-3c.inp
|  1> ! PBEh-3c def2/J TightSCF DefGrid3
|  2> 
|  3> %maxcore 60000
|  4> 
|  5> %pal
|  6> nprocs 4
|  7> end
|  8> 
|  9> *xyzfile 0 1 pxylene.xyz
| 10> 
| 11>                          ****END OF INPUT****
================================================================================

                       ****************************
                       * Single Point Calculation *
                       ****************************

---------------------------------
CARTESIAN COORDINATES (ANGSTROEM)
---------------------------------
  C      0.000000    1.421761    0.006875
  C      0.000000    0.696642   -1.195452
  C      0.000000   -0.696642   -1.195452
  C      0.000000   -1.421761    0.006875
  C      0.000000   -0.699210    1.204565
  C      0.000000    0.699210    1.204565
  C      0.000000    2.928395   -0.000876
  C      0.000000   -2.928395   -0.000876
  H      0.000000    1.236154   -2.145392
  H      0.000000   -1.236154   -2.145392
  H      0.000000   -1.240217    2.153347
  H      0.000000    1.240217    2.153347
  H      0.000000    3.329708    1.021698
  H     -0.885590    3.323221   -0.522382
  H      0.885590    3.323221   -0.522382
  H      0.000000   -3.329708    1.021698
  H     -0.885590   -3.323221   -0.522382
  H      0.885590   -3.323221   -0.522382

----------------------------
CARTESIAN COORDINATES (A.U.)
----------------------------
  NO LB      ZA    FRAG     MASS         X           Y           Z
   0 C     6.0000    0    12.011    0.000000    2.686738    0.012991
   1 C     6.0000    0    12.011    0.000000    1.316462   -2.259077
   2 C     6.0000    0    12.011    0.000000   -1.316462   -2.259077
   3 C     6.0000    0    12.011    0.000000   -2.686738    0.012991
   4 C     6.0000    0    12.011    0.000000   -1.321316    2.276298
   5 C     6.0000    0    12.011    0.000000    1.321316    2.276298
   6 C     6.0000    0    12.011    0.000000    5.533865   -0.001655
   7 C     6.0000    0    12.011    0.000000   -5.533865   -0.001655
   8 H     1.0000    0     1.008    0.000000    2.335992   -4.054204
   9 H     1.0000    0     1.008    0.000000   -2.335992   -4.054204
  10 H     1.0000    0     1.008    0.000000   -2.343671    4.069235
  11 H     1.0000    0     1.008    0.000000    2.343671    4.069235
  12 H     1.0000    0     1.008    0.000000    6.292235    1.930729
  13 H     1.0000    0     1.008   -1.673523    6.279977   -0.987159
  14 H     1.0000    0     1.008    1.673523    6.279977   -0.987159
  15 H     1.0000    0     1.008    0.000000   -6.292235    1.930729
  16 H     1.0000    0     1.008   -1.673523   -6.279977   -0.987159
  17 H     1.0000    0     1.008    1.673523   -6.279977   -0.987159

--------------------------------
INTERNAL COORDINATES (ANGSTROEM)
--------------------------------
 C      0   0   0     0.000000000000     0.00000000     0.00000000
 C      1   0   0     1.404060950648     0.00000000     0.00000000
 C      2   1   0     1.393283400000   121.09402510     0.00000000
 C      3   2   1     1.404060950648   121.09402510     0.00000000
 C      4   3   2     1.398763956748   117.80396584     0.00000000
 C      5   4   3     1.398420800000   121.10200906     0.00000000
 C      1   2   3     1.506654634080   120.79929170   180.00000000
 C      4   3   2     1.506654634080   120.79929170   180.00000000
 H      2   1   3     1.092455893668   119.31186203   180.00000000
 H      3   2   1     1.092455893668   119.59411287   180.00000000
 H      5   4   3     1.092188389455   119.20567300   180.00000000
 H      6   5   4     1.092188389455   119.69231794   180.00000085
 H      7   1   2     1.098502823756   111.13294451   180.00000000
 H      7   1   2     1.100965817065   111.16463380    59.60503192
 H      7   1   2     1.100965817065   111.16463380   300.39496808
 H      8   4   3     1.098502823756   111.13294451   180.00000000
 H      8   4   3     1.100965817065   111.16463380   300.39496808
 H      8   4   3     1.100965817065   111.16463380    59.60503192

---------------------------
INTERNAL COORDINATES (A.U.)
---------------------------
 C      0   0   0     0.000000000000     0.00000000     0.00000000
 C      1   0   0     2.653290672058     0.00000000     0.00000000
 C      2   1   0     2.632924052939   121.09402510     0.00000000
 C      3   2   1     2.653290672058   121.09402510     0.00000000
 C      4   3   2     2.643280804253   117.80396584     0.00000000
 C      5   4   3     2.642632331979   121.10200906     0.00000000
 C      1   2   3     2.847164636814   120.79929170   180.00000000
 C      4   3   2     2.847164636814   120.79929170   180.00000000
 H      2   1   3     2.064442452421   119.31186203   180.00000000
 H      3   2   1     2.064442452421   119.59411287   180.00000000
 H      5   4   3     2.063936942718   119.20567300   180.00000000
 H      6   5   4     2.063936942718   119.69231794   180.00000085
 H      7   1   2     2.075869494239   111.13294451   180.00000000
 H      7   1   2     2.080523877062   111.16463380    59.60503192
 H      7   1   2     2.080523877062   111.16463380   300.39496808
 H      8   4   3     2.075869494239   111.13294451   180.00000000
 H      8   4   3     2.080523877062   111.16463380   300.39496808
 H      8   4   3     2.080523877062   111.16463380    59.60503192

---------------------
BASIS SET INFORMATION
---------------------
There are 2 groups of distinct atoms

 Group   1 Type C   : 8s4p1d contracted to 4s2p1d pattern {5111/31/1}
 Group   2 Type H   : 4s contracted to 2s pattern {31}

Atom   0C    basis set group =>   1
Atom   1C    basis set group =>   1
Atom   2C    basis set group =>   1
Atom   3C    basis set group =>   1
Atom   4C    basis set group =>   1
Atom   5C    basis set group =>   1
Atom   6C    basis set group =>   1
Atom   7C    basis set group =>   1
Atom   8H    basis set group =>   2
Atom   9H    basis set group =>   2
Atom  10H    basis set group =>   2
Atom  11H    basis set group =>   2
Atom  12H    basis set group =>   2
Atom  13H    basis set group =>   2
Atom  14H    basis set group =>   2
Atom  15H    basis set group =>   2
Atom  16H    basis set group =>   2
Atom  17H    basis set group =>   2
---------------------------------
AUXILIARY/J BASIS SET INFORMATION
---------------------------------
There are 2 groups of distinct atoms

 Group   1 Type C   : 12s5p4d2f1g contracted to 6s4p3d1f1g pattern {711111/2111/211/2/1}
 Group   2 Type H   : 5s2p1d contracted to 3s1p1d pattern {311/2/1}

Atom   0C    basis set group =>   1
Atom   1C    basis set group =>   1
Atom   2C    basis set group =>   1
Atom   3C    basis set group =>   1
Atom   4C    basis set group =>   1
Atom   5C    basis set group =>   1
Atom   6C    basis set group =>   1
Atom   7C    basis set group =>   1
Atom   8H    basis set group =>   2
Atom   9H    basis set group =>   2
Atom  10H    basis set group =>   2
Atom  11H    basis set group =>   2
Atom  12H    basis set group =>   2
Atom  13H    basis set group =>   2
Atom  14H    basis set group =>   2
Atom  15H    basis set group =>   2
Atom  16H    basis set group =>   2
Atom  17H    basis set group =>   2


           ************************************************************
           *        Program running with 4 parallel MPI-processes     *
           *              working on a common directory               *
           ************************************************************
------------------------------------------------------------------------------
                           ORCA GTO INTEGRAL CALCULATION
                           -- RI-GTO INTEGRALS CHOSEN --
------------------------------------------------------------------------------
------------------------------------------------------------------------------
                   ___                                                        
                  /   \      - P O W E R E D   B Y -                         
                 /     \                                                     
                 |  |  |   _    _      __       _____    __    __             
                 |  |  |  | |  | |    /  \     |  _  \  |  |  /  |          
                  \  \/   | |  | |   /    \    | | | |  |  | /  /          
                 / \  \   | |__| |  /  /\  \   | |_| |  |  |/  /          
                |  |  |   |  __  | /  /__\  \  |    /   |      \           
                |  |  |   | |  | | |   __   |  |    \   |  |\   \          
                \     /   | |  | | |  |  |  |  | |\  \  |  | \   \       
                 \___/    |_|  |_| |__|  |__|  |_| \__\ |__|  \__/        
                                                                              
                      - O R C A' S   B I G   F R I E N D -                    
                                      &                                       
                       - I N T E G R A L  F E E D E R -                       
                                                                              
 v1 FN, 2020, v2 2021                                                         
------------------------------------------------------------------------------


Reading SHARK input file pbeh-3c.SHARKINP.tmp ... ok
----------------------
SHARK INTEGRAL PACKAGE
----------------------

Number of atoms                             ...     18
Number of basis functions                   ...    140
Number of shells                            ...     76
Maximum angular momentum                    ...      2
Integral batch strategy                     ... SHARK/LIBINT Hybrid
RI-J (if used) integral strategy            ... SPLIT-RIJ (Revised 2003 algorithm where possible)
Printlevel                                  ...      1
Contraction scheme used                     ... SEGMENTED contraction
Coulomb Range Separation                    ... NOT USED
Exchange Range Separation                   ... NOT USED
Finite Nucleus Model                        ... NOT USED
Auxiliary Coulomb fitting basis             ... AVAILABLE
   # of basis functions in Aux-J            ...    502
   # of shells in Aux-J                     ...    170
   Maximum angular momentum in Aux-J        ...      4
Auxiliary J/K fitting basis                 ... NOT available
Auxiliary Correlation fitting basis         ... NOT available
Auxiliary 'external' fitting basis          ... NOT available
Integral threshold                          ...     2.500000e-11
Primitive cut-off                           ...     2.500000e-12
Primitive pair pre-selection threshold      ...     2.500000e-12

Calculating pre-screening integrals         ... done (  0.1 sec) Dimension = 76
Organizing shell pair data                  ... done (  0.8 sec)
Shell pair information
Total number of shell pairs                 ...      2926
Shell pairs after pre-screening             ...      2658
Total number of primitive shell pairs       ...     10574
Primitive shell pairs kept                  ...      6823
          la=0 lb=0:   1176 shell pairs
          la=1 lb=0:    812 shell pairs
          la=1 lb=1:    135 shell pairs
          la=2 lb=0:    374 shell pairs
          la=2 lb=1:    126 shell pairs
          la=2 lb=2:     35 shell pairs

Calculating one electron integrals          ... done (  0.0 sec)
Calculating RI/J V-Matrix + Cholesky decomp.... done (  0.6 sec)
Calculating Nuclear repulsion               ... done (  0.0 sec) ENN=    339.281478614450 Eh

SHARK setup successfully completed in   2.7 seconds

Maximum memory used throughout the entire GTOINT-calculation: 11.3 MB


           ************************************************************
           *        Program running with 4 parallel MPI-processes     *
           *              working on a common directory               *
           ************************************************************
-------------------------------------------------------------------------------
                                 ORCA SCF
-------------------------------------------------------------------------------

------------
SCF SETTINGS
------------
Hamiltonian:
 Density Functional     Method          .... DFT(GTOs)
 Exchange Functional    Exchange        .... PBE
   PBE kappa parameter   XKappa         ....  1.024500
   PBE mue parameter    XMuePBE         ....  0.123457
 Correlation Functional Correlation     .... PBE
   PBE beta parameter  CBetaPBE         ....  0.030000
 LDA part of GGA corr.  LDAOpt          .... PW91-LDA
 Gradients option       PostSCFGGA      .... off
 Hybrid DFT is turned on
   Fraction HF Exchange ScalHFX         ....  0.420000
   Scaling of DF-GGA-X  ScalDFX         ....  0.580000
   Scaling of DF-GGA-C  ScalDFC         ....  1.000000
   Scaling of DF-LDA-C  ScalLDAC        ....  1.000000
   Perturbative correction              ....  0.000000
   Density functional embedding theory  .... OFF
 RI-approximation to the Coulomb term is turned on
   Number of AuxJ basis functions       .... 502
   RIJ-ON(X) (HFX calculated with O(N)) .... on
   Number of AuxJ basis functions       .... 502
   RIJ-COSX (HFX calculated with COS-X)).... on


General Settings:
 Integral files         IntName         .... pbeh-3c
 Hartree-Fock type      HFTyp           .... RHF
 Total Charge           Charge          ....    0
 Multiplicity           Mult            ....    1
 Number of Electrons    NEL             ....   58
 Basis Dimension        Dim             ....  140
 Nuclear Repulsion      ENuc            ....    339.2814786145 Eh

Convergence Acceleration:
 DIIS                   CNVDIIS         .... on
   Start iteration      DIISMaxIt       ....    12
   Startup error        DIISStart       ....  0.200000
   # of expansion vecs  DIISMaxEq       ....     5
   Bias factor          DIISBfac        ....   1.050
   Max. coefficient     DIISMaxC        ....  10.000
 Trust-Rad. Augm. Hess. CNVTRAH         .... auto
   Auto Start mean grad. ratio tolernc. ....  1.125000
   Auto Start start iteration           ....    20
   Auto Start num. interpolation iter.  ....    10
   Max. Number of Micro iterations      ....    16
   Max. Number of Macro iterations      .... Maxiter - #DIIS iter
   Number of Davidson start vectors     ....     2
   Converg. threshold I  (grad. norm)   ....   1.000e-05
   Converg. threshold II (energy diff.) ....   1.000e-08
   Grad. Scal. Fac. for Micro threshold ....   0.100
   Minimum threshold for Micro iter.    ....   0.010
   NR start threshold (gradient norm)   ....   0.001
   Initial trust radius                 ....   0.400
   Minimum AH scaling param. (alpha)    ....   1.000
   Maximum AH scaling param. (alpha)    .... 1000.000
   Orbital update algorithm             .... Taylor
   White noise on init. David. guess    .... on
   Maximum white noise                  ....   0.010
   Quad. conv. algorithm                .... NR
   COSX micro iterations for RIJONX calc.... off
 SOSCF                  CNVSOSCF        .... on
   Start iteration      SOSCFMaxIt      ....   150
   Startup grad/error   SOSCFStart      ....  0.003300
 Level Shifting         CNVShift        .... on
   Level shift para.    LevelShift      ....    0.2500
   Turn off err/grad.   ShiftErr        ....    0.0010
 Zerner damping         CNVZerner       .... off
 Static damping         CNVDamp         .... on
   Fraction old density DampFac         ....    0.7000
   Max. Damping (<1)    DampMax         ....    0.9800
   Min. Damping (>=0)   DampMin         ....    0.0000
   Turn off err/grad.   DampErr         ....    0.1000
 Fernandez-Rico         CNVRico         .... off

SCF Procedure:
 Maximum # iterations   MaxIter         ....   125
 SCF integral mode      SCFMode         .... Direct
   Integral package                     .... SHARK and LIBINT hybrid scheme
 Reset frequency        DirectResetFreq ....    20
 Integral Threshold     Thresh          ....  2.500e-11 Eh
 Primitive CutOff       TCut            ....  2.500e-12 Eh

Convergence Tolerance:
 Convergence Check Mode ConvCheckMode   .... Total+1el-Energy
 Convergence forced     ConvForced      .... 0
 Energy Change          TolE            ....  1.000e-08 Eh
 1-El. energy change                    ....  1.000e-05 Eh
 Orbital Gradient       TolG            ....  1.000e-05
 Orbital Rotation angle TolX            ....  1.000e-05
 DIIS Error             TolErr          ....  5.000e-07


Diagonalization of the overlap matrix:
Smallest eigenvalue                        ... 4.231e-04
Time for diagonalization                   ...    0.004 sec
Threshold for overlap eigenvalues          ... 1.000e-08
Number of eigenvalues below threshold      ... 0
Time for construction of square roots      ...    0.111 sec
Total time needed                          ...    0.115 sec

--------------------------------
INITIAL GUESS: MINIMAL BASIS EHT
--------------------------------
The minimal basis has 50 functions
EHT matrix was diagonalized
Basis set overlap was calculated now projecting the orbitals
Using GuessMode=FMatrix for the initial guess
C*T matrix was formed
Effective Fockian was calculated
Effective Fockian was diagonalized
Initial density was built
                      ------------------
                      INITIAL GUESS DONE
                      ------------------
-------------------
DFT GRID GENERATION
-------------------

General Integration Accuracy     IntAcc      ... 4.959
Radial Grid Type                 RadialGrid  ... OptM3 with GC (2021)
Angular Grid (max. ang.)         AngularGrid ... 6 (Lebedev-590)
Angular grid pruning method      GridPruning ... 4 (adaptive)
Weight generation scheme         WeightScheme... Becke
Basis function cutoff            BFCut       ... 1.0000e-11
Integration weight cutoff        WCut        ... 1.0000e-14
Angular grids for H and He will be reduced by one unit
Partially contracted basis set               ... off
Rotationally invariant grid construction     ... off

Total number of grid points                  ...   201202
Total number of batches                      ...     3152
Average number of points per batch           ...       63
Average number of grid points per atom       ...    11178
Time for grid setup =    5.189 sec

--------------------
COSX GRID GENERATION
--------------------

GRIDX 1
-------
General Integration Accuracy     IntAcc      ... 4.020
Radial Grid Type                 RadialGrid  ... OptM3 with GC (2021)
Angular Grid (max. ang.)         AngularGrid ... 2 (Lebedev-110)
Angular grid pruning method      GridPruning ... 4 (adaptive)
Weight generation scheme         WeightScheme... Becke
Basis function cutoff            BFCut       ... 1.0000e-11
Integration weight cutoff        WCut        ... 1.0000e-14
Angular grids for H and He will be reduced by one unit
Partially contracted basis set               ... on
Rotationally invariant grid construction     ... off

Total number of grid points                  ...    21906
Total number of batches                      ...      348
Average number of points per batch           ...       62
Average number of grid points per atom       ...     1217
UseSFitting                                  ... on

GRIDX 2
-------
General Integration Accuracy     IntAcc      ... 4.338
Radial Grid Type                 RadialGrid  ... OptM3 with GC (2021)
Angular Grid (max. ang.)         AngularGrid ... 3 (Lebedev-194)
Angular grid pruning method      GridPruning ... 4 (adaptive)
Weight generation scheme         WeightScheme... Becke
Basis function cutoff            BFCut       ... 1.0000e-11
Integration weight cutoff        WCut        ... 1.0000e-14
Angular grids for H and He will be reduced by one unit
Partially contracted basis set               ... on
Rotationally invariant grid construction     ... off

Total number of grid points                  ...    48010
Total number of batches                      ...      758
Average number of points per batch           ...       63
Average number of grid points per atom       ...     2667
UseSFitting                                  ... on

GRIDX 3
-------
General Integration Accuracy     IntAcc      ... 4.871
Radial Grid Type                 RadialGrid  ... OptM3 with GC (2021)
Angular Grid (max. ang.)         AngularGrid ... 4 (Lebedev-302)
Angular grid pruning method      GridPruning ... 4 (adaptive)
Weight generation scheme         WeightScheme... Becke
Basis function cutoff            BFCut       ... 1.0000e-11
Integration weight cutoff        WCut        ... 1.0000e-14
Angular grids for H and He will be reduced by one unit
Partially contracted basis set               ... on
Rotationally invariant grid construction     ... off

Total number of grid points                  ...    93066
Total number of batches                      ...     1464
Average number of points per batch           ...       63
Average number of grid points per atom       ...     5170
UseSFitting                                  ... on

Time for X-Grid setup             =    4.734 sec

--------------
SCF ITERATIONS
--------------
ITER       Energy         Delta-E        Max-DP      RMS-DP      [F,P]     Damp
               ***  Starting incremental Fock matrix formation  ***
  0   -309.5103567375   0.000000000000 0.10971455  0.00392787  0.4007114 0.7000
  1   -309.7099304839  -0.199573746389 0.07892555  0.00289332  0.2822513 0.7000
                               ***Turning on DIIS***
  2   -309.8535094738  -0.143578989865 0.05709643  0.00213539  0.1992222 0.7000
  3   -309.9559113938  -0.102401920069 0.04295702  0.00167483  0.1405501 0.7000
  4   -310.0287087973  -0.072797403482 0.10442239  0.00416191  0.0984642 0.0000
                      *** Initiating the SOSCF procedure ***
                           *** Shutting down DIIS ***
                      *** Re-Reading the Fockian *** 
                      *** Removing any level shift *** 
ITER      Energy       Delta-E        Grad      Rot      Max-DP    RMS-DP
  5   -310.20298459  -0.1742757885  0.002194  0.002194  0.002961  0.000131
               *** Restarting incremental Fock matrix formation ***
  6   -310.20303720  -0.0000526139  0.000671  0.000763  0.001205  0.000058
  7   -310.20304631  -0.0000091112  0.000193  0.000431  0.000705  0.000025
  8   -310.20304702  -0.0000007084  0.000156  0.000193  0.000332  0.000011
  9   -310.20304758  -0.0000005603  0.000023  0.000067  0.000042  0.000002
 10   -310.20304758   0.0000000000  0.000021  0.000040  0.000021  0.000001
 11   -310.20304759  -0.0000000112  0.000005  0.000014  0.000008  0.000000
 12   -310.20304760  -0.0000000047  0.000003  0.000005  0.000004  0.000000
                  ***Gradient check signals convergence***
              ***Rediagonalizing the Fockian in SOSCF/NRSCF***

               *****************************************************
               *                     SUCCESS                       *
               *           SCF CONVERGED AFTER  13 CYCLES          *
               *****************************************************

Old exchange energy                            =    -18.881873865 Eh
New exchange energy                            =    -18.881854848 Eh
Exchange energy change after final integration =      0.000019018 Eh
Total energy after final integration           =   -310.203028576 Eh
Final COS-X integration done in                =     7.845 sec

----------------
TOTAL SCF ENERGY
----------------

Total Energy       :         -310.20302858 Eh           -8441.05354 eV

Components:
Nuclear Repulsion  :          339.28147861 Eh            9232.31840 eV
Electronic Energy  :         -649.48450719 Eh          -17673.37194 eV
One Electron Energy:        -1089.28923338 Eh          -29641.06696 eV
Two Electron Energy:          439.80472618 Eh           11967.69503 eV
Max COSX asymmetry :            0.00000049 Eh               0.00001 eV

Virial components:
Potential Energy   :         -617.62755431 Eh          -16806.50018 eV
Kinetic Energy     :          307.42452574 Eh            8365.44664 eV
Virial Ratio       :            2.00903800


DFT components:
N(Alpha)           :       29.000003571549 electrons
N(Beta)            :       29.000003571549 electrons
N(Total)           :       58.000007143097 electrons
E(X)               :      -25.052398231089 Eh       
E(C)               :       -2.481211690561 Eh       
E(XC)              :      -27.533609921650 Eh       
DFET-embed. en.    :        0.000000000000 Eh       

---------------
SCF CONVERGENCE
---------------

  Last Energy change         ...    1.4768e-09  Tolerance :   1.0000e-08
  Last MAX-Density change    ...    1.1102e-15  Tolerance :   1.0000e-07
  Last RMS-Density change    ...    3.3444e-17  Tolerance :   5.0000e-09
  Last Orbital Gradient      ...    3.6093e-07  Tolerance :   1.0000e-05
  Last Orbital Rotation      ...    1.5465e-06  Tolerance :   1.0000e-05

             **** THE GBW FILE WAS UPDATED (pbeh-3c.gbw) ****
             **** DENSITY pbeh-3c.scfp WAS UPDATED ****
             **** ENERGY FILE WAS UPDATED (pbeh-3c.en.tmp) ****
             **** THE GBW FILE WAS UPDATED (pbeh-3c.gbw) ****
             **** DENSITY pbeh-3c.scfp WAS UPDATED ****
----------------
ORBITAL ENERGIES
----------------

  NO   OCC          E(Eh)            E(eV) 
   0   2.0000     -10.452925      -284.4386 
   1   2.0000     -10.452878      -284.4373 
   2   2.0000     -10.443137      -284.1722 
   3   2.0000     -10.442729      -284.1611 
   4   2.0000     -10.442576      -284.1569 
   5   2.0000     -10.442192      -284.1465 
   6   2.0000     -10.435038      -283.9518 
   7   2.0000     -10.435026      -283.9515 
   8   2.0000      -0.952087       -25.9076 
   9   2.0000      -0.874629       -23.7999 
  10   2.0000      -0.827467       -22.5165 
  11   2.0000      -0.800953       -21.7950 
  12   2.0000      -0.731586       -19.9075 
  13   2.0000      -0.678855       -18.4726 
  14   2.0000      -0.641378       -17.4528 
  15   2.0000      -0.552093       -15.0232 
  16   2.0000      -0.530213       -14.4278 
  17   2.0000      -0.509312       -13.8591 
  18   2.0000      -0.476939       -12.9782 
  19   2.0000      -0.471168       -12.8211 
  20   2.0000      -0.467529       -12.7221 
  21   2.0000      -0.453208       -12.3324 
  22   2.0000      -0.449500       -12.2315 
  23   2.0000      -0.423721       -11.5300 
  24   2.0000      -0.391900       -10.6641 
  25   2.0000      -0.389564       -10.6006 
  26   2.0000      -0.383063       -10.4237 
  27   2.0000      -0.286593        -7.7986 
  28   2.0000      -0.268244        -7.2993 
  29   0.0000       0.021582         0.5873 
  30   0.0000       0.025747         0.7006 
  31   0.0000       0.142995         3.8911 
  32   0.0000       0.163837         4.4582 
  33   0.0000       0.176847         4.8123 
  34   0.0000       0.180377         4.9083 
  35   0.0000       0.187715         5.1080 
  36   0.0000       0.197387         5.3712 
  37   0.0000       0.221200         6.0192 
  38   0.0000       0.228317         6.2128 
  39   0.0000       0.235108         6.3976 
  40   0.0000       0.247405         6.7322 
  41   0.0000       0.250281         6.8105 
  42   0.0000       0.255999         6.9661 
  43   0.0000       0.273357         7.4384 
  44   0.0000       0.322948         8.7879 
  45   0.0000       0.353438         9.6175 
  46   0.0000       0.361820         9.8456 
  47   0.0000       0.383212        10.4277 
  48   0.0000       0.471246        12.8233 
  49   0.0000       0.498841        13.5741 
  50   0.0000       0.505567        13.7572 
  51   0.0000       0.511998        13.9322 
  52   0.0000       0.528084        14.3699 
  53   0.0000       0.568383        15.4665 
  54   0.0000       0.572683        15.5835 
  55   0.0000       0.593876        16.1602 
  56   0.0000       0.604671        16.4539 
  57   0.0000       0.627944        17.0872 
  58   0.0000       0.640894        17.4396 
  59   0.0000       0.642990        17.4966 
  60   0.0000       0.658162        17.9095 
  61   0.0000       0.658181        17.9100 
  62   0.0000       0.676950        18.4208 
  63   0.0000       0.702148        19.1064 
  64   0.0000       0.708538        19.2803 
  65   0.0000       0.715693        19.4750 
  66   0.0000       0.754872        20.5411 
  67   0.0000       0.777318        21.1519 
  68   0.0000       0.792946        21.5771 
  69   0.0000       0.795387        21.6436 
  70   0.0000       0.936425        25.4814 
  71   0.0000       0.964435        26.2436 
  72   0.0000       0.983149        26.7528 
  73   0.0000       1.000929        27.2367 
  74   0.0000       1.009956        27.4823 
  75   0.0000       1.013759        27.5858 
  76   0.0000       1.033342        28.1187 
  77   0.0000       1.045678        28.4543 
  78   0.0000       1.052984        28.6532 
  79   0.0000       1.070710        29.1355 
  80   0.0000       1.073807        29.2198 
  81   0.0000       1.073836        29.2206 
  82   0.0000       1.115266        30.3479 
  83   0.0000       1.130976        30.7754 
  84   0.0000       1.144818        31.1521 
  85   0.0000       1.194906        32.5150 
  86   0.0000       1.205330        32.7987 
  87   0.0000       1.280429        34.8423 
  88   0.0000       1.311798        35.6958 
  89   0.0000       1.329135        36.1676 
  90   0.0000       1.419729        38.6328 
  91   0.0000       1.420398        38.6510 
  92   0.0000       1.465302        39.8729 
  93   0.0000       1.487393        40.4740 
  94   0.0000       1.518785        41.3283 
  95   0.0000       1.543773        42.0082 
  96   0.0000       1.579010        42.9671 
  97   0.0000       1.591108        43.2962 
  98   0.0000       1.828528        49.7568 
  99   0.0000       1.845444        50.2171 
 100   0.0000       1.897925        51.6452 
 101   0.0000       1.914347        52.0920 
 102   0.0000       1.921323        52.2818 
 103   0.0000       1.931934        52.5706 
 104   0.0000       1.932482        52.5855 
 105   0.0000       1.980814        53.9007 
 106   0.0000       2.066684        56.2373 
 107   0.0000       2.092517        56.9403 
 108   0.0000       2.138980        58.2046 
 109   0.0000       2.182445        59.3873 
 110   0.0000       2.190827        59.6154 
 111   0.0000       2.211686        60.1830 
 112   0.0000       2.215553        60.2883 
 113   0.0000       2.274018        61.8792 
 114   0.0000       2.306071        62.7514 
 115   0.0000       2.375111        64.6301 
 116   0.0000       2.378770        64.7296 
 117   0.0000       2.382598        64.8338 
 118   0.0000       2.399071        65.2820 
 119   0.0000       2.415089        65.7179 
 120   0.0000       2.467613        67.1472 
 121   0.0000       2.515071        68.4386 
 122   0.0000       2.633486        71.6608 
 123   0.0000       2.657598        72.3169 
 124   0.0000       2.737018        74.4781 
 125   0.0000       2.781262        75.6820 
 126   0.0000       2.843219        77.3679 
 127   0.0000       2.874764        78.2263 
 128   0.0000       2.889788        78.6351 
 129   0.0000       2.924389        79.5767 
 130   0.0000       3.137900        85.3866 
 131   0.0000       3.468192        94.3743 
 132   0.0000      13.236753       360.1904 
 133   0.0000      13.625035       370.7560 
 134   0.0000      13.672184       372.0390 
 135   0.0000      13.828821       376.3013 
 136   0.0000      13.910789       378.5318 
 137   0.0000      14.138501       384.7282 
 138   0.0000      14.147553       384.9745 
 139   0.0000      14.535856       395.5407 

                    ********************************
                    * MULLIKEN POPULATION ANALYSIS *
                    ********************************

-----------------------
MULLIKEN ATOMIC CHARGES
-----------------------
   0 C :    0.108598
   1 C :   -0.249551
   2 C :   -0.249551
   3 C :    0.108597
   4 C :   -0.254372
   5 C :   -0.254372
   6 C :   -0.704206
   7 C :   -0.704206
   8 H :    0.207838
   9 H :    0.207838
  10 H :    0.206815
  11 H :    0.206815
  12 H :    0.224785
  13 H :    0.230047
  14 H :    0.230047
  15 H :    0.224785
  16 H :    0.230047
  17 H :    0.230047
Sum of atomic charges:    0.0000000

--------------------------------
MULLIKEN REDUCED ORBITAL CHARGES
--------------------------------
  0 C s       :     3.157285  s :     3.157285
      pz      :     0.871316  p :     2.688492
      px      :     0.963260
      py      :     0.853916
      dz2     :     0.011360  d :     0.045626
      dxz     :     0.006684
      dyz     :     0.015153
      dx2y2   :     0.006303
      dxy     :     0.006125
  1 C s       :     3.276870  s :     3.276870
      pz      :     1.003570  p :     2.933561
      px      :     1.003906
      py      :     0.926085
      dz2     :     0.010218  d :     0.039120
      dxz     :     0.003251
      dyz     :     0.014215
      dx2y2   :     0.005588
      dxy     :     0.005848
  2 C s       :     3.276871  s :     3.276871
      pz      :     1.003568  p :     2.933559
      px      :     1.003906
      py      :     0.926085
      dz2     :     0.010218  d :     0.039120
      dxz     :     0.003251
      dyz     :     0.014215
      dx2y2   :     0.005588
      dxy     :     0.005848
  3 C s       :     3.157285  s :     3.157285
      pz      :     0.871315  p :     2.688493
      px      :     0.963261
      py      :     0.853917
      dz2     :     0.011360  d :     0.045626
      dxz     :     0.006684
      dyz     :     0.015153
      dx2y2   :     0.006303
      dxy     :     0.006125
  4 C s       :     3.262309  s :     3.262309
      pz      :     1.005253  p :     2.952905
      px      :     1.007987
      py      :     0.939665
      dz2     :     0.010247  d :     0.039158
      dxz     :     0.003311
      dyz     :     0.014173
      dx2y2   :     0.005627
      dxy     :     0.005800
  5 C s       :     3.262309  s :     3.262309
      pz      :     1.005253  p :     2.952904
      px      :     1.007987
      py      :     0.939665
      dz2     :     0.010247  d :     0.039158
      dxz     :     0.003311
      dyz     :     0.014173
      dx2y2   :     0.005627
      dxy     :     0.005800
  6 C s       :     3.414848  s :     3.414848
      pz      :     1.156858  p :     3.252805
      px      :     1.140140
      py      :     0.955808
      dz2     :     0.007154  d :     0.036553
      dxz     :     0.006805
      dyz     :     0.006635
      dx2y2   :     0.008449
      dxy     :     0.007510
  7 C s       :     3.414847  s :     3.414847
      pz      :     1.156858  p :     3.252806
      px      :     1.140139
      py      :     0.955808
      dz2     :     0.007154  d :     0.036553
      dxz     :     0.006805
      dyz     :     0.006635
      dx2y2   :     0.008449
      dxy     :     0.007510
  8 H s       :     0.792162  s :     0.792162
  9 H s       :     0.792162  s :     0.792162
 10 H s       :     0.793185  s :     0.793185
 11 H s       :     0.793185  s :     0.793185
 12 H s       :     0.775215  s :     0.775215
 13 H s       :     0.769953  s :     0.769953
 14 H s       :     0.769953  s :     0.769953
 15 H s       :     0.775215  s :     0.775215
 16 H s       :     0.769953  s :     0.769953
 17 H s       :     0.769953  s :     0.769953


                     *******************************
                     * LOEWDIN POPULATION ANALYSIS *
                     *******************************

----------------------
LOEWDIN ATOMIC CHARGES
----------------------
   0 C :   -0.058565
   1 C :   -0.132444
   2 C :   -0.132444
   3 C :   -0.058565
   4 C :   -0.136720
   5 C :   -0.136720
   6 C :   -0.347129
   7 C :   -0.347129
   8 H :    0.133252
   9 H :    0.133252
  10 H :    0.132519
  11 H :    0.132519
  12 H :    0.133110
  13 H :    0.137988
  14 H :    0.137988
  15 H :    0.133110
  16 H :    0.137988
  17 H :    0.137988

-------------------------------
LOEWDIN REDUCED ORBITAL CHARGES
-------------------------------
  0 C s       :     2.853177  s :     2.853177
      pz      :     1.093892  p :     3.097223
      px      :     0.954227
      py      :     1.049103
      dz2     :     0.030992  d :     0.108165
      dxz     :     0.013659
      dyz     :     0.038030
      dx2y2   :     0.013849
      dxy     :     0.011635
  1 C s       :     2.893631  s :     2.893631
      pz      :     1.073215  p :     3.150495
      px      :     0.996948
      py      :     1.080332
      dz2     :     0.023011  d :     0.088318
      dxz     :     0.005790
      dyz     :     0.034578
      dx2y2   :     0.013143
      dxy     :     0.011796
  2 C s       :     2.893631  s :     2.893631
      pz      :     1.073215  p :     3.150495
      px      :     0.996948
      py      :     1.080332
      dz2     :     0.023011  d :     0.088318
      dxz     :     0.005790
      dyz     :     0.034578
      dx2y2   :     0.013143
      dxy     :     0.011796
  3 C s       :     2.853177  s :     2.853177
      pz      :     1.093892  p :     3.097223
      px      :     0.954227
      py      :     1.049103
      dz2     :     0.030992  d :     0.108165
      dxz     :     0.013659
      dyz     :     0.038030
      dx2y2   :     0.013849
      dxy     :     0.011635
  4 C s       :     2.893963  s :     2.893963
      pz      :     1.072951  p :     3.154315
      px      :     1.000733
      py      :     1.080631
      dz2     :     0.023223  d :     0.088443
      dxz     :     0.005877
      dyz     :     0.034343
      dx2y2   :     0.013178
      dxy     :     0.011821
  5 C s       :     2.893963  s :     2.893963
      pz      :     1.072951  p :     3.154315
      px      :     1.000733
      py      :     1.080630
      dz2     :     0.023223  d :     0.088443
      dxz     :     0.005877
      dyz     :     0.034343
      dx2y2   :     0.013178
      dxy     :     0.011821
  6 C s       :     2.947947  s :     2.947947
      pz      :     1.132400  p :     3.331183
      px      :     1.135299
      py      :     1.063485
      dz2     :     0.012799  d :     0.067998
      dxz     :     0.010778
      dyz     :     0.013281
      dx2y2   :     0.016786
      dxy     :     0.014354
  7 C s       :     2.947947  s :     2.947947
      pz      :     1.132400  p :     3.331184
      px      :     1.135299
      py      :     1.063485
      dz2     :     0.012799  d :     0.067998
      dxz     :     0.010778
      dyz     :     0.013281
      dx2y2   :     0.016786
      dxy     :     0.014354
  8 H s       :     0.866748  s :     0.866748
  9 H s       :     0.866748  s :     0.866748
 10 H s       :     0.867481  s :     0.867481
 11 H s       :     0.867481  s :     0.867481
 12 H s       :     0.866890  s :     0.866890
 13 H s       :     0.862012  s :     0.862012
 14 H s       :     0.862012  s :     0.862012
 15 H s       :     0.866890  s :     0.866890
 16 H s       :     0.862012  s :     0.862012
 17 H s       :     0.862012  s :     0.862012


                      *****************************
                      * MAYER POPULATION ANALYSIS *
                      *****************************

  NA   - Mulliken gross atomic population
  ZA   - Total nuclear charge
  QA   - Mulliken gross atomic charge
  VA   - Mayer's total valence
  BVA  - Mayer's bonded valence
  FA   - Mayer's free valence

  ATOM       NA         ZA         QA         VA         BVA        FA
  0 C      5.8914     6.0000     0.1086     3.7379     3.7379     0.0000
  1 C      6.2496     6.0000    -0.2496     3.8015     3.8015     0.0000
  2 C      6.2496     6.0000    -0.2496     3.8015     3.8015    -0.0000
  3 C      5.8914     6.0000     0.1086     3.7379     3.7379    -0.0000
  4 C      6.2544     6.0000    -0.2544     3.8473     3.8473    -0.0000
  5 C      6.2544     6.0000    -0.2544     3.8473     3.8473    -0.0000
  6 C      6.7042     6.0000    -0.7042     3.7046     3.7046     0.0000
  7 C      6.7042     6.0000    -0.7042     3.7046     3.7046     0.0000
  8 H      0.7922     1.0000     0.2078     0.9191     0.9191     0.0000
  9 H      0.7922     1.0000     0.2078     0.9191     0.9191     0.0000
 10 H      0.7932     1.0000     0.2068     0.9196     0.9196     0.0000
 11 H      0.7932     1.0000     0.2068     0.9196     0.9196     0.0000
 12 H      0.7752     1.0000     0.2248     0.9155     0.9155    -0.0000
 13 H      0.7700     1.0000     0.2300     0.9048     0.9048     0.0000
 14 H      0.7700     1.0000     0.2300     0.9048     0.9048     0.0000
 15 H      0.7752     1.0000     0.2248     0.9155     0.9155    -0.0000
 16 H      0.7700     1.0000     0.2300     0.9048     0.9048     0.0000
 17 H      0.7700     1.0000     0.2300     0.9048     0.9048    -0.0000

  Mayer bond orders larger than 0.100000
B(  0-C ,  1-C ) :   1.3682 B(  0-C ,  5-C ) :   1.4316 B(  0-C ,  6-C ) :   0.9541 
B(  1-C ,  2-C ) :   1.4520 B(  1-C ,  8-H ) :   0.9267 B(  2-C ,  3-C ) :   1.3682 
B(  2-C ,  9-H ) :   0.9267 B(  3-C ,  4-C ) :   1.4316 B(  3-C ,  7-C ) :   0.9541 
B(  4-C ,  5-C ) :   1.4190 B(  4-C , 10-H ) :   0.9208 B(  5-C , 11-H ) :   0.9208 
B(  6-C , 12-H ) :   0.9330 B(  6-C , 13-H ) :   0.9192 B(  6-C , 14-H ) :   0.9192 
B(  7-C , 15-H ) :   0.9330 B(  7-C , 16-H ) :   0.9192 B(  7-C , 17-H ) :   0.9192 


-------
TIMINGS
-------

Total SCF time: 0 days 0 hours 1 min 40 sec 

Total time                  ....     100.528 sec
Sum of individual times     ....      93.852 sec  ( 93.4%)

Fock matrix formation       ....      77.185 sec  ( 76.8%)
  Split-RI-J                ....       7.307 sec  (  9.5% of F)
  Chain of spheres X        ....      39.724 sec  ( 51.5% of F)
  XC integration            ....      18.650 sec  ( 24.2% of F)
    Basis function eval.    ....       4.779 sec  ( 25.6% of XC)
    Density eval.           ....       2.762 sec  ( 14.8% of XC)
    XC-Functional eval.     ....       1.791 sec  (  9.6% of XC)
    XC-Potential eval.      ....       1.632 sec  (  8.8% of XC)
Diagonalization             ....       1.858 sec  (  1.8%)
Density matrix formation    ....       0.322 sec  (  0.3%)
Population analysis         ....       0.371 sec  (  0.4%)
Initial guess               ....       0.159 sec  (  0.2%)
Orbital Transformation      ....       0.000 sec  (  0.0%)
Orbital Orthonormalization  ....       0.000 sec  (  0.0%)
DIIS solution               ....       2.798 sec  (  2.8%)
SOSCF solution              ....       1.236 sec  (  1.2%)
Grid generation             ....       9.923 sec  (  9.9%)

Maximum memory used throughout the entire SCF-calculation: 56.3 MB


-------------------------------------------------------------------------------
                          DFT DISPERSION CORRECTION                            
                                                                               
                              DFTD3 V3.1  Rev 1                                
                          USING Becke-Johnson damping                          
-------------------------------------------------------------------------------
The PBEh-3c composite method is recognized
Using three-body term ABC
Active option DFTDOPT                   ...         4   

molecular C6(AA) [au] = 3162.248800 


            DFT-D V3
 parameters
 s6 scaling factor         :     1.0000 
 a1 scaling factor         :     0.4860 
 s8 scaling factor         :     0.0000 
 a2 scaling factor         :     4.5000 
 Damping factor alpha9(ATM):    16.0000 
 ad hoc parameters k1-k3   :    16.0000     1.3333    -4.0000 

 Edisp/kcal,au: -5.995700818036  -0.009554756424 
 E6   /kcal   :  -6.005184428 
 E8   /kcal   :  -0.000000000 
 E6(ABC)      :   0.009483610 
 % E8         :   0.000000000 
 % E6(ABC)    :  -0.158173495 

-------------------------   ----------------
Dispersion correction           -0.009554756
-------------------------   ----------------

------------------   -----------------
gCP correction             0.021093927
------------------   -----------------

-------------------------   --------------------
FINAL SINGLE POINT ENERGY      -310.191489405978
-------------------------   --------------------


                            ***************************************
                            *     ORCA property calculations      *
                            ***************************************

                                    ---------------------
                                    Active property flags
                                    ---------------------
   (+) Dipole Moment


------------------------------------------------------------------------------
                       ORCA ELECTRIC PROPERTIES CALCULATION
------------------------------------------------------------------------------

Dipole Moment Calculation                       ... on
Quadrupole Moment Calculation                   ... off
Polarizability Calculation                      ... off
GBWName                                         ... pbeh-3c.gbw
Electron density                                ... pbeh-3c.scfp
The origin for moment calculation is the CENTER OF MASS  = ( 0.000000,  0.000000  0.005919)

-------------
DIPOLE MOMENT
-------------
                                X             Y             Z
Electronic contribution:     -0.00000      -0.00000       0.01394
Nuclear contribution   :      0.00000      -0.00000      -0.05774
                        -----------------------------------------
Total Dipole Moment    :     -0.00000      -0.00000      -0.04380
                        -----------------------------------------
Magnitude (a.u.)       :      0.04380
Magnitude (Debye)      :      0.11133



--------------------
Rotational spectrum 
--------------------
 
Rotational constants in cm-1:     0.178995     0.047596     0.038136 
Rotational constants in MHz :  5366.137224  1426.881266  1143.289793 

 Dipole components along the rotational axes: 
x,y,z [a.u.] :    -0.000000    -0.043799    -0.000000 
x,y,z [Debye]:    -0.000000    -0.111328    -0.000000 

 

Timings for individual modules:

Sum of individual times         ...      104.231 sec (=   1.737 min)
GTO integral calculation        ...        3.224 sec (=   0.054 min)   3.1 %
SCF iterations                  ...      101.007 sec (=   1.683 min)  96.9 %
                             ****ORCA TERMINATED NORMALLY****
TOTAL RUN TIME: 0 days 0 hours 1 minutes 46 seconds 146 msec
