
                                 *****************
                                 * O   R   C   A *
                                 *****************

                                            #,                                       
                                            ###                                      
                                            ####                                     
                                            #####                                    
                                            ######                                   
                                           ########,                                 
                                     ,,################,,,,,                         
                               ,,#################################,,                 
                          ,,##########################################,,             
                       ,#########################################, ''#####,          
                    ,#############################################,,   '####,        
                  ,##################################################,,,,####,       
                ,###########''''           ''''###############################       
              ,#####''   ,,,,##########,,,,          '''####'''          '####       
            ,##' ,,,,###########################,,,                        '##       
           ' ,,###''''                  '''############,,,                           
         ,,##''                                '''############,,,,        ,,,,,,###''
      ,#''                                            '''#######################'''  
     '                                                          ''''####''''         
             ,#######,   #######,   ,#######,      ##                                
            ,#'     '#,  ##    ##  ,#'     '#,    #''#        ######   ,####,        
            ##       ##  ##   ,#'  ##            #'  '#       #        #'  '#        
            ##       ##  #######   ##           ,######,      #####,   #    #        
            '#,     ,#'  ##    ##  '#,     ,#' ,#      #,         ##   #,  ,#        
             '#######'   ##     ##  '#######'  #'      '#     #####' # '####'        



                  #######################################################
                  #                        -***-                        #
                  #          Department of theory and spectroscopy      #
                  #    Directorship and core code : Frank Neese         #
                  #        Max Planck Institute fuer Kohlenforschung    #
                  #                Kaiser Wilhelm Platz 1               #
                  #                 D-45470 Muelheim/Ruhr               #
                  #                      Germany                        #
                  #                                                     #
                  #                  All rights reserved                #
                  #                        -***-                        #
                  #######################################################


                         Program Version 5.0.3 -  RELEASE  -


 With contributions from (in alphabetic order):
   Daniel Aravena         : Magnetic Suceptibility
   Michael Atanasov       : Ab Initio Ligand Field Theory (pilot matlab implementation)
   Alexander A. Auer      : GIAO ZORA, VPT2 properties, NMR spectrum
   Ute Becker             : Parallelization
   Giovanni Bistoni       : ED, misc. LED, open-shell LED, HFLD
   Martin Brehm           : Molecular dynamics
   Dmytro Bykov           : SCF Hessian
   Vijay G. Chilkuri      : MRCI spin determinant printing, contributions to CSF-ICE
   Dipayan Datta          : RHF DLPNO-CCSD density
   Achintya Kumar Dutta   : EOM-CC, STEOM-CC
   Dmitry Ganyushin       : Spin-Orbit,Spin-Spin,Magnetic field MRCI
   Miquel Garcia          : C-PCM and meta-GGA Hessian, CC/C-PCM, Gaussian charge scheme
   Yang Guo               : DLPNO-NEVPT2, F12-NEVPT2, CIM, IAO-localization
   Andreas Hansen         : Spin unrestricted coupled pair/coupled cluster methods
   Benjamin Helmich-Paris : MC-RPA, TRAH-SCF, COSX integrals
   Lee Huntington         : MR-EOM, pCC
   Robert Izsak           : Overlap fitted RIJCOSX, COSX-SCS-MP3, EOM
   Marcus Kettner         : VPT2
   Christian Kollmar      : KDIIS, OOCD, Brueckner-CCSD(T), CCSD density, CASPT2, CASPT2-K
   Simone Kossmann        : Meta GGA functionals, TD-DFT gradient, OOMP2, MP2 Hessian
   Martin Krupicka        : Initial AUTO-CI
   Lucas Lang             : DCDCAS
   Marvin Lechner         : AUTO-CI (C++ implementation), FIC-MRCC
   Dagmar Lenk            : GEPOL surface, SMD
   Dimitrios Liakos       : Extrapolation schemes; Compound Job, initial MDCI parallelization
   Dimitrios Manganas     : Further ROCIS development; embedding schemes
   Dimitrios Pantazis     : SARC Basis sets
   Anastasios Papadopoulos: AUTO-CI, single reference methods and gradients
   Taras Petrenko         : DFT Hessian,TD-DFT gradient, ASA, ECA, R-Raman, ABS, FL, XAS/XES, NRVS
   Peter Pinski           : DLPNO-MP2, DLPNO-MP2 Gradient
   Christoph Reimann      : Effective Core Potentials
   Marius Retegan         : Local ZFS, SOC
   Christoph Riplinger    : Optimizer, TS searches, QM/MM, DLPNO-CCSD(T), (RO)-DLPNO pert. Triples
   Tobias Risthaus        : Range-separated hybrids, TD-DFT gradient, RPA, STAB
   Michael Roemelt        : Original ROCIS implementation
   Masaaki Saitow         : Open-shell DLPNO-CCSD energy and density
   Barbara Sandhoefer     : DKH picture change effects
   Avijit Sen             : IP-ROCIS
   Kantharuban Sivalingam : CASSCF convergence, NEVPT2, FIC-MRCI
   Bernardo de Souza      : ESD, SOC TD-DFT
   Georgi Stoychev        : AutoAux, RI-MP2 NMR, DLPNO-MP2 response
   Willem Van den Heuvel  : Paramagnetic NMR
   Boris Wezisla          : Elementary symmetry handling
   Frank Wennmohs         : Technical directorship


 We gratefully acknowledge several colleagues who have allowed us to
 interface, adapt or use parts of their codes:
   Stefan Grimme, W. Hujo, H. Kruse, P. Pracht,  : VdW corrections, initial TS optimization,
                  C. Bannwarth, S. Ehlert          DFT functionals, gCP, sTDA/sTD-DF
   Ed Valeev, F. Pavosevic, A. Kumar             : LibInt (2-el integral package), F12 methods
   Garnet Chan, S. Sharma, J. Yang, R. Olivares  : DMRG
   Ulf Ekstrom                                   : XCFun DFT Library
   Mihaly Kallay                                 : mrcc  (arbitrary order and MRCC methods)
   Jiri Pittner, Ondrej Demel                    : Mk-CCSD
   Frank Weinhold                                : gennbo (NPA and NBO analysis)
   Christopher J. Cramer and Donald G. Truhlar   : smd solvation model
   Lars Goerigk                                  : TD-DFT with DH, B97 family of functionals
   V. Asgeirsson, H. Jonsson                     : NEB implementation
   FAccTs GmbH                                   : IRC, NEB, NEB-TS, DLPNO-Multilevel, CI-OPT
                                                   MM, QMMM, 2- and 3-layer-ONIOM, Crystal-QMMM,
                                                   LR-CPCM, SF, NACMEs, symmetry and pop. for TD-DFT,
                                                   nearIR, NL-DFT gradient (VV10), updates on ESD,
                                                   ML-optimized integration grids
   S Lehtola, MJT Oliveira, MAL Marques          : LibXC Library
   Liviu Ungur et al                             : ANISO software


 Your calculation uses the libint2 library for the computation of 2-el integrals
 For citations please refer to: http://libint.valeyev.net

 Your ORCA version has been built with support for libXC version: 5.1.0
 For citations please refer to: https://tddft.org/programs/libxc/

 This ORCA versions uses:
   CBLAS   interface :  Fast vector & matrix operations
   LAPACKE interface :  Fast linear algebra routines
   SCALAPACK package :  Parallel linear algebra routines
   Shared memory     :  Shared parallel matrices
   BLAS/LAPACK       :  OpenBLAS 0.3.15  USE64BITINT DYNAMIC_ARCH NO_AFFINITY Haswell SINGLE_THREADED
        Core in use  :  Haswell
   Copyright (c) 2011-2014, The OpenBLAS Project




***************************************
The coordinates will be read from file: cys.xyz
***************************************


Your calculation utilizes the geometrical counterpoise correction gCP
Please cite in your paper:
H.Kruse, S. Grimme J.Chem.Phys., 136, (2012), 154101 
   

Your calculation utilizes the atom-pairwise dispersion correction
with the Becke-Johnson damping scheme (D3BJ)
Cite in your paper:
S.Grimme, S.Ehrlich, L.Goerigk, J Comput Chem, (2011), 32, 1456–1465 
S.Grimme, J.Antony, S.Ehrlich and H.Krieg, J.Chem.Phys., 132, (2010), 154104 
   

Your calculation employs the composite approach PBEh-3c.
Please cite in your paper:
S. Grimme, J. G. Brandenburg, C. Bannwarth, A. Hansen J.Chem.Phys., 143, (2015), 054107 
   

================================================================================

----- Orbital basis set information -----
Your calculation utilizes the basis: def2-mSVP

----- AuxJ basis set information -----
Your calculation utilizes the auxiliary basis: def2/J
   F. Weigend, Phys. Chem. Chem. Phys. 8, 1057 (2006).

================================================================================
                                        WARNINGS
                       Please study these warnings very carefully!
================================================================================


INFO   : the flag for use of the SHARK integral package has been found!

================================================================================
                                       INPUT FILE
================================================================================
NAME = pbeh-3c.inp
|  1> ! PBEh-3c def2/J TightSCF DefGrid3
|  2> 
|  3> %maxcore 60000
|  4> 
|  5> %pal
|  6> nprocs 4
|  7> end
|  8> 
|  9> *xyzfile 0 1 cys.xyz
| 10> 
| 11>                          ****END OF INPUT****
================================================================================

                       ****************************
                       * Single Point Calculation *
                       ****************************

---------------------------------
CARTESIAN COORDINATES (ANGSTROEM)
---------------------------------
  C      0.280164    0.236380    0.472118
  H      0.732259    0.431317    1.452944
  C      1.186212   -0.804442   -0.187030
  O      2.017600   -0.297060   -1.066215
  H      1.789160    0.665162   -1.117936
  O      1.174237   -1.979319    0.079556
  N      0.351313    1.459024   -0.302360
  H     -0.389993    1.495566   -0.994916
  H      0.270829    2.280208    0.281382
  C     -1.120488   -0.310604    0.726071
  H     -1.091038   -1.210523    1.338583
  H     -1.700252    0.434196    1.272533
  S     -2.059256   -0.634179   -0.798363
  H     -1.440749   -1.765725   -1.156367

----------------------------
CARTESIAN COORDINATES (A.U.)
----------------------------
  NO LB      ZA    FRAG     MASS         X           Y           Z
   0 C     6.0000    0    12.011    0.529434    0.446693    0.892173
   1 H     1.0000    0     1.008    1.383770    0.815072    2.745667
   2 C     6.0000    0    12.011    2.241616   -1.520175   -0.353435
   3 O     8.0000    0    15.999    3.812711   -0.561361   -2.014854
   4 H     1.0000    0     1.008    3.381023    1.256974   -2.112593
   5 O     8.0000    0    15.999    2.218987   -3.740372    0.150339
   6 N     7.0000    0    14.007    0.663886    2.757155   -0.571379
   7 H     1.0000    0     1.008   -0.736981    2.826211   -1.880119
   8 H     1.0000    0     1.008    0.511793    4.308968    0.531735
   9 C     6.0000    0    12.011   -2.117416   -0.586957    1.372076
  10 H     1.0000    0     1.008   -2.061762   -2.287558    2.529555
  11 H     1.0000    0     1.008   -3.213010    0.820512    2.404740
  12 S    16.0000    0    32.060   -3.891429   -1.198425   -1.508688
  13 H     1.0000    0     1.008   -2.722621   -3.336736   -2.185218

--------------------------------
INTERNAL COORDINATES (ANGSTROEM)
--------------------------------
 C      0   0   0     0.000000000000     0.00000000     0.00000000
 H      1   0   0     1.097457109200     0.00000000     0.00000000
 C      1   2   0     1.529283654080   105.19102389     0.00000000
 O      3   1   2     1.312100798524   113.64252661   259.30560043
 H      4   3   1     0.990318102495   105.34066441   356.25096856
 O      3   1   2     1.204802018707   124.22404114    77.85906764
 N      1   2   3     1.449046493228   107.91305173   244.49538844
 H      7   1   2     1.015137343514   111.04806311   206.65049852
 H      7   1   2     1.010730848276   111.89651443   327.23159194
 C      1   2   3     1.524962676222   107.05239411   119.09720958
 H     10   1   2     1.088986790655   111.42237203   302.19170158
 H     10   1   2     1.090630554429   109.07120126    60.42708596
 S     10   1   2     1.819309324705   113.46532941   177.68842103
 H     13  10   1     1.338324407018    97.81938582    75.99484741

---------------------------
INTERNAL COORDINATES (A.U.)
---------------------------
 C      0   0   0     0.000000000000     0.00000000     0.00000000
 H      1   0   0     2.073893380112     0.00000000     0.00000000
 C      1   2   0     2.889927287293   105.19102389     0.00000000
 O      3   1   2     2.479511169311   113.64252661   259.30560043
 H      4   3   1     1.871429999180   105.34066441   356.25096856
 O      3   1   2     2.276745860952   124.22404114    77.85906764
 N      1   2   3     2.738301027520   107.91305173   244.49538844
 H      7   1   2     1.918331567557   111.04806311   206.65049852
 H      7   1   2     1.910004498347   111.89651443   327.23159194
 C      1   2   3     2.881761822511   107.05239411   119.09720958
 H     10   1   2     2.057886797796   111.42237203   302.19170158
 H     10   1   2     2.060993061158   109.07120126    60.42708596
 S     10   1   2     3.437996376583   113.46532941   177.68842103
 H     13  10   1     2.529066607607    97.81938582    75.99484741

---------------------
BASIS SET INFORMATION
---------------------
There are 5 groups of distinct atoms

 Group   1 Type C   : 8s4p1d contracted to 4s2p1d pattern {5111/31/1}
 Group   2 Type H   : 4s contracted to 2s pattern {31}
 Group   3 Type O   : 8s4p1d contracted to 4s2p1d pattern {5111/31/1}
 Group   4 Type N   : 8s4p1d contracted to 4s2p1d pattern {5111/31/1}
 Group   5 Type S   : 10s7p1d contracted to 4s3p1d pattern {5311/511/1}

Atom   0C    basis set group =>   1
Atom   1H    basis set group =>   2
Atom   2C    basis set group =>   1
Atom   3O    basis set group =>   3
Atom   4H    basis set group =>   2
Atom   5O    basis set group =>   3
Atom   6N    basis set group =>   4
Atom   7H    basis set group =>   2
Atom   8H    basis set group =>   2
Atom   9C    basis set group =>   1
Atom  10H    basis set group =>   2
Atom  11H    basis set group =>   2
Atom  12S    basis set group =>   5
Atom  13H    basis set group =>   2
---------------------------------
AUXILIARY/J BASIS SET INFORMATION
---------------------------------
There are 5 groups of distinct atoms

 Group   1 Type C   : 12s5p4d2f1g contracted to 6s4p3d1f1g pattern {711111/2111/211/2/1}
 Group   2 Type H   : 5s2p1d contracted to 3s1p1d pattern {311/2/1}
 Group   3 Type O   : 12s5p4d2f1g contracted to 6s4p3d1f1g pattern {711111/2111/211/2/1}
 Group   4 Type N   : 12s5p4d2f1g contracted to 6s4p3d1f1g pattern {711111/2111/211/2/1}
 Group   5 Type S   : 14s5p5d2f1g contracted to 8s4p3d1f1g pattern {71111111/2111/311/2/1}

Atom   0C    basis set group =>   1
Atom   1H    basis set group =>   2
Atom   2C    basis set group =>   1
Atom   3O    basis set group =>   3
Atom   4H    basis set group =>   2
Atom   5O    basis set group =>   3
Atom   6N    basis set group =>   4
Atom   7H    basis set group =>   2
Atom   8H    basis set group =>   2
Atom   9C    basis set group =>   1
Atom  10H    basis set group =>   2
Atom  11H    basis set group =>   2
Atom  12S    basis set group =>   5
Atom  13H    basis set group =>   2


           ************************************************************
           *        Program running with 4 parallel MPI-processes     *
           *              working on a common directory               *
           ************************************************************
------------------------------------------------------------------------------
                           ORCA GTO INTEGRAL CALCULATION
                           -- RI-GTO INTEGRALS CHOSEN --
------------------------------------------------------------------------------
------------------------------------------------------------------------------
                   ___                                                        
                  /   \      - P O W E R E D   B Y -                         
                 /     \                                                     
                 |  |  |   _    _      __       _____    __    __             
                 |  |  |  | |  | |    /  \     |  _  \  |  |  /  |          
                  \  \/   | |  | |   /    \    | | | |  |  | /  /          
                 / \  \   | |__| |  /  /\  \   | |_| |  |  |/  /          
                |  |  |   |  __  | /  /__\  \  |    /   |      \           
                |  |  |   | |  | | |   __   |  |    \   |  |\   \          
                \     /   | |  | | |  |  |  |  | |\  \  |  | \   \       
                 \___/    |_|  |_| |__|  |__|  |_| \__\ |__|  \__/        
                                                                              
                      - O R C A' S   B I G   F R I E N D -                    
                                      &                                       
                       - I N T E G R A L  F E E D E R -                       
                                                                              
 v1 FN, 2020, v2 2021                                                         
------------------------------------------------------------------------------


Reading SHARK input file pbeh-3c.SHARKINP.tmp ... ok
----------------------
SHARK INTEGRAL PACKAGE
----------------------

Number of atoms                             ...     14
Number of basis functions                   ...    122
Number of shells                            ...     64
Maximum angular momentum                    ...      2
Integral batch strategy                     ... SHARK/LIBINT Hybrid
RI-J (if used) integral strategy            ... SPLIT-RIJ (Revised 2003 algorithm where possible)
Printlevel                                  ...      1
Contraction scheme used                     ... SEGMENTED contraction
Coulomb Range Separation                    ... NOT USED
Exchange Range Separation                   ... NOT USED
Finite Nucleus Model                        ... NOT USED
Auxiliary Coulomb fitting basis             ... AVAILABLE
   # of basis functions in Aux-J            ...    422
   # of shells in Aux-J                     ...    142
   Maximum angular momentum in Aux-J        ...      4
Auxiliary J/K fitting basis                 ... NOT available
Auxiliary Correlation fitting basis         ... NOT available
Auxiliary 'external' fitting basis          ... NOT available
Integral threshold                          ...     2.500000e-11
Primitive cut-off                           ...     2.500000e-12
Primitive pair pre-selection threshold      ...     2.500000e-12

Calculating pre-screening integrals         ... done (  0.1 sec) Dimension = 64
Organizing shell pair data                  ... done (  0.4 sec)
Shell pair information
Total number of shell pairs                 ...      2080
Shell pairs after pre-screening             ...      1928
Total number of primitive shell pairs       ...      7872
Primitive shell pairs kept                  ...      5215
          la=0 lb=0:    798 shell pairs
          la=1 lb=0:    600 shell pairs
          la=1 lb=1:    118 shell pairs
          la=2 lb=0:    280 shell pairs
          la=2 lb=1:    104 shell pairs
          la=2 lb=2:     28 shell pairs

Calculating one electron integrals          ... done (  0.0 sec)
Calculating RI/J V-Matrix + Cholesky decomp.... done (  0.5 sec)
Calculating Nuclear repulsion               ... done (  0.0 sec) ENN=    387.307872242680 Eh

SHARK setup successfully completed in   2.1 seconds

Maximum memory used throughout the entire GTOINT-calculation: 10.7 MB


           ************************************************************
           *        Program running with 4 parallel MPI-processes     *
           *              working on a common directory               *
           ************************************************************
-------------------------------------------------------------------------------
                                 ORCA SCF
-------------------------------------------------------------------------------

------------
SCF SETTINGS
------------
Hamiltonian:
 Density Functional     Method          .... DFT(GTOs)
 Exchange Functional    Exchange        .... PBE
   PBE kappa parameter   XKappa         ....  1.024500
   PBE mue parameter    XMuePBE         ....  0.123457
 Correlation Functional Correlation     .... PBE
   PBE beta parameter  CBetaPBE         ....  0.030000
 LDA part of GGA corr.  LDAOpt          .... PW91-LDA
 Gradients option       PostSCFGGA      .... off
 Hybrid DFT is turned on
   Fraction HF Exchange ScalHFX         ....  0.420000
   Scaling of DF-GGA-X  ScalDFX         ....  0.580000
   Scaling of DF-GGA-C  ScalDFC         ....  1.000000
   Scaling of DF-LDA-C  ScalLDAC        ....  1.000000
   Perturbative correction              ....  0.000000
   Density functional embedding theory  .... OFF
 RI-approximation to the Coulomb term is turned on
   Number of AuxJ basis functions       .... 422
   RIJ-ON(X) (HFX calculated with O(N)) .... on
   Number of AuxJ basis functions       .... 422
   RIJ-COSX (HFX calculated with COS-X)).... on


General Settings:
 Integral files         IntName         .... pbeh-3c
 Hartree-Fock type      HFTyp           .... RHF
 Total Charge           Charge          ....    0
 Multiplicity           Mult            ....    1
 Number of Electrons    NEL             ....   64
 Basis Dimension        Dim             ....  122
 Nuclear Repulsion      ENuc            ....    387.3078722427 Eh

Convergence Acceleration:
 DIIS                   CNVDIIS         .... on
   Start iteration      DIISMaxIt       ....    12
   Startup error        DIISStart       ....  0.200000
   # of expansion vecs  DIISMaxEq       ....     5
   Bias factor          DIISBfac        ....   1.050
   Max. coefficient     DIISMaxC        ....  10.000
 Trust-Rad. Augm. Hess. CNVTRAH         .... auto
   Auto Start mean grad. ratio tolernc. ....  1.125000
   Auto Start start iteration           ....    20
   Auto Start num. interpolation iter.  ....    10
   Max. Number of Micro iterations      ....    16
   Max. Number of Macro iterations      .... Maxiter - #DIIS iter
   Number of Davidson start vectors     ....     2
   Converg. threshold I  (grad. norm)   ....   1.000e-05
   Converg. threshold II (energy diff.) ....   1.000e-08
   Grad. Scal. Fac. for Micro threshold ....   0.100
   Minimum threshold for Micro iter.    ....   0.010
   NR start threshold (gradient norm)   ....   0.001
   Initial trust radius                 ....   0.400
   Minimum AH scaling param. (alpha)    ....   1.000
   Maximum AH scaling param. (alpha)    .... 1000.000
   Orbital update algorithm             .... Taylor
   White noise on init. David. guess    .... on
   Maximum white noise                  ....   0.010
   Quad. conv. algorithm                .... NR
   COSX micro iterations for RIJONX calc.... off
 SOSCF                  CNVSOSCF        .... on
   Start iteration      SOSCFMaxIt      ....   150
   Startup grad/error   SOSCFStart      ....  0.003300
 Level Shifting         CNVShift        .... on
   Level shift para.    LevelShift      ....    0.2500
   Turn off err/grad.   ShiftErr        ....    0.0010
 Zerner damping         CNVZerner       .... off
 Static damping         CNVDamp         .... on
   Fraction old density DampFac         ....    0.7000
   Max. Damping (<1)    DampMax         ....    0.9800
   Min. Damping (>=0)   DampMin         ....    0.0000
   Turn off err/grad.   DampErr         ....    0.1000
 Fernandez-Rico         CNVRico         .... off

SCF Procedure:
 Maximum # iterations   MaxIter         ....   125
 SCF integral mode      SCFMode         .... Direct
   Integral package                     .... SHARK and LIBINT hybrid scheme
 Reset frequency        DirectResetFreq ....    20
 Integral Threshold     Thresh          ....  2.500e-11 Eh
 Primitive CutOff       TCut            ....  2.500e-12 Eh

Convergence Tolerance:
 Convergence Check Mode ConvCheckMode   .... Total+1el-Energy
 Convergence forced     ConvForced      .... 0
 Energy Change          TolE            ....  1.000e-08 Eh
 1-El. energy change                    ....  1.000e-05 Eh
 Orbital Gradient       TolG            ....  1.000e-05
 Orbital Rotation angle TolX            ....  1.000e-05
 DIIS Error             TolErr          ....  5.000e-07


Diagonalization of the overlap matrix:
Smallest eigenvalue                        ... 4.457e-03
Time for diagonalization                   ...    0.003 sec
Threshold for overlap eigenvalues          ... 1.000e-08
Number of eigenvalues below threshold      ... 0
Time for construction of square roots      ...    0.594 sec
Total time needed                          ...    0.704 sec

--------------------------------
INITIAL GUESS: MINIMAL BASIS EHT
--------------------------------
The minimal basis has 46 functions
EHT matrix was diagonalized
Basis set overlap was calculated now projecting the orbitals
Using GuessMode=FMatrix for the initial guess
C*T matrix was formed
Effective Fockian was calculated
Effective Fockian was diagonalized
Initial density was built
                      ------------------
                      INITIAL GUESS DONE
                      ------------------
-------------------
DFT GRID GENERATION
-------------------

General Integration Accuracy     IntAcc      ... 4.959
Radial Grid Type                 RadialGrid  ... OptM3 with GC (2021)
Angular Grid (max. ang.)         AngularGrid ... 6 (Lebedev-590)
Angular grid pruning method      GridPruning ... 4 (adaptive)
Weight generation scheme         WeightScheme... Becke
Basis function cutoff            BFCut       ... 1.0000e-11
Integration weight cutoff        WCut        ... 1.0000e-14
Angular grids for H and He will be reduced by one unit
Partially contracted basis set               ... off
Rotationally invariant grid construction     ... off

Total number of grid points                  ...   163160
Total number of batches                      ...     2555
Average number of points per batch           ...       63
Average number of grid points per atom       ...    11654
Time for grid setup =    3.722 sec

--------------------
COSX GRID GENERATION
--------------------

GRIDX 1
-------
General Integration Accuracy     IntAcc      ... 4.020
Radial Grid Type                 RadialGrid  ... OptM3 with GC (2021)
Angular Grid (max. ang.)         AngularGrid ... 2 (Lebedev-110)
Angular grid pruning method      GridPruning ... 4 (adaptive)
Weight generation scheme         WeightScheme... Becke
Basis function cutoff            BFCut       ... 1.0000e-11
Integration weight cutoff        WCut        ... 1.0000e-14
Angular grids for H and He will be reduced by one unit
Partially contracted basis set               ... on
Rotationally invariant grid construction     ... off

Total number of grid points                  ...    18184
Total number of batches                      ...      292
Average number of points per batch           ...       62
Average number of grid points per atom       ...     1299
UseSFitting                                  ... on

GRIDX 2
-------
General Integration Accuracy     IntAcc      ... 4.338
Radial Grid Type                 RadialGrid  ... OptM3 with GC (2021)
Angular Grid (max. ang.)         AngularGrid ... 3 (Lebedev-194)
Angular grid pruning method      GridPruning ... 4 (adaptive)
Weight generation scheme         WeightScheme... Becke
Basis function cutoff            BFCut       ... 1.0000e-11
Integration weight cutoff        WCut        ... 1.0000e-14
Angular grids for H and He will be reduced by one unit
Partially contracted basis set               ... on
Rotationally invariant grid construction     ... off

Total number of grid points                  ...    40466
Total number of batches                      ...      640
Average number of points per batch           ...       63
Average number of grid points per atom       ...     2890
UseSFitting                                  ... on

GRIDX 3
-------
General Integration Accuracy     IntAcc      ... 4.871
Radial Grid Type                 RadialGrid  ... OptM3 with GC (2021)
Angular Grid (max. ang.)         AngularGrid ... 4 (Lebedev-302)
Angular grid pruning method      GridPruning ... 4 (adaptive)
Weight generation scheme         WeightScheme... Becke
Basis function cutoff            BFCut       ... 1.0000e-11
Integration weight cutoff        WCut        ... 1.0000e-14
Angular grids for H and He will be reduced by one unit
Partially contracted basis set               ... on
Rotationally invariant grid construction     ... off

Total number of grid points                  ...    76889
Total number of batches                      ...     1207
Average number of points per batch           ...       63
Average number of grid points per atom       ...     5492
UseSFitting                                  ... on

Time for X-Grid setup             =    4.755 sec

--------------
SCF ITERATIONS
--------------
ITER       Energy         Delta-E        Max-DP      RMS-DP      [F,P]     Damp
               ***  Starting incremental Fock matrix formation  ***
  0   -719.4411721874   0.000000000000 0.19300579  0.00747944  0.5397452 0.7000
  1   -719.9435214474  -0.502349259981 0.10106604  0.00442159  0.2743865 0.7000
                               ***Turning on DIIS***
  2   -720.2055731564  -0.262051708944 0.06557069  0.00259924  0.1955882 0.7000
  3   -720.3865524109  -0.180979254523 0.04862366  0.00177889  0.1379718 0.7000
  4   -720.5158993456  -0.129346934773 0.14055116  0.00433761  0.0961236 0.0000
  5   -720.8254415511  -0.309542205481 0.01037700  0.00041562  0.0102433 0.0000
  6   -720.8258734039  -0.000431852801 0.00331167  0.00014064  0.0058988 0.0000
                      *** Initiating the SOSCF procedure ***
                           *** Shutting down DIIS ***
                      *** Re-Reading the Fockian *** 
                      *** Removing any level shift *** 
ITER      Energy       Delta-E        Grad      Rot      Max-DP    RMS-DP
  7   -720.82599693  -0.0001235255  0.000770  0.000770  0.003484  0.000119
               *** Restarting incremental Fock matrix formation ***
  8   -720.82600317  -0.0000062430  0.000396  0.000981  0.001340  0.000054
  9   -720.82600110   0.0000020675  0.000817  0.000824  0.000886  0.000025
 10   -720.82600632  -0.0000052188  0.000038  0.000074  0.000423  0.000009
 11   -720.82600634  -0.0000000193  0.000032  0.000032  0.000153  0.000004
 12   -720.82600641  -0.0000000635  0.000005  0.000009  0.000051  0.000001
 13   -720.82600641   0.0000000006  0.000005  0.000005  0.000026  0.000001
                  ***Gradient check signals convergence***
              ***Rediagonalizing the Fockian in SOSCF/NRSCF***

               *****************************************************
               *                     SUCCESS                       *
               *           SCF CONVERGED AFTER  14 CYCLES          *
               *****************************************************

Old exchange energy                            =    -27.794061810 Eh
New exchange energy                            =    -27.794054744 Eh
Exchange energy change after final integration =      0.000007066 Eh
Total energy after final integration           =   -720.825999341 Eh
Final COS-X integration done in                =     2.942 sec

----------------
TOTAL SCF ENERGY
----------------

Total Energy       :         -720.82599934 Eh          -19614.67263 eV

Components:
Nuclear Repulsion  :          387.30787224 Eh           10539.18301 eV
Electronic Energy  :        -1108.13387158 Eh          -30153.85564 eV
One Electron Energy:        -1759.69673152 Eh          -47883.78243 eV
Two Electron Energy:          651.56285994 Eh           17729.92679 eV
Max COSX asymmetry :            0.00000156 Eh               0.00004 eV

Virial components:
Potential Energy   :        -1438.92779035 Eh          -39155.21579 eV
Kinetic Energy     :          718.10179101 Eh           19540.54316 eV
Virial Ratio       :            2.00379362


DFT components:
N(Alpha)           :       32.000003231192 electrons
N(Beta)            :       32.000003231192 electrons
N(Total)           :       64.000006462383 electrons
E(X)               :      -37.029347087096 Eh       
E(C)               :       -2.956309032103 Eh       
E(XC)              :      -39.985656119199 Eh       
DFET-embed. en.    :        0.000000000000 Eh       

---------------
SCF CONVERGENCE
---------------

  Last Energy change         ...   -1.3474e-09  Tolerance :   1.0000e-08
  Last MAX-Density change    ...    3.5527e-15  Tolerance :   1.0000e-07
  Last RMS-Density change    ...    5.9607e-17  Tolerance :   5.0000e-09
  Last Orbital Gradient      ...    5.1340e-07  Tolerance :   1.0000e-05
  Last Orbital Rotation      ...    1.5453e-06  Tolerance :   1.0000e-05

             **** THE GBW FILE WAS UPDATED (pbeh-3c.gbw) ****
             **** DENSITY pbeh-3c.scfp WAS UPDATED ****
             **** ENERGY FILE WAS UPDATED (pbeh-3c.en.tmp) ****
             **** THE GBW FILE WAS UPDATED (pbeh-3c.gbw) ****
             **** DENSITY pbeh-3c.scfp WAS UPDATED ****
----------------
ORBITAL ENERGIES
----------------

  NO   OCC          E(Eh)            E(eV) 
   0   2.0000     -89.591138     -2437.8988 
   1   2.0000     -19.526187      -531.3346 
   2   2.0000     -19.470692      -529.8245 
   3   2.0000     -14.659417      -398.9030 
   4   2.0000     -10.570653      -287.6421 
   5   2.0000     -10.508239      -285.9437 
   6   2.0000     -10.491257      -285.4816 
   7   2.0000      -8.232063      -224.0058 
   8   2.0000      -6.123116      -166.6184 
   9   2.0000      -6.119833      -166.5291 
  10   2.0000      -6.114498      -166.3839 
  11   2.0000      -1.216549       -33.1040 
  12   2.0000      -1.119895       -30.4739 
  13   2.0000      -1.030944       -28.0534 
  14   2.0000      -0.896061       -24.3831 
  15   2.0000      -0.807574       -21.9752 
  16   2.0000      -0.722520       -19.6608 
  17   2.0000      -0.669033       -18.2053 
  18   2.0000      -0.622538       -16.9401 
  19   2.0000      -0.582584       -15.8529 
  20   2.0000      -0.554598       -15.0914 
  21   2.0000      -0.521874       -14.2009 
  22   2.0000      -0.513997       -13.9866 
  23   2.0000      -0.489673       -13.3247 
  24   2.0000      -0.477618       -12.9966 
  25   2.0000      -0.451544       -12.2871 
  26   2.0000      -0.422996       -11.5103 
  27   2.0000      -0.385951       -10.5023 
  28   2.0000      -0.362415        -9.8618 
  29   2.0000      -0.361043        -9.8245 
  30   2.0000      -0.315930        -8.5969 
  31   2.0000      -0.299575        -8.1518 
  32   0.0000       0.042889         1.1671 
  33   0.0000       0.067405         1.8342 
  34   0.0000       0.103171         2.8074 
  35   0.0000       0.114896         3.1265 
  36   0.0000       0.153551         4.1783 
  37   0.0000       0.173220         4.7136 
  38   0.0000       0.187098         5.0912 
  39   0.0000       0.200046         5.4435 
  40   0.0000       0.206098         5.6082 
  41   0.0000       0.236723         6.4416 
  42   0.0000       0.252149         6.8613 
  43   0.0000       0.297744         8.1020 
  44   0.0000       0.363645         9.8953 
  45   0.0000       0.416126        11.3234 
  46   0.0000       0.440604        11.9894 
  47   0.0000       0.496788        13.5183 
  48   0.0000       0.516224        14.0472 
  49   0.0000       0.535883        14.5821 
  50   0.0000       0.560882        15.2624 
  51   0.0000       0.593582        16.1522 
  52   0.0000       0.598827        16.2949 
  53   0.0000       0.626031        17.0352 
  54   0.0000       0.636005        17.3066 
  55   0.0000       0.665661        18.1136 
  56   0.0000       0.696174        18.9438 
  57   0.0000       0.717411        19.5217 
  58   0.0000       0.729319        19.8458 
  59   0.0000       0.759592        20.6695 
  60   0.0000       0.793707        21.5979 
  61   0.0000       0.824333        22.4312 
  62   0.0000       0.833209        22.6728 
  63   0.0000       0.847013        23.0484 
  64   0.0000       0.896052        24.3828 
  65   0.0000       0.900885        24.5143 
  66   0.0000       0.945279        25.7224 
  67   0.0000       0.956395        26.0248 
  68   0.0000       0.980452        26.6794 
  69   0.0000       1.002143        27.2697 
  70   0.0000       1.018368        27.7112 
  71   0.0000       1.040248        28.3066 
  72   0.0000       1.067633        29.0518 
  73   0.0000       1.084972        29.5236 
  74   0.0000       1.132994        30.8303 
  75   0.0000       1.141292        31.0561 
  76   0.0000       1.167632        31.7729 
  77   0.0000       1.180059        32.1110 
  78   0.0000       1.213793        33.0290 
  79   0.0000       1.240501        33.7558 
  80   0.0000       1.272732        34.6328 
  81   0.0000       1.384566        37.6760 
  82   0.0000       1.424966        38.7753 
  83   0.0000       1.472211        40.0609 
  84   0.0000       1.501214        40.8501 
  85   0.0000       1.547412        42.1072 
  86   0.0000       1.615820        43.9687 
  87   0.0000       1.704492        46.3816 
  88   0.0000       1.760716        47.9115 
  89   0.0000       1.777495        48.3681 
  90   0.0000       1.852404        50.4065 
  91   0.0000       1.861517        50.6545 
  92   0.0000       1.900918        51.7266 
  93   0.0000       1.943672        52.8900 
  94   0.0000       1.965485        53.4836 
  95   0.0000       2.011513        54.7360 
  96   0.0000       2.019296        54.9478 
  97   0.0000       2.050683        55.8019 
  98   0.0000       2.126825        57.8738 
  99   0.0000       2.156909        58.6925 
 100   0.0000       2.166795        58.9615 
 101   0.0000       2.186918        59.5091 
 102   0.0000       2.223459        60.5034 
 103   0.0000       2.339829        63.6700 
 104   0.0000       2.393105        65.1197 
 105   0.0000       2.459314        66.9213 
 106   0.0000       2.469777        67.2061 
 107   0.0000       2.585989        70.3683 
 108   0.0000       2.604365        70.8684 
 109   0.0000       2.665236        72.5248 
 110   0.0000       2.702048        73.5265 
 111   0.0000       2.774904        75.5090 
 112   0.0000       2.840852        77.3035 
 113   0.0000       2.944597        80.1266 
 114   0.0000       3.085817        83.9694 
 115   0.0000       3.215032        87.4855 
 116   0.0000      13.618583       370.5805 
 117   0.0000      13.916909       378.6983 
 118   0.0000      14.085775       383.2934 
 119   0.0000      19.154392       521.2175 
 120   0.0000      25.581357       696.1041 
 121   0.0000      25.824645       702.7243 

                    ********************************
                    * MULLIKEN POPULATION ANALYSIS *
                    ********************************

-----------------------
MULLIKEN ATOMIC CHARGES
-----------------------
   0 C :   -0.232038
   1 H :    0.272906
   2 C :    0.542950
   3 O :   -0.559249
   4 H :    0.461585
   5 O :   -0.396735
   6 N :   -0.804185
   7 H :    0.359445
   8 H :    0.349517
   9 C :   -0.567424
  10 H :    0.293854
  11 H :    0.261215
  12 S :   -0.197319
  13 H :    0.215479
Sum of atomic charges:   -0.0000000

--------------------------------
MULLIKEN REDUCED ORBITAL CHARGES
--------------------------------
  0 C s       :     3.266224  s :     3.266224
      pz      :     1.074715  p :     2.903631
      px      :     0.971352
      py      :     0.857563
      dz2     :     0.009583  d :     0.062183
      dxz     :     0.011119
      dyz     :     0.013645
      dx2y2   :     0.012036
      dxy     :     0.015800
  1 H s       :     0.727094  s :     0.727094
  2 C s       :     2.946823  s :     2.946823
      pz      :     0.751772  p :     2.369082
      px      :     0.782553
      py      :     0.834758
      dz2     :     0.021953  d :     0.141145
      dxz     :     0.014561
      dyz     :     0.036848
      dx2y2   :     0.026553
      dxy     :     0.041230
  3 O s       :     3.788958  s :     3.788958
      pz      :     1.623019  p :     4.738053
      px      :     1.652450
      py      :     1.462584
      dz2     :     0.007945  d :     0.032238
      dxz     :     0.007334
      dyz     :     0.002058
      dx2y2   :     0.009469
      dxy     :     0.005432
  4 H s       :     0.538415  s :     0.538415
  5 O s       :     3.753543  s :     3.753543
      pz      :     1.589266  p :     4.612687
      px      :     1.634541
      py      :     1.388881
      dz2     :     0.003298  d :     0.030505
      dxz     :     0.000464
      dyz     :     0.009670
      dx2y2   :     0.008237
      dxy     :     0.008836
  6 N s       :     3.618331  s :     3.618331
      pz      :     1.331362  p :     4.152060
      px      :     1.653099
      py      :     1.167599
      dz2     :     0.002086  d :     0.033794
      dxz     :     0.008589
      dyz     :     0.011527
      dx2y2   :     0.008338
      dxy     :     0.003254
  7 H s       :     0.640555  s :     0.640555
  8 H s       :     0.650483  s :     0.650483
  9 C s       :     3.392696  s :     3.392696
      pz      :     0.996803  p :     3.130978
      px      :     0.949246
      py      :     1.184929
      dz2     :     0.006400  d :     0.043750
      dxz     :     0.009735
      dyz     :     0.010742
      dx2y2   :     0.008059
      dxy     :     0.008813
 10 H s       :     0.706146  s :     0.706146
 11 H s       :     0.738785  s :     0.738785
 12 S s       :     5.868169  s :     5.868169
      pz      :     3.247135  p :    10.250734
      px      :     3.611832
      py      :     3.391766
      dz2     :     0.017085  d :     0.078417
      dxz     :     0.021074
      dyz     :     0.010242
      dx2y2   :     0.010472
      dxy     :     0.019545
 13 H s       :     0.784521  s :     0.784521


                     *******************************
                     * LOEWDIN POPULATION ANALYSIS *
                     *******************************

----------------------
LOEWDIN ATOMIC CHARGES
----------------------
   0 C :   -0.153306
   1 H :    0.152438
   2 C :    0.097987
   3 O :   -0.274503
   4 H :    0.332094
   5 O :   -0.229800
   6 N :   -0.456641
   7 H :    0.240136
   8 H :    0.240553
   9 C :   -0.344475
  10 H :    0.157031
  11 H :    0.140569
  12 S :   -0.022038
  13 H :    0.119957

-------------------------------
LOEWDIN REDUCED ORBITAL CHARGES
-------------------------------
  0 C s       :     2.885577  s :     2.885577
      pz      :     1.068934  p :     3.130062
      px      :     1.076144
      py      :     0.984984
      dz2     :     0.019526  d :     0.137668
      dxz     :     0.021035
      dyz     :     0.031146
      dx2y2   :     0.028013
      dxy     :     0.037948
  1 H s       :     0.847562  s :     0.847562
  2 C s       :     2.836375  s :     2.836375
      pz      :     0.845542  p :     2.745254
      px      :     0.867827
      py      :     1.031885
      dz2     :     0.048006  d :     0.320384
      dxz     :     0.033774
      dyz     :     0.085039
      dx2y2   :     0.058397
      dxy     :     0.095167
  3 O s       :     3.484021  s :     3.484021
      pz      :     1.631765  p :     4.732211
      px      :     1.662338
      py      :     1.438108
      dz2     :     0.011808  d :     0.058271
      dxz     :     0.014917
      dyz     :     0.005815
      dx2y2   :     0.016549
      dxy     :     0.009182
  4 H s       :     0.667906  s :     0.667906
  5 O s       :     3.512370  s :     3.512370
      pz      :     1.569450  p :     4.660573
      px      :     1.613516
      py      :     1.477607
      dz2     :     0.007174  d :     0.056858
      dxz     :     0.000899
      dyz     :     0.015353
      dx2y2   :     0.019628
      dxy     :     0.013805
  6 N s       :     3.224895  s :     3.224895
      pz      :     1.343586  p :     4.168417
      px      :     1.623048
      py      :     1.201783
      dz2     :     0.005652  d :     0.063329
      dxz     :     0.013522
      dyz     :     0.022070
      dx2y2   :     0.015784
      dxy     :     0.006300
  7 H s       :     0.759864  s :     0.759864
  8 H s       :     0.759447  s :     0.759447
  9 C s       :     2.971835  s :     2.971835
      pz      :     1.061676  p :     3.284915
      px      :     1.068232
      py      :     1.155006
      dz2     :     0.014178  d :     0.087725
      dxz     :     0.020633
      dyz     :     0.018337
      dx2y2   :     0.016948
      dxy     :     0.017629
 10 H s       :     0.842969  s :     0.842969
 11 H s       :     0.859431  s :     0.859431
 12 S s       :     5.643301  s :     5.643301
      pz      :     3.303223  p :    10.286923
      px      :     3.609358
      py      :     3.374342
      dz2     :     0.020396  d :     0.091815
      dxz     :     0.026353
      dyz     :     0.013210
      dx2y2   :     0.011837
      dxy     :     0.020018
 13 H s       :     0.880043  s :     0.880043


                      *****************************
                      * MAYER POPULATION ANALYSIS *
                      *****************************

  NA   - Mulliken gross atomic population
  ZA   - Total nuclear charge
  QA   - Mulliken gross atomic charge
  VA   - Mayer's total valence
  BVA  - Mayer's bonded valence
  FA   - Mayer's free valence

  ATOM       NA         ZA         QA         VA         BVA        FA
  0 C      6.2320     6.0000    -0.2320     3.6807     3.6807    -0.0000
  1 H      0.7271     1.0000     0.2729     0.8802     0.8802    -0.0000
  2 C      5.4570     6.0000     0.5430     4.1245     4.1245    -0.0000
  3 O      8.5592     8.0000    -0.5592     2.0453     2.0453    -0.0000
  4 H      0.5384     1.0000     0.4616     0.7936     0.7936     0.0000
  5 O      8.3967     8.0000    -0.3967     2.2031     2.2031    -0.0000
  6 N      7.8042     7.0000    -0.8042     2.7884     2.7884    -0.0000
  7 H      0.6406     1.0000     0.3594     0.8521     0.8521    -0.0000
  8 H      0.6505     1.0000     0.3495     0.8484     0.8484    -0.0000
  9 C      6.5674     6.0000    -0.5674     3.7127     3.7127    -0.0000
 10 H      0.7061     1.0000     0.2939     0.8781     0.8781    -0.0000
 11 H      0.7388     1.0000     0.2612     0.8872     0.8872    -0.0000
 12 S     16.1973    16.0000    -0.1973     2.0019     2.0019    -0.0000
 13 H      0.7845     1.0000     0.2155     0.9258     0.9258     0.0000

  Mayer bond orders larger than 0.100000
B(  0-C ,  1-H ) :   0.8825 B(  0-C ,  2-C ) :   0.8989 B(  0-C ,  6-N ) :   0.9984 
B(  0-C ,  9-C ) :   0.9201 B(  2-C ,  3-O ) :   1.2324 B(  2-C ,  5-O ) :   2.0346 
B(  3-O ,  4-H ) :   0.6731 B(  4-H ,  6-N ) :   0.1173 B(  6-N ,  7-H ) :   0.8212 
B(  6-N ,  8-H ) :   0.8481 B(  9-C , 10-H ) :   0.8718 B(  9-C , 11-H ) :   0.8952 
B(  9-C , 12-S ) :   1.0451 B( 12-S , 13-H ) :   0.9068 

-------
TIMINGS
-------

Total SCF time: 0 days 0 hours 1 min 34 sec 

Total time                  ....      94.925 sec
Sum of individual times     ....      85.816 sec  ( 90.4%)

Fock matrix formation       ....      70.189 sec  ( 73.9%)
  Split-RI-J                ....       7.397 sec  ( 10.5% of F)
  Chain of spheres X        ....      26.047 sec  ( 37.1% of F)
  XC integration            ....      19.430 sec  ( 27.7% of F)
    Basis function eval.    ....       3.840 sec  ( 19.8% of XC)
    Density eval.           ....       2.205 sec  ( 11.3% of XC)
    XC-Functional eval.     ....       1.568 sec  (  8.1% of XC)
    XC-Potential eval.      ....       1.395 sec  (  7.2% of XC)
Diagonalization             ....       0.966 sec  (  1.0%)
Density matrix formation    ....       0.071 sec  (  0.1%)
Population analysis         ....       0.849 sec  (  0.9%)
Initial guess               ....       0.043 sec  (  0.0%)
Orbital Transformation      ....       0.000 sec  (  0.0%)
Orbital Orthonormalization  ....       0.000 sec  (  0.0%)
DIIS solution               ....       3.776 sec  (  4.0%)
SOSCF solution              ....       1.444 sec  (  1.5%)
Grid generation             ....       8.477 sec  (  8.9%)

Maximum memory used throughout the entire SCF-calculation: 53.1 MB


-------------------------------------------------------------------------------
                          DFT DISPERSION CORRECTION                            
                                                                               
                              DFTD3 V3.1  Rev 1                                
                          USING Becke-Johnson damping                          
-------------------------------------------------------------------------------
The PBEh-3c composite method is recognized
Using three-body term ABC
Active option DFTDOPT                   ...         4   

molecular C6(AA) [au] = 2263.514428 


            DFT-D V3
 parameters
 s6 scaling factor         :     1.0000 
 a1 scaling factor         :     0.4860 
 s8 scaling factor         :     0.0000 
 a2 scaling factor         :     4.5000 
 Damping factor alpha9(ATM):    16.0000 
 ad hoc parameters k1-k3   :    16.0000     1.3333    -4.0000 

 Edisp/kcal,au: -4.712917418926  -0.007510511173 
 E6   /kcal   :  -4.742177172 
 E8   /kcal   :  -0.000000000 
 E6(ABC)      :   0.029259753 
 % E8         :   0.000000000 
 % E6(ABC)    :  -0.620841630 

-------------------------   ----------------
Dispersion correction           -0.007510511
-------------------------   ----------------

------------------   -----------------
gCP correction             0.030204730
------------------   -----------------

-------------------------   --------------------
FINAL SINGLE POINT ENERGY      -720.803305122904
-------------------------   --------------------


                            ***************************************
                            *     ORCA property calculations      *
                            ***************************************

                                    ---------------------
                                    Active property flags
                                    ---------------------
   (+) Dipole Moment


------------------------------------------------------------------------------
                       ORCA ELECTRIC PROPERTIES CALCULATION
------------------------------------------------------------------------------

Dipole Moment Calculation                       ... on
Quadrupole Moment Calculation                   ... off
Polarizability Calculation                      ... off
GBWName                                         ... pbeh-3c.gbw
Electron density                                ... pbeh-3c.scfp
The origin for moment calculation is the CENTER OF MASS  = (-0.120456, -0.694408 -0.505154)

-------------
DIPOLE MOMENT
-------------
                                X             Y             Z
Electronic contribution:      0.56302      -2.90819      -2.13455
Nuclear contribution   :     -1.18890       4.59435       2.77371
                        -----------------------------------------
Total Dipole Moment    :     -0.62588       1.68617       0.63916
                        -----------------------------------------
Magnitude (a.u.)       :      1.90877
Magnitude (Debye)      :      4.85170



--------------------
Rotational spectrum 
--------------------
 
Rotational constants in cm-1:     0.103461     0.053088     0.044299 
Rotational constants in MHz :  3101.676278  1591.547010  1328.039931 

 Dipole components along the rotational axes: 
x,y,z [a.u.] :    -0.642585    -1.688520     0.615942 
x,y,z [Debye]:    -1.633322    -4.291876     1.565599 

 

Timings for individual modules:

Sum of individual times         ...       99.731 sec (=   1.662 min)
GTO integral calculation        ...        3.219 sec (=   0.054 min)   3.2 %
SCF iterations                  ...       96.513 sec (=   1.609 min)  96.8 %
                             ****ORCA TERMINATED NORMALLY****
TOTAL RUN TIME: 0 days 0 hours 1 minutes 42 seconds 945 msec
