
                                 *****************
                                 * O   R   C   A *
                                 *****************

                                            #,                                       
                                            ###                                      
                                            ####                                     
                                            #####                                    
                                            ######                                   
                                           ########,                                 
                                     ,,################,,,,,                         
                               ,,#################################,,                 
                          ,,##########################################,,             
                       ,#########################################, ''#####,          
                    ,#############################################,,   '####,        
                  ,##################################################,,,,####,       
                ,###########''''           ''''###############################       
              ,#####''   ,,,,##########,,,,          '''####'''          '####       
            ,##' ,,,,###########################,,,                        '##       
           ' ,,###''''                  '''############,,,                           
         ,,##''                                '''############,,,,        ,,,,,,###''
      ,#''                                            '''#######################'''  
     '                                                          ''''####''''         
             ,#######,   #######,   ,#######,      ##                                
            ,#'     '#,  ##    ##  ,#'     '#,    #''#        ######   ,####,        
            ##       ##  ##   ,#'  ##            #'  '#       #        #'  '#        
            ##       ##  #######   ##           ,######,      #####,   #    #        
            '#,     ,#'  ##    ##  '#,     ,#' ,#      #,         ##   #,  ,#        
             '#######'   ##     ##  '#######'  #'      '#     #####' # '####'        



                  #######################################################
                  #                        -***-                        #
                  #          Department of theory and spectroscopy      #
                  #    Directorship and core code : Frank Neese         #
                  #        Max Planck Institute fuer Kohlenforschung    #
                  #                Kaiser Wilhelm Platz 1               #
                  #                 D-45470 Muelheim/Ruhr               #
                  #                      Germany                        #
                  #                                                     #
                  #                  All rights reserved                #
                  #                        -***-                        #
                  #######################################################


                         Program Version 5.0.3 -  RELEASE  -


 With contributions from (in alphabetic order):
   Daniel Aravena         : Magnetic Suceptibility
   Michael Atanasov       : Ab Initio Ligand Field Theory (pilot matlab implementation)
   Alexander A. Auer      : GIAO ZORA, VPT2 properties, NMR spectrum
   Ute Becker             : Parallelization
   Giovanni Bistoni       : ED, misc. LED, open-shell LED, HFLD
   Martin Brehm           : Molecular dynamics
   Dmytro Bykov           : SCF Hessian
   Vijay G. Chilkuri      : MRCI spin determinant printing, contributions to CSF-ICE
   Dipayan Datta          : RHF DLPNO-CCSD density
   Achintya Kumar Dutta   : EOM-CC, STEOM-CC
   Dmitry Ganyushin       : Spin-Orbit,Spin-Spin,Magnetic field MRCI
   Miquel Garcia          : C-PCM and meta-GGA Hessian, CC/C-PCM, Gaussian charge scheme
   Yang Guo               : DLPNO-NEVPT2, F12-NEVPT2, CIM, IAO-localization
   Andreas Hansen         : Spin unrestricted coupled pair/coupled cluster methods
   Benjamin Helmich-Paris : MC-RPA, TRAH-SCF, COSX integrals
   Lee Huntington         : MR-EOM, pCC
   Robert Izsak           : Overlap fitted RIJCOSX, COSX-SCS-MP3, EOM
   Marcus Kettner         : VPT2
   Christian Kollmar      : KDIIS, OOCD, Brueckner-CCSD(T), CCSD density, CASPT2, CASPT2-K
   Simone Kossmann        : Meta GGA functionals, TD-DFT gradient, OOMP2, MP2 Hessian
   Martin Krupicka        : Initial AUTO-CI
   Lucas Lang             : DCDCAS
   Marvin Lechner         : AUTO-CI (C++ implementation), FIC-MRCC
   Dagmar Lenk            : GEPOL surface, SMD
   Dimitrios Liakos       : Extrapolation schemes; Compound Job, initial MDCI parallelization
   Dimitrios Manganas     : Further ROCIS development; embedding schemes
   Dimitrios Pantazis     : SARC Basis sets
   Anastasios Papadopoulos: AUTO-CI, single reference methods and gradients
   Taras Petrenko         : DFT Hessian,TD-DFT gradient, ASA, ECA, R-Raman, ABS, FL, XAS/XES, NRVS
   Peter Pinski           : DLPNO-MP2, DLPNO-MP2 Gradient
   Christoph Reimann      : Effective Core Potentials
   Marius Retegan         : Local ZFS, SOC
   Christoph Riplinger    : Optimizer, TS searches, QM/MM, DLPNO-CCSD(T), (RO)-DLPNO pert. Triples
   Tobias Risthaus        : Range-separated hybrids, TD-DFT gradient, RPA, STAB
   Michael Roemelt        : Original ROCIS implementation
   Masaaki Saitow         : Open-shell DLPNO-CCSD energy and density
   Barbara Sandhoefer     : DKH picture change effects
   Avijit Sen             : IP-ROCIS
   Kantharuban Sivalingam : CASSCF convergence, NEVPT2, FIC-MRCI
   Bernardo de Souza      : ESD, SOC TD-DFT
   Georgi Stoychev        : AutoAux, RI-MP2 NMR, DLPNO-MP2 response
   Willem Van den Heuvel  : Paramagnetic NMR
   Boris Wezisla          : Elementary symmetry handling
   Frank Wennmohs         : Technical directorship


 We gratefully acknowledge several colleagues who have allowed us to
 interface, adapt or use parts of their codes:
   Stefan Grimme, W. Hujo, H. Kruse, P. Pracht,  : VdW corrections, initial TS optimization,
                  C. Bannwarth, S. Ehlert          DFT functionals, gCP, sTDA/sTD-DF
   Ed Valeev, F. Pavosevic, A. Kumar             : LibInt (2-el integral package), F12 methods
   Garnet Chan, S. Sharma, J. Yang, R. Olivares  : DMRG
   Ulf Ekstrom                                   : XCFun DFT Library
   Mihaly Kallay                                 : mrcc  (arbitrary order and MRCC methods)
   Jiri Pittner, Ondrej Demel                    : Mk-CCSD
   Frank Weinhold                                : gennbo (NPA and NBO analysis)
   Christopher J. Cramer and Donald G. Truhlar   : smd solvation model
   Lars Goerigk                                  : TD-DFT with DH, B97 family of functionals
   V. Asgeirsson, H. Jonsson                     : NEB implementation
   FAccTs GmbH                                   : IRC, NEB, NEB-TS, DLPNO-Multilevel, CI-OPT
                                                   MM, QMMM, 2- and 3-layer-ONIOM, Crystal-QMMM,
                                                   LR-CPCM, SF, NACMEs, symmetry and pop. for TD-DFT,
                                                   nearIR, NL-DFT gradient (VV10), updates on ESD,
                                                   ML-optimized integration grids
   S Lehtola, MJT Oliveira, MAL Marques          : LibXC Library
   Liviu Ungur et al                             : ANISO software


 Your calculation uses the libint2 library for the computation of 2-el integrals
 For citations please refer to: http://libint.valeyev.net

 Your ORCA version has been built with support for libXC version: 5.1.0
 For citations please refer to: https://tddft.org/programs/libxc/

 This ORCA versions uses:
   CBLAS   interface :  Fast vector & matrix operations
   LAPACKE interface :  Fast linear algebra routines
   SCALAPACK package :  Parallel linear algebra routines
   Shared memory     :  Shared parallel matrices
   BLAS/LAPACK       :  OpenBLAS 0.3.15  USE64BITINT DYNAMIC_ARCH NO_AFFINITY Haswell SINGLE_THREADED
        Core in use  :  Haswell
   Copyright (c) 2011-2014, The OpenBLAS Project




***************************************
The coordinates will be read from file: P42.xyz
***************************************


Your calculation utilizes the geometrical counterpoise correction gCP
Please cite in your paper:
H.Kruse, S. Grimme J.Chem.Phys., 136, (2012), 154101 
   

Your calculation utilizes the atom-pairwise dispersion correction
with the Becke-Johnson damping scheme (D3BJ)
Cite in your paper:
S.Grimme, S.Ehrlich, L.Goerigk, J Comput Chem, (2011), 32, 1456–1465 
S.Grimme, J.Antony, S.Ehrlich and H.Krieg, J.Chem.Phys., 132, (2010), 154104 
   

Your calculation employs the composite approach PBEh-3c.
Please cite in your paper:
S. Grimme, J. G. Brandenburg, C. Bannwarth, A. Hansen J.Chem.Phys., 143, (2015), 054107 
   

================================================================================

----- Orbital basis set information -----
Your calculation utilizes the basis: def2-mSVP

----- AuxJ basis set information -----
Your calculation utilizes the auxiliary basis: def2/J
   F. Weigend, Phys. Chem. Chem. Phys. 8, 1057 (2006).

================================================================================
                                        WARNINGS
                       Please study these warnings very carefully!
================================================================================


WARNING: your system is open-shell and RHF/RKS was chosen
  ===> : WILL SWITCH to UHF/UKS


INFO   : the flag for use of the SHARK integral package has been found!

================================================================================
                                       INPUT FILE
================================================================================
NAME = pbeh-3c.inp
|  1> ! PBEh-3c def2/J TightSCF DefGrid3
|  2> 
|  3> %maxcore 60000
|  4> 
|  5> %pal
|  6> nprocs 4
|  7> end
|  8> 
|  9> *xyzfile 0 2 P42.xyz
| 10> 
| 11>                          ****END OF INPUT****
================================================================================

                       ****************************
                       * Single Point Calculation *
                       ****************************

---------------------------------
CARTESIAN COORDINATES (ANGSTROEM)
---------------------------------
  N     -1.565702    0.143884    0.000000
  C     -0.390398   -0.531884    0.000000
  C      0.819641    0.223517    0.000000
  O      0.872220    1.448957    0.000000
  O      1.944101   -0.556650    0.000000
  H     -2.443517   -0.321168    0.000000
  H     -1.531739    1.150266    0.000000
  H     -0.400636   -1.610362    0.000000
  H      2.696030    0.053441    0.000000

----------------------------
CARTESIAN COORDINATES (A.U.)
----------------------------
  NO LB      ZA    FRAG     MASS         X           Y           Z
   0 N     7.0000    0    14.007   -2.958748    0.271901    0.000000
   1 C     6.0000    0    12.011   -0.737746   -1.005116    0.000000
   2 C     6.0000    0    12.011    1.548897    0.422386    0.000000
   3 O     8.0000    0    15.999    1.648256    2.738132    0.000000
   4 O     8.0000    0    15.999    3.673819   -1.051915    0.000000
   5 H     1.0000    0     1.008   -4.617577   -0.606920    0.000000
   6 H     1.0000    0     1.008   -2.894568    2.173687    0.000000
   7 H     1.0000    0     1.008   -0.757092   -3.043143    0.000000
   8 H     1.0000    0     1.008    5.094758    0.100988    0.000000

--------------------------------
INTERNAL COORDINATES (ANGSTROEM)
--------------------------------
 N      0   0   0     0.000000000000     0.00000000     0.00000000
 C      1   0   0     1.355729107203     0.00000000     0.00000000
 C      2   1   0     1.426473768021   118.12661592     0.00000000
 O      3   2   1     1.226567438728   124.43245360     0.00000000
 O      3   2   1     1.368601807812   113.27087681   180.00000085
 H      1   2   3     0.993393921640   122.18833326   180.00000000
 H      1   2   3     1.006954922175   117.96487820     0.00000000
 H      2   1   3     1.078526186036   119.35389035   180.00000000
 H      5   3   2     0.968301031344   106.19176082   180.00000000

---------------------------
INTERNAL COORDINATES (A.U.)
---------------------------
 N      0   0   0     0.000000000000     0.00000000     0.00000000
 C      1   0   0     2.561956724400     0.00000000     0.00000000
 C      2   1   0     2.695644758782   118.12661592     0.00000000
 O      3   2   1     2.317876543980   124.43245360     0.00000000
 O      3   2   1     2.586282603155   113.27087681   180.00000085
 H      1   2   3     1.877242455002   122.18833326   180.00000000
 H      1   2   3     1.902869032115   117.96487820     0.00000000
 H      2   1   3     2.038119119871   119.35389035   180.00000000
 H      5   3   2     1.829823764434   106.19176082   180.00000000

---------------------
BASIS SET INFORMATION
---------------------
There are 4 groups of distinct atoms

 Group   1 Type N   : 8s4p1d contracted to 4s2p1d pattern {5111/31/1}
 Group   2 Type C   : 8s4p1d contracted to 4s2p1d pattern {5111/31/1}
 Group   3 Type O   : 8s4p1d contracted to 4s2p1d pattern {5111/31/1}
 Group   4 Type H   : 4s contracted to 2s pattern {31}

Atom   0N    basis set group =>   1
Atom   1C    basis set group =>   2
Atom   2C    basis set group =>   2
Atom   3O    basis set group =>   3
Atom   4O    basis set group =>   3
Atom   5H    basis set group =>   4
Atom   6H    basis set group =>   4
Atom   7H    basis set group =>   4
Atom   8H    basis set group =>   4
---------------------------------
AUXILIARY/J BASIS SET INFORMATION
---------------------------------
There are 4 groups of distinct atoms

 Group   1 Type N   : 12s5p4d2f1g contracted to 6s4p3d1f1g pattern {711111/2111/211/2/1}
 Group   2 Type C   : 12s5p4d2f1g contracted to 6s4p3d1f1g pattern {711111/2111/211/2/1}
 Group   3 Type O   : 12s5p4d2f1g contracted to 6s4p3d1f1g pattern {711111/2111/211/2/1}
 Group   4 Type H   : 5s2p1d contracted to 3s1p1d pattern {311/2/1}

Atom   0N    basis set group =>   1
Atom   1C    basis set group =>   2
Atom   2C    basis set group =>   2
Atom   3O    basis set group =>   3
Atom   4O    basis set group =>   3
Atom   5H    basis set group =>   4
Atom   6H    basis set group =>   4
Atom   7H    basis set group =>   4
Atom   8H    basis set group =>   4


           ************************************************************
           *        Program running with 4 parallel MPI-processes     *
           *              working on a common directory               *
           ************************************************************
------------------------------------------------------------------------------
                           ORCA GTO INTEGRAL CALCULATION
                           -- RI-GTO INTEGRALS CHOSEN --
------------------------------------------------------------------------------
------------------------------------------------------------------------------
                   ___                                                        
                  /   \      - P O W E R E D   B Y -                         
                 /     \                                                     
                 |  |  |   _    _      __       _____    __    __             
                 |  |  |  | |  | |    /  \     |  _  \  |  |  /  |          
                  \  \/   | |  | |   /    \    | | | |  |  | /  /          
                 / \  \   | |__| |  /  /\  \   | |_| |  |  |/  /          
                |  |  |   |  __  | /  /__\  \  |    /   |      \           
                |  |  |   | |  | | |   __   |  |    \   |  |\   \          
                \     /   | |  | | |  |  |  |  | |\  \  |  | \   \       
                 \___/    |_|  |_| |__|  |__|  |_| \__\ |__|  \__/        
                                                                              
                      - O R C A' S   B I G   F R I E N D -                    
                                      &                                       
                       - I N T E G R A L  F E E D E R -                       
                                                                              
 v1 FN, 2020, v2 2021                                                         
------------------------------------------------------------------------------


Reading SHARK input file pbeh-3c.SHARKINP.tmp ... ok
----------------------
SHARK INTEGRAL PACKAGE
----------------------

Number of atoms                             ...      9
Number of basis functions                   ...     83
Number of shells                            ...     43
Maximum angular momentum                    ...      2
Integral batch strategy                     ... SHARK/LIBINT Hybrid
RI-J (if used) integral strategy            ... SPLIT-RIJ (Revised 2003 algorithm where possible)
Printlevel                                  ...      1
Contraction scheme used                     ... SEGMENTED contraction
Coulomb Range Separation                    ... NOT USED
Exchange Range Separation                   ... NOT USED
Finite Nucleus Model                        ... NOT USED
Auxiliary Coulomb fitting basis             ... AVAILABLE
   # of basis functions in Aux-J            ...    289
   # of shells in Aux-J                     ...     95
   Maximum angular momentum in Aux-J        ...      4
Auxiliary J/K fitting basis                 ... NOT available
Auxiliary Correlation fitting basis         ... NOT available
Auxiliary 'external' fitting basis          ... NOT available
Integral threshold                          ...     2.500000e-11
Primitive cut-off                           ...     2.500000e-12
Primitive pair pre-selection threshold      ...     2.500000e-12

Calculating pre-screening integrals         ... done (  0.1 sec) Dimension = 43
Organizing shell pair data                  ... done (  0.2 sec)
Shell pair information
Total number of shell pairs                 ...       946
Shell pairs after pre-screening             ...       894
Total number of primitive shell pairs       ...      3398
Primitive shell pairs kept                  ...      2458
          la=0 lb=0:    362 shell pairs
          la=1 lb=0:    276 shell pairs
          la=1 lb=1:     55 shell pairs
          la=2 lb=0:    136 shell pairs
          la=2 lb=1:     50 shell pairs
          la=2 lb=2:     15 shell pairs

Calculating one electron integrals          ... done (  0.0 sec)
Calculating RI/J V-Matrix + Cholesky decomp.... done (  0.6 sec)
Calculating Nuclear repulsion               ... done (  0.2 sec) ENN=    171.491264162710 Eh

SHARK setup successfully completed in   2.4 seconds

Maximum memory used throughout the entire GTOINT-calculation: 9.6 MB


           ************************************************************
           *        Program running with 4 parallel MPI-processes     *
           *              working on a common directory               *
           ************************************************************
-------------------------------------------------------------------------------
                                 ORCA SCF
-------------------------------------------------------------------------------

------------
SCF SETTINGS
------------
Hamiltonian:
 Density Functional     Method          .... DFT(GTOs)
 Exchange Functional    Exchange        .... PBE
   PBE kappa parameter   XKappa         ....  1.024500
   PBE mue parameter    XMuePBE         ....  0.123457
 Correlation Functional Correlation     .... PBE
   PBE beta parameter  CBetaPBE         ....  0.030000
 LDA part of GGA corr.  LDAOpt          .... PW91-LDA
 Gradients option       PostSCFGGA      .... off
 Hybrid DFT is turned on
   Fraction HF Exchange ScalHFX         ....  0.420000
   Scaling of DF-GGA-X  ScalDFX         ....  0.580000
   Scaling of DF-GGA-C  ScalDFC         ....  1.000000
   Scaling of DF-LDA-C  ScalLDAC        ....  1.000000
   Perturbative correction              ....  0.000000
   Density functional embedding theory  .... OFF
 RI-approximation to the Coulomb term is turned on
   Number of AuxJ basis functions       .... 289
   RIJ-ON(X) (HFX calculated with O(N)) .... on
   Number of AuxJ basis functions       .... 289
   RIJ-COSX (HFX calculated with COS-X)).... on


General Settings:
 Integral files         IntName         .... pbeh-3c
 Hartree-Fock type      HFTyp           .... UHF
 Total Charge           Charge          ....    0
 Multiplicity           Mult            ....    2
 Number of Electrons    NEL             ....   39
 Basis Dimension        Dim             ....   83
 Nuclear Repulsion      ENuc            ....    171.4912641627 Eh

Convergence Acceleration:
 DIIS                   CNVDIIS         .... on
   Start iteration      DIISMaxIt       ....    12
   Startup error        DIISStart       ....  0.200000
   # of expansion vecs  DIISMaxEq       ....     5
   Bias factor          DIISBfac        ....   1.050
   Max. coefficient     DIISMaxC        ....  10.000
 Trust-Rad. Augm. Hess. CNVTRAH         .... auto
   Auto Start mean grad. ratio tolernc. ....  1.125000
   Auto Start start iteration           ....    20
   Auto Start num. interpolation iter.  ....    10
   Max. Number of Micro iterations      ....    16
   Max. Number of Macro iterations      .... Maxiter - #DIIS iter
   Number of Davidson start vectors     ....     2
   Converg. threshold I  (grad. norm)   ....   1.000e-05
   Converg. threshold II (energy diff.) ....   1.000e-08
   Grad. Scal. Fac. for Micro threshold ....   0.100
   Minimum threshold for Micro iter.    ....   0.010
   NR start threshold (gradient norm)   ....   0.001
   Initial trust radius                 ....   0.400
   Minimum AH scaling param. (alpha)    ....   1.000
   Maximum AH scaling param. (alpha)    .... 1000.000
   Orbital update algorithm             .... Taylor
   White noise on init. David. guess    .... on
   Maximum white noise                  ....   0.010
   Quad. conv. algorithm                .... NR
   COSX micro iterations for RIJONX calc.... off
 SOSCF                  CNVSOSCF        .... off
 Level Shifting         CNVShift        .... on
   Level shift para.    LevelShift      ....    0.2500
   Turn off err/grad.   ShiftErr        ....    0.0010
 Zerner damping         CNVZerner       .... off
 Static damping         CNVDamp         .... on
   Fraction old density DampFac         ....    0.7000
   Max. Damping (<1)    DampMax         ....    0.9800
   Min. Damping (>=0)   DampMin         ....    0.0000
   Turn off err/grad.   DampErr         ....    0.1000
 Fernandez-Rico         CNVRico         .... off

SCF Procedure:
 Maximum # iterations   MaxIter         ....   125
 SCF integral mode      SCFMode         .... Direct
   Integral package                     .... SHARK and LIBINT hybrid scheme
 Reset frequency        DirectResetFreq ....    20
 Integral Threshold     Thresh          ....  2.500e-11 Eh
 Primitive CutOff       TCut            ....  2.500e-12 Eh

Convergence Tolerance:
 Convergence Check Mode ConvCheckMode   .... Total+1el-Energy
 Convergence forced     ConvForced      .... 0
 Energy Change          TolE            ....  1.000e-08 Eh
 1-El. energy change                    ....  1.000e-05 Eh
 DIIS Error             TolErr          ....  5.000e-07


Diagonalization of the overlap matrix:
Smallest eigenvalue                        ... 3.681e-03
Time for diagonalization                   ...    0.002 sec
Threshold for overlap eigenvalues          ... 1.000e-08
Number of eigenvalues below threshold      ... 0
Time for construction of square roots      ...    0.376 sec
Total time needed                          ...    0.557 sec

--------------------------------
INITIAL GUESS: MINIMAL BASIS EHT
--------------------------------
The minimal basis has 29 functions
EHT matrix was diagonalized
Basis set overlap was calculated now projecting the orbitals
Using GuessMode=FMatrix for the initial guess
C*T matrix was formed
Effective Fockian was calculated
Effective Fockian was diagonalized
Initial density was built
                      ------------------
                      INITIAL GUESS DONE
                      ------------------
-------------------
DFT GRID GENERATION
-------------------

General Integration Accuracy     IntAcc      ... 4.959
Radial Grid Type                 RadialGrid  ... OptM3 with GC (2021)
Angular Grid (max. ang.)         AngularGrid ... 6 (Lebedev-590)
Angular grid pruning method      GridPruning ... 4 (adaptive)
Weight generation scheme         WeightScheme... Becke
Basis function cutoff            BFCut       ... 1.0000e-11
Integration weight cutoff        WCut        ... 1.0000e-14
Angular grids for H and He will be reduced by one unit
Partially contracted basis set               ... off
Rotationally invariant grid construction     ... off

Total number of grid points                  ...   107752
Total number of batches                      ...     1689
Average number of points per batch           ...       63
Average number of grid points per atom       ...    11972
Time for grid setup =    2.809 sec

--------------------
COSX GRID GENERATION
--------------------

GRIDX 1
-------
General Integration Accuracy     IntAcc      ... 4.020
Radial Grid Type                 RadialGrid  ... OptM3 with GC (2021)
Angular Grid (max. ang.)         AngularGrid ... 2 (Lebedev-110)
Angular grid pruning method      GridPruning ... 4 (adaptive)
Weight generation scheme         WeightScheme... Becke
Basis function cutoff            BFCut       ... 1.0000e-11
Integration weight cutoff        WCut        ... 1.0000e-14
Angular grids for H and He will be reduced by one unit
Partially contracted basis set               ... on
Rotationally invariant grid construction     ... off

Total number of grid points                  ...    12329
Total number of batches                      ...      197
Average number of points per batch           ...       62
Average number of grid points per atom       ...     1370
UseSFitting                                  ... on

GRIDX 2
-------
General Integration Accuracy     IntAcc      ... 4.338
Radial Grid Type                 RadialGrid  ... OptM3 with GC (2021)
Angular Grid (max. ang.)         AngularGrid ... 3 (Lebedev-194)
Angular grid pruning method      GridPruning ... 4 (adaptive)
Weight generation scheme         WeightScheme... Becke
Basis function cutoff            BFCut       ... 1.0000e-11
Integration weight cutoff        WCut        ... 1.0000e-14
Angular grids for H and He will be reduced by one unit
Partially contracted basis set               ... on
Rotationally invariant grid construction     ... off

Total number of grid points                  ...    27294
Total number of batches                      ...      431
Average number of points per batch           ...       63
Average number of grid points per atom       ...     3033
UseSFitting                                  ... on

GRIDX 3
-------
General Integration Accuracy     IntAcc      ... 4.871
Radial Grid Type                 RadialGrid  ... OptM3 with GC (2021)
Angular Grid (max. ang.)         AngularGrid ... 4 (Lebedev-302)
Angular grid pruning method      GridPruning ... 4 (adaptive)
Weight generation scheme         WeightScheme... Becke
Basis function cutoff            BFCut       ... 1.0000e-11
Integration weight cutoff        WCut        ... 1.0000e-14
Angular grids for H and He will be reduced by one unit
Partially contracted basis set               ... on
Rotationally invariant grid construction     ... off

Total number of grid points                  ...    51818
Total number of batches                      ...      813
Average number of points per batch           ...       63
Average number of grid points per atom       ...     5758
UseSFitting                                  ... on

Time for X-Grid setup             =    4.618 sec

--------------
SCF ITERATIONS
--------------
ITER       Energy         Delta-E        Max-DP      RMS-DP      [F,P]     Damp
               ***  Starting incremental Fock matrix formation  ***
  0   -282.2174208841   0.000000000000 0.10981220  0.00509812  0.2877508 0.7000
  1   -282.5957660335  -0.378345149435 0.06191591  0.00275636  0.1339279 0.7000
                               ***Turning on DIIS***
  2   -282.7763997570  -0.180633723492 0.10861875  0.00495526  0.0937710 0.0000
  3   -283.1830906088  -0.406690851815 0.05258519  0.00205934  0.0584045 0.0000
  4   -283.1998925593  -0.016801950496 0.01868582  0.00063657  0.0410167 0.0000
  5   -283.2095557152  -0.009663155883 0.00564586  0.00018978  0.0074052 0.0000
  6   -283.2099872060  -0.000431490806 0.00269883  0.00009658  0.0033325 0.0000
  7   -283.2101096227  -0.000122416678 0.00194341  0.00005399  0.0017547 0.0000
  8   -283.2101437691  -0.000034146394 0.00150431  0.00003466  0.0011891 0.0000
  9   -283.2101566025  -0.000012833437 0.00131572  0.00003566  0.0005989 0.0000
               *** Restarting incremental Fock matrix formation ***
                                   *** Resetting DIIS ***
 10   -283.2101769878  -0.000020385248 0.00026441  0.00000595  0.0001707 0.0000
 11   -283.2101772137  -0.000000225962 0.00009528  0.00000244  0.0001021 0.0000
 12   -283.2101772822  -0.000000068430 0.00012852  0.00000274  0.0000654 0.0000
 13   -283.2101773206  -0.000000038432 0.00003648  0.00000103  0.0000309 0.0000
                 **** Energy Check signals convergence ****

               *****************************************************
               *                     SUCCESS                       *
               *           SCF CONVERGED AFTER  14 CYCLES          *
               *****************************************************

Old exchange energy                            =    -14.644153123 Eh
New exchange energy                            =    -14.644147387 Eh
Exchange energy change after final integration =      0.000005737 Eh
Total energy after final integration           =   -283.210171590 Eh
Final COS-X integration done in                =     1.677 sec

----------------
TOTAL SCF ENERGY
----------------

Total Energy       :         -283.21017159 Eh           -7706.54056 eV

Components:
Nuclear Repulsion  :          171.49126416 Eh            4666.51454 eV
Electronic Energy  :         -454.70143575 Eh          -12373.05510 eV
One Electron Energy:         -726.75200156 Eh          -19775.92735 eV
Two Electron Energy:          272.05056581 Eh            7402.87225 eV
Max COSX asymmetry :            0.00000097 Eh               0.00003 eV

Virial components:
Potential Energy   :         -564.49425599 Eh          -15360.66963 eV
Kinetic Energy     :          281.28408440 Eh            7654.12906 eV
Virial Ratio       :            2.00684748


DFT components:
N(Alpha)           :       19.999999919259 electrons
N(Beta)            :       19.000000024328 electrons
N(Total)           :       38.999999943586 electrons
E(X)               :      -19.508704201559 Eh       
E(C)               :       -1.736833164033 Eh       
E(XC)              :      -21.245537365592 Eh       
DFET-embed. en.    :        0.000000000000 Eh       

---------------
SCF CONVERGENCE
---------------

  Last Energy change         ...   -5.9339e-09  Tolerance :   1.0000e-08
  Last MAX-Density change    ...    0.0000e+00  Tolerance :   1.0000e-07
  Last RMS-Density change    ...    0.0000e+00  Tolerance :   5.0000e-09
  Last DIIS Error            ...    1.0156e-05  Tolerance :   5.0000e-07

             **** THE GBW FILE WAS UPDATED (pbeh-3c.gbw) ****
             **** DENSITY pbeh-3c.scfp WAS UPDATED ****
             **** ENERGY FILE WAS UPDATED (pbeh-3c.en.tmp) ****
----------------------
UHF SPIN CONTAMINATION
----------------------

Warning: in a DFT calculation there is little theoretical justification to 
         calculate <S**2> as in Hartree-Fock theory. We will do it anyways
         but you should keep in mind that the values have only limited relevance

Expectation value of <S**2>     :     0.756790
Ideal value S*(S+1) for S=0.5   :     0.750000
Deviation                       :     0.006790

             **** THE GBW FILE WAS UPDATED (pbeh-3c.gbw) ****
             **** DENSITY pbeh-3c.scfp WAS UPDATED ****
----------------
ORBITAL ENERGIES
----------------
                 SPIN UP ORBITALS
  NO   OCC          E(Eh)            E(eV) 
   0   1.0000     -19.520933      -531.1916 
   1   1.0000     -19.464793      -529.6639 
   2   1.0000     -14.672571      -399.2609 
   3   1.0000     -10.559226      -287.3311 
   4   1.0000     -10.486140      -285.3424 
   5   1.0000      -1.194873       -32.5142 
   6   1.0000      -1.103451       -30.0264 
   7   1.0000      -1.038321       -28.2541 
   8   1.0000      -0.814177       -22.1549 
   9   1.0000      -0.669148       -18.2084 
  10   1.0000      -0.638294       -17.3689 
  11   1.0000      -0.552377       -15.0309 
  12   1.0000      -0.540492       -14.7075 
  13   1.0000      -0.507875       -13.8200 
  14   1.0000      -0.507151       -13.8003 
  15   1.0000      -0.445388       -12.1196 
  16   1.0000      -0.424495       -11.5511 
  17   1.0000      -0.368446       -10.0259 
  18   1.0000      -0.327746        -8.9184 
  19   1.0000      -0.216054        -5.8791 
  20   0.0000       0.105556         2.8723 
  21   0.0000       0.124767         3.3951 
  22   0.0000       0.147476         4.0130 
  23   0.0000       0.169131         4.6023 
  24   0.0000       0.226758         6.1704 
  25   0.0000       0.299240         8.1427 
  26   0.0000       0.307995         8.3810 
  27   0.0000       0.348920         9.4946 
  28   0.0000       0.457945        12.4613 
  29   0.0000       0.518737        14.1156 
  30   0.0000       0.575880        15.6705 
  31   0.0000       0.598968        16.2988 
  32   0.0000       0.609180        16.5766 
  33   0.0000       0.630640        17.1606 
  34   0.0000       0.689023        18.7493 
  35   0.0000       0.718981        19.5645 
  36   0.0000       0.783249        21.3133 
  37   0.0000       0.791703        21.5433 
  38   0.0000       0.901732        24.5374 
  39   0.0000       0.972339        26.4587 
  40   0.0000       0.975049        26.5324 
  41   0.0000       0.997793        27.1513 
  42   0.0000       1.022162        27.8145 
  43   0.0000       1.026304        27.9272 
  44   0.0000       1.095195        29.8018 
  45   0.0000       1.153752        31.3952 
  46   0.0000       1.158375        31.5210 
  47   0.0000       1.242538        33.8112 
  48   0.0000       1.291514        35.1439 
  49   0.0000       1.352724        36.8095 
  50   0.0000       1.361798        37.0564 
  51   0.0000       1.420255        38.6471 
  52   0.0000       1.528073        41.5810 
  53   0.0000       1.565408        42.5969 
  54   0.0000       1.678441        45.6727 
  55   0.0000       1.745677        47.5023 
  56   0.0000       1.801625        49.0247 
  57   0.0000       1.826224        49.6941 
  58   0.0000       1.883006        51.2392 
  59   0.0000       1.918733        52.2114 
  60   0.0000       1.988265        54.1034 
  61   0.0000       2.027946        55.1832 
  62   0.0000       2.070359        56.3373 
  63   0.0000       2.092688        56.9449 
  64   0.0000       2.169299        59.0296 
  65   0.0000       2.205976        60.0277 
  66   0.0000       2.307252        62.7835 
  67   0.0000       2.351316        63.9826 
  68   0.0000       2.425116        65.9908 
  69   0.0000       2.526246        68.7426 
  70   0.0000       2.601102        70.7796 
  71   0.0000       2.626409        71.4682 
  72   0.0000       2.717280        73.9410 
  73   0.0000       2.749544        74.8189 
  74   0.0000       2.814915        76.5977 
  75   0.0000       2.948962        80.2453 
  76   0.0000       3.134176        85.2853 
  77   0.0000       3.247361        88.3652 
  78   0.0000      13.523353       367.9891 
  79   0.0000      14.169109       385.5610 
  80   0.0000      19.135606       520.7063 
  81   0.0000      25.576377       695.9686 
  82   0.0000      25.789974       701.7809 

                 SPIN DOWN ORBITALS
  NO   OCC          E(Eh)            E(eV) 
   0   1.0000     -19.519922      -531.1641 
   1   1.0000     -19.459558      -529.5215 
   2   1.0000     -14.665249      -399.0617 
   3   1.0000     -10.559369      -287.3350 
   4   1.0000     -10.476854      -285.0897 
   5   1.0000      -1.190525       -32.3958 
   6   1.0000      -1.095062       -29.7982 
   7   1.0000      -1.019755       -27.7490 
   8   1.0000      -0.789753       -21.4903 
   9   1.0000      -0.661922       -18.0118 
  10   1.0000      -0.632873       -17.2213 
  11   1.0000      -0.546072       -14.8594 
  12   1.0000      -0.534451       -14.5431 
  13   1.0000      -0.501403       -13.6439 
  14   1.0000      -0.483303       -13.1513 
  15   1.0000      -0.440720       -11.9926 
  16   1.0000      -0.373427       -10.1615 
  17   1.0000      -0.337407        -9.1813 
  18   1.0000      -0.321659        -8.7528 
  19   0.0000      -0.033204        -0.9035 
  20   0.0000       0.130037         3.5385 
  21   0.0000       0.148767         4.0482 
  22   0.0000       0.148886         4.0514 
  23   0.0000       0.172925         4.7055 
  24   0.0000       0.234498         6.3810 
  25   0.0000       0.305046         8.3007 
  26   0.0000       0.313918         8.5421 
  27   0.0000       0.352632         9.5956 
  28   0.0000       0.467382        12.7181 
  29   0.0000       0.545618        14.8470 
  30   0.0000       0.579436        15.7673 
  31   0.0000       0.614903        16.7324 
  32   0.0000       0.621186        16.9033 
  33   0.0000       0.642093        17.4723 
  34   0.0000       0.697747        18.9867 
  35   0.0000       0.723797        19.6955 
  36   0.0000       0.789788        21.4912 
  37   0.0000       0.825136        22.4531 
  38   0.0000       0.903311        24.5804 
  39   0.0000       0.977071        26.5875 
  40   0.0000       0.980953        26.6931 
  41   0.0000       1.004079        27.3224 
  42   0.0000       1.028067        27.9751 
  43   0.0000       1.033924        28.1345 
  44   0.0000       1.098475        29.8910 
  45   0.0000       1.160174        31.5699 
  46   0.0000       1.171698        31.8835 
  47   0.0000       1.247356        33.9423 
  48   0.0000       1.297527        35.3075 
  49   0.0000       1.357171        36.9305 
  50   0.0000       1.382392        37.6168 
  51   0.0000       1.435059        39.0499 
  52   0.0000       1.547069        42.0979 
  53   0.0000       1.578145        42.9435 
  54   0.0000       1.696477        46.1635 
  55   0.0000       1.755848        47.7791 
  56   0.0000       1.806904        49.1684 
  57   0.0000       1.830502        49.8105 
  58   0.0000       1.895937        51.5911 
  59   0.0000       1.924575        52.3704 
  60   0.0000       1.991157        54.1821 
  61   0.0000       2.046736        55.6945 
  62   0.0000       2.075249        56.4704 
  63   0.0000       2.111456        57.4556 
  64   0.0000       2.176983        59.2387 
  65   0.0000       2.213961        60.2449 
  66   0.0000       2.316209        63.0273 
  67   0.0000       2.378777        64.7298 
  68   0.0000       2.436160        66.2913 
  69   0.0000       2.536360        69.0179 
  70   0.0000       2.609870        71.0182 
  71   0.0000       2.631779        71.6144 
  72   0.0000       2.727640        74.2228 
  73   0.0000       2.760821        75.1258 
  74   0.0000       2.818472        76.6945 
  75   0.0000       2.953436        80.3671 
  76   0.0000       3.136978        85.3615 
  77   0.0000       3.250145        88.4409 
  78   0.0000      13.532115       368.2276 
  79   0.0000      14.173552       385.6819 
  80   0.0000      19.145431       520.9737 
  81   0.0000      25.578928       696.0380 
  82   0.0000      25.795528       701.9320 

                    ********************************
                    * MULLIKEN POPULATION ANALYSIS *
                    ********************************

--------------------------------------------
MULLIKEN ATOMIC CHARGES AND SPIN POPULATIONS
--------------------------------------------
   0 N :   -0.730294    0.272458
   1 C :   -0.120731    0.604248
   2 C :    0.460834    0.001881
   3 O :   -0.448132    0.167076
   4 O :   -0.616872    0.024207
   5 H :    0.370761   -0.015049
   6 H :    0.391426   -0.014329
   7 H :    0.255203   -0.037709
   8 H :    0.437805   -0.002782
Sum of atomic charges         :   -0.0000000
Sum of atomic spin populations:    1.0000000

-----------------------------------------------------
MULLIKEN REDUCED ORBITAL CHARGES AND SPIN POPULATIONS
-----------------------------------------------------
CHARGE
  0 N s       :     3.553856  s :     3.553856
      pz      :     1.684974  p :     4.146272
      px      :     1.198217
      py      :     1.263081
      dz2     :     0.004457  d :     0.030166
      dxz     :     0.004458
      dyz     :     0.001426
      dx2y2   :     0.011938
      dxy     :     0.007887
  1 C s       :     3.171213  s :     3.171213
      pz      :     1.082602  p :     2.896616
      px      :     0.815609
      py      :     0.998406
      dz2     :     0.005103  d :     0.052902
      dxz     :     0.012234
      dyz     :     0.003131
      dx2y2   :     0.016295
      dxy     :     0.016139
  2 C s       :     2.932604  s :     2.932604
      pz      :     0.824450  p :     2.472571
      px      :     0.830793
      py      :     0.817328
      dz2     :     0.006827  d :     0.133991
      dxz     :     0.013375
      dyz     :     0.026116
      dx2y2   :     0.030980
      dxy     :     0.056692
  3 O s       :     3.758852  s :     3.758852
      pz      :     1.486235  p :     4.659847
      px      :     1.791423
      py      :     1.382189
      dz2     :     0.002802  d :     0.029433
      dxz     :     0.000122
      dyz     :     0.010770
      dx2y2   :     0.008901
      dxy     :     0.006837
  4 O s       :     3.809345  s :     3.809345
      pz      :     1.844501  p :     4.777457
      px      :     1.286480
      py      :     1.646476
      dz2     :     0.004970  d :     0.030070
      dxz     :     0.001884
      dyz     :     0.003721
      dx2y2   :     0.002930
      dxy     :     0.016564
  5 H s       :     0.629239  s :     0.629239
  6 H s       :     0.608574  s :     0.608574
  7 H s       :     0.744797  s :     0.744797
  8 H s       :     0.562195  s :     0.562195

SPIN
  0 N s       :     0.014061  s :     0.014061
      pz      :     0.250752  p :     0.256593
      px      :    -0.000949
      py      :     0.006790
      dz2     :    -0.000881  d :     0.001804
      dxz     :     0.002124
      dyz     :     0.000574
      dx2y2   :     0.000050
      dxy     :    -0.000062
  1 C s       :     0.049491  s :     0.049491
      pz      :     0.528414  p :     0.552856
      px      :     0.003486
      py      :     0.020956
      dz2     :    -0.001587  d :     0.001901
      dxz     :     0.003726
      dyz     :    -0.000197
      dx2y2   :     0.000013
      dxy     :    -0.000054
  2 C s       :    -0.009770  s :    -0.009770
      pz      :     0.023407  p :     0.003583
      px      :    -0.011539
      py      :    -0.008285
      dz2     :    -0.000094  d :     0.008067
      dxz     :     0.004322
      dyz     :     0.004073
      dx2y2   :    -0.000008
      dxy     :    -0.000225
  3 O s       :     0.005866  s :     0.005866
      pz      :     0.159356  p :     0.162504
      px      :     0.001649
      py      :     0.001499
      dz2     :     0.000064  d :    -0.001295
      dxz     :     0.000001
      dyz     :    -0.001222
      dx2y2   :    -0.000053
      dxy     :    -0.000085
  4 O s       :     0.000647  s :     0.000647
      pz      :     0.024331  p :     0.023382
      px      :    -0.000896
      py      :    -0.000053
      dz2     :    -0.000030  d :     0.000178
      dxz     :     0.000422
      dyz     :    -0.000082
      dx2y2   :    -0.000109
      dxy     :    -0.000023
  5 H s       :    -0.015049  s :    -0.015049
  6 H s       :    -0.014329  s :    -0.014329
  7 H s       :    -0.037709  s :    -0.037709
  8 H s       :    -0.002782  s :    -0.002782


                     *******************************
                     * LOEWDIN POPULATION ANALYSIS *
                     *******************************

-------------------------------------------
LOEWDIN ATOMIC CHARGES AND SPIN POPULATIONS
-------------------------------------------
   0 N :   -0.317327    0.288063
   1 C :   -0.151564    0.519370
   2 C :    0.086632    0.041260
   3 O :   -0.289513    0.161646
   4 O :   -0.325802    0.027690
   5 H :    0.255509   -0.009270
   6 H :    0.267943   -0.008881
   7 H :    0.144160   -0.017878
   8 H :    0.329960   -0.002001

----------------------------------------------------
LOEWDIN REDUCED ORBITAL CHARGES AND SPIN POPULATIONS
----------------------------------------------------
CHARGE
  0 N s       :     3.131392  s :     3.131392
      pz      :     1.660949  p :     4.121689
      px      :     1.214473
      py      :     1.246268
      dz2     :     0.004799  d :     0.064245
      dxz     :     0.010343
      dyz     :     0.003333
      dx2y2   :     0.026398
      dxy     :     0.019372
  1 C s       :     2.910393  s :     2.910393
      pz      :     1.064391  p :     3.124202
      px      :     0.990340
      py      :     1.069470
      dz2     :     0.009618  d :     0.116969
      dxz     :     0.025371
      dyz     :     0.006165
      dx2y2   :     0.036678
      dxy     :     0.039136
  2 C s       :     2.819453  s :     2.819453
      pz      :     0.826880  p :     2.790872
      px      :     0.942541
      py      :     1.021450
      dz2     :     0.016705  d :     0.303043
      dxz     :     0.027008
      dyz     :     0.053197
      dx2y2   :     0.070665
      dxy     :     0.135469
  3 O s       :     3.527976  s :     3.527976
      pz      :     1.475076  p :     4.706610
      px      :     1.767334
      py      :     1.464201
      dz2     :     0.006574  d :     0.054926
      dxz     :     0.000163
      dyz     :     0.015006
      dx2y2   :     0.020325
      dxy     :     0.012859
  4 O s       :     3.506663  s :     3.506663
      pz      :     1.823317  p :     4.767341
      px      :     1.301504
      py      :     1.642520
      dz2     :     0.007517  d :     0.051798
      dxz     :     0.004531
      dyz     :     0.004270
      dx2y2   :     0.007523
      dxy     :     0.027956
  5 H s       :     0.744491  s :     0.744491
  6 H s       :     0.732057  s :     0.732057
  7 H s       :     0.855840  s :     0.855840
  8 H s       :     0.670040  s :     0.670040

SPIN
  0 N s       :     0.009956  s :     0.009956
      pz      :     0.261974  p :     0.269306
      px      :     0.002339
      py      :     0.004993
      dz2     :    -0.000660  d :     0.008801
      dxz     :     0.007212
      dyz     :     0.002219
      dx2y2   :    -0.000017
      dxy     :     0.000047
  1 C s       :     0.018072  s :     0.018072
      pz      :     0.481449  p :     0.494184
      px      :     0.003373
      py      :     0.009363
      dz2     :    -0.001406  d :     0.007113
      dxz     :     0.008367
      dyz     :     0.000649
      dx2y2   :    -0.000204
      dxy     :    -0.000294
  2 C s       :    -0.003417  s :    -0.003417
      pz      :     0.035304  p :     0.025613
      px      :    -0.005586
      py      :    -0.004105
      dz2     :     0.000014  d :     0.019065
      dxz     :     0.009108
      dyz     :     0.009515
      dx2y2   :     0.000351
      dxy     :     0.000076
  3 O s       :     0.003108  s :     0.003108
      pz      :     0.156742  p :     0.159273
      px      :     0.001477
      py      :     0.001054
      dz2     :     0.000102  d :    -0.000735
      dxz     :     0.000036
      dyz     :    -0.000572
      dx2y2   :    -0.000134
      dxy     :    -0.000167
  4 O s       :     0.000208  s :     0.000208
      pz      :     0.027269  p :     0.027016
      px      :     0.000032
      py      :    -0.000285
      dz2     :    -0.000045  d :     0.000466
      dxz     :     0.000889
      dyz     :    -0.000162
      dx2y2   :    -0.000151
      dxy     :    -0.000065
  5 H s       :    -0.009270  s :    -0.009270
  6 H s       :    -0.008881  s :    -0.008881
  7 H s       :    -0.017878  s :    -0.017878
  8 H s       :    -0.002001  s :    -0.002001


                      *****************************
                      * MAYER POPULATION ANALYSIS *
                      *****************************

  NA   - Mulliken gross atomic population
  ZA   - Total nuclear charge
  QA   - Mulliken gross atomic charge
  VA   - Mayer's total valence
  BVA  - Mayer's bonded valence
  FA   - Mayer's free valence

  ATOM       NA         ZA         QA         VA         BVA        FA
  0 N      7.7303     7.0000    -0.7303     3.0294     2.9544     0.0750
  1 C      6.1207     6.0000    -0.1207     3.6940     3.3996     0.2944
  2 C      5.5392     6.0000     0.4608     4.2307     4.2277     0.0030
  3 O      8.4481     8.0000    -0.4481     2.1780     2.1513     0.0266
  4 O      8.6169     8.0000    -0.6169     1.9547     1.9539     0.0008
  5 H      0.6292     1.0000     0.3708     0.8395     0.8393     0.0002
  6 H      0.6086     1.0000     0.3914     0.8366     0.8364     0.0002
  7 H      0.7448     1.0000     0.2552     0.8970     0.8956     0.0014
  8 H      0.5622     1.0000     0.4378     0.7990     0.7990     0.0000

  Mayer bond orders larger than 0.100000
B(  0-N ,  1-C ) :   1.2674 B(  0-N ,  5-H ) :   0.8323 B(  0-N ,  6-H ) :   0.8012 
B(  1-C ,  2-C ) :   1.1767 B(  1-C ,  7-H ) :   0.8929 B(  2-C ,  3-O ) :   1.9450 
B(  2-C ,  4-O ) :   1.0856 B(  4-O ,  8-H ) :   0.7661 

-------
TIMINGS
-------

Total SCF time: 0 days 0 hours 2 min 21 sec 

Total time                  ....     141.284 sec
Sum of individual times     ....     129.051 sec  ( 91.3%)

Fock matrix formation       ....     101.424 sec  ( 71.8%)
  Split-RI-J                ....       9.659 sec  (  9.5% of F)
  Chain of spheres X        ....      15.391 sec  ( 15.2% of F)
  XC integration            ....      30.777 sec  ( 30.3% of F)
    Basis function eval.    ....       1.703 sec  (  5.5% of XC)
    Density eval.           ....       2.039 sec  (  6.6% of XC)
    XC-Functional eval.     ....       1.429 sec  (  4.6% of XC)
    XC-Potential eval.      ....       1.061 sec  (  3.4% of XC)
Diagonalization             ....       4.485 sec  (  3.2%)
Density matrix formation    ....       0.133 sec  (  0.1%)
Population analysis         ....       2.773 sec  (  2.0%)
Initial guess               ....       0.084 sec  (  0.1%)
Orbital Transformation      ....       0.000 sec  (  0.0%)
Orbital Orthonormalization  ....       0.000 sec  (  0.0%)
DIIS solution               ....      12.725 sec  (  9.0%)
Grid generation             ....       7.427 sec  (  5.3%)

Maximum memory used throughout the entire SCF-calculation: 48.6 MB


-------------------------------------------------------------------------------
                          DFT DISPERSION CORRECTION                            
                                                                               
                              DFTD3 V3.1  Rev 1                                
                          USING Becke-Johnson damping                          
-------------------------------------------------------------------------------
The PBEh-3c composite method is recognized
Using three-body term ABC
Active option DFTDOPT                   ...         4   

molecular C6(AA) [au] = 768.540114 


            DFT-D V3
 parameters
 s6 scaling factor         :     1.0000 
 a1 scaling factor         :     0.4860 
 s8 scaling factor         :     0.0000 
 a2 scaling factor         :     4.5000 
 Damping factor alpha9(ATM):    16.0000 
 ad hoc parameters k1-k3   :    16.0000     1.3333    -4.0000 

 Edisp/kcal,au: -1.930330660533  -0.003076177388 
 E6   /kcal   :  -1.931375277 
 E8   /kcal   :  -0.000000000 
 E6(ABC)      :   0.001044616 
 % E8         :   0.000000000 
 % E6(ABC)    :  -0.054115926 

-------------------------   ----------------
Dispersion correction           -0.003076177
-------------------------   ----------------

------------------   -----------------
gCP correction             0.018493142
------------------   -----------------

-------------------------   --------------------
FINAL SINGLE POINT ENERGY      -283.194754625076
-------------------------   --------------------


                            ***************************************
                            *     ORCA property calculations      *
                            ***************************************

                                    ---------------------
                                    Active property flags
                                    ---------------------
   (+) Dipole Moment


------------------------------------------------------------------------------
                       ORCA ELECTRIC PROPERTIES CALCULATION
------------------------------------------------------------------------------

Dipole Moment Calculation                       ... on
Quadrupole Moment Calculation                   ... off
Polarizability Calculation                      ... off
GBWName                                         ... pbeh-3c.gbw
Electron density                                ... pbeh-3c.scfp
The origin for moment calculation is the CENTER OF MASS  = ( 0.678480,  0.302472  0.000000)

-------------
DIPOLE MOMENT
-------------
                                X             Y             Z
Electronic contribution:      2.00614       0.75117       0.00000
Nuclear contribution   :     -2.90293      -1.27512       0.00000
                        -----------------------------------------
Total Dipole Moment    :     -0.89679      -0.52395       0.00000
                        -----------------------------------------
Magnitude (a.u.)       :      1.03863
Magnitude (Debye)      :      2.63999



--------------------
Rotational spectrum 
--------------------
 
Rotational constants in cm-1:     0.374680     0.136829     0.100227 
Rotational constants in MHz : 11232.616885  4102.027439  3004.732402 

 Dipole components along the rotational axes: 
x,y,z [a.u.] :     0.896786    -0.523952     0.000000 
x,y,z [Debye]:     2.279448    -1.331781     0.000000 

 

Timings for individual modules:

Sum of individual times         ...      146.773 sec (=   2.446 min)
GTO integral calculation        ...        4.067 sec (=   0.068 min)   2.8 %
SCF iterations                  ...      142.706 sec (=   2.378 min)  97.2 %
                             ****ORCA TERMINATED NORMALLY****
TOTAL RUN TIME: 0 days 0 hours 2 minutes 47 seconds 679 msec
