
                                 *****************
                                 * O   R   C   A *
                                 *****************

                                            #,                                       
                                            ###                                      
                                            ####                                     
                                            #####                                    
                                            ######                                   
                                           ########,                                 
                                     ,,################,,,,,                         
                               ,,#################################,,                 
                          ,,##########################################,,             
                       ,#########################################, ''#####,          
                    ,#############################################,,   '####,        
                  ,##################################################,,,,####,       
                ,###########''''           ''''###############################       
              ,#####''   ,,,,##########,,,,          '''####'''          '####       
            ,##' ,,,,###########################,,,                        '##       
           ' ,,###''''                  '''############,,,                           
         ,,##''                                '''############,,,,        ,,,,,,###''
      ,#''                                            '''#######################'''  
     '                                                          ''''####''''         
             ,#######,   #######,   ,#######,      ##                                
            ,#'     '#,  ##    ##  ,#'     '#,    #''#        ######   ,####,        
            ##       ##  ##   ,#'  ##            #'  '#       #        #'  '#        
            ##       ##  #######   ##           ,######,      #####,   #    #        
            '#,     ,#'  ##    ##  '#,     ,#' ,#      #,         ##   #,  ,#        
             '#######'   ##     ##  '#######'  #'      '#     #####' # '####'        



                  #######################################################
                  #                        -***-                        #
                  #          Department of theory and spectroscopy      #
                  #    Directorship and core code : Frank Neese         #
                  #        Max Planck Institute fuer Kohlenforschung    #
                  #                Kaiser Wilhelm Platz 1               #
                  #                 D-45470 Muelheim/Ruhr               #
                  #                      Germany                        #
                  #                                                     #
                  #                  All rights reserved                #
                  #                        -***-                        #
                  #######################################################


                         Program Version 5.0.3 -  RELEASE  -


 With contributions from (in alphabetic order):
   Daniel Aravena         : Magnetic Suceptibility
   Michael Atanasov       : Ab Initio Ligand Field Theory (pilot matlab implementation)
   Alexander A. Auer      : GIAO ZORA, VPT2 properties, NMR spectrum
   Ute Becker             : Parallelization
   Giovanni Bistoni       : ED, misc. LED, open-shell LED, HFLD
   Martin Brehm           : Molecular dynamics
   Dmytro Bykov           : SCF Hessian
   Vijay G. Chilkuri      : MRCI spin determinant printing, contributions to CSF-ICE
   Dipayan Datta          : RHF DLPNO-CCSD density
   Achintya Kumar Dutta   : EOM-CC, STEOM-CC
   Dmitry Ganyushin       : Spin-Orbit,Spin-Spin,Magnetic field MRCI
   Miquel Garcia          : C-PCM and meta-GGA Hessian, CC/C-PCM, Gaussian charge scheme
   Yang Guo               : DLPNO-NEVPT2, F12-NEVPT2, CIM, IAO-localization
   Andreas Hansen         : Spin unrestricted coupled pair/coupled cluster methods
   Benjamin Helmich-Paris : MC-RPA, TRAH-SCF, COSX integrals
   Lee Huntington         : MR-EOM, pCC
   Robert Izsak           : Overlap fitted RIJCOSX, COSX-SCS-MP3, EOM
   Marcus Kettner         : VPT2
   Christian Kollmar      : KDIIS, OOCD, Brueckner-CCSD(T), CCSD density, CASPT2, CASPT2-K
   Simone Kossmann        : Meta GGA functionals, TD-DFT gradient, OOMP2, MP2 Hessian
   Martin Krupicka        : Initial AUTO-CI
   Lucas Lang             : DCDCAS
   Marvin Lechner         : AUTO-CI (C++ implementation), FIC-MRCC
   Dagmar Lenk            : GEPOL surface, SMD
   Dimitrios Liakos       : Extrapolation schemes; Compound Job, initial MDCI parallelization
   Dimitrios Manganas     : Further ROCIS development; embedding schemes
   Dimitrios Pantazis     : SARC Basis sets
   Anastasios Papadopoulos: AUTO-CI, single reference methods and gradients
   Taras Petrenko         : DFT Hessian,TD-DFT gradient, ASA, ECA, R-Raman, ABS, FL, XAS/XES, NRVS
   Peter Pinski           : DLPNO-MP2, DLPNO-MP2 Gradient
   Christoph Reimann      : Effective Core Potentials
   Marius Retegan         : Local ZFS, SOC
   Christoph Riplinger    : Optimizer, TS searches, QM/MM, DLPNO-CCSD(T), (RO)-DLPNO pert. Triples
   Tobias Risthaus        : Range-separated hybrids, TD-DFT gradient, RPA, STAB
   Michael Roemelt        : Original ROCIS implementation
   Masaaki Saitow         : Open-shell DLPNO-CCSD energy and density
   Barbara Sandhoefer     : DKH picture change effects
   Avijit Sen             : IP-ROCIS
   Kantharuban Sivalingam : CASSCF convergence, NEVPT2, FIC-MRCI
   Bernardo de Souza      : ESD, SOC TD-DFT
   Georgi Stoychev        : AutoAux, RI-MP2 NMR, DLPNO-MP2 response
   Willem Van den Heuvel  : Paramagnetic NMR
   Boris Wezisla          : Elementary symmetry handling
   Frank Wennmohs         : Technical directorship


 We gratefully acknowledge several colleagues who have allowed us to
 interface, adapt or use parts of their codes:
   Stefan Grimme, W. Hujo, H. Kruse, P. Pracht,  : VdW corrections, initial TS optimization,
                  C. Bannwarth, S. Ehlert          DFT functionals, gCP, sTDA/sTD-DF
   Ed Valeev, F. Pavosevic, A. Kumar             : LibInt (2-el integral package), F12 methods
   Garnet Chan, S. Sharma, J. Yang, R. Olivares  : DMRG
   Ulf Ekstrom                                   : XCFun DFT Library
   Mihaly Kallay                                 : mrcc  (arbitrary order and MRCC methods)
   Jiri Pittner, Ondrej Demel                    : Mk-CCSD
   Frank Weinhold                                : gennbo (NPA and NBO analysis)
   Christopher J. Cramer and Donald G. Truhlar   : smd solvation model
   Lars Goerigk                                  : TD-DFT with DH, B97 family of functionals
   V. Asgeirsson, H. Jonsson                     : NEB implementation
   FAccTs GmbH                                   : IRC, NEB, NEB-TS, DLPNO-Multilevel, CI-OPT
                                                   MM, QMMM, 2- and 3-layer-ONIOM, Crystal-QMMM,
                                                   LR-CPCM, SF, NACMEs, symmetry and pop. for TD-DFT,
                                                   nearIR, NL-DFT gradient (VV10), updates on ESD,
                                                   ML-optimized integration grids
   S Lehtola, MJT Oliveira, MAL Marques          : LibXC Library
   Liviu Ungur et al                             : ANISO software


 Your calculation uses the libint2 library for the computation of 2-el integrals
 For citations please refer to: http://libint.valeyev.net

 Your ORCA version has been built with support for libXC version: 5.1.0
 For citations please refer to: https://tddft.org/programs/libxc/

 This ORCA versions uses:
   CBLAS   interface :  Fast vector & matrix operations
   LAPACKE interface :  Fast linear algebra routines
   SCALAPACK package :  Parallel linear algebra routines
   Shared memory     :  Shared parallel matrices
   BLAS/LAPACK       :  OpenBLAS 0.3.15  USE64BITINT DYNAMIC_ARCH NO_AFFINITY Haswell SINGLE_THREADED
        Core in use  :  Haswell
   Copyright (c) 2011-2014, The OpenBLAS Project




***************************************
The coordinates will be read from file: H4P2O7_4.xyz
***************************************


Your calculation utilizes the geometrical counterpoise correction gCP
Please cite in your paper:
H.Kruse, S. Grimme J.Chem.Phys., 136, (2012), 154101 
   

Your calculation utilizes the atom-pairwise dispersion correction
with the Becke-Johnson damping scheme (D3BJ)
Cite in your paper:
S.Grimme, S.Ehrlich, L.Goerigk, J Comput Chem, (2011), 32, 1456–1465 
S.Grimme, J.Antony, S.Ehrlich and H.Krieg, J.Chem.Phys., 132, (2010), 154104 
   

Your calculation employs the composite approach PBEh-3c.
Please cite in your paper:
S. Grimme, J. G. Brandenburg, C. Bannwarth, A. Hansen J.Chem.Phys., 143, (2015), 054107 
   

================================================================================

----- Orbital basis set information -----
Your calculation utilizes the basis: def2-mSVP

----- AuxJ basis set information -----
Your calculation utilizes the auxiliary basis: def2/J
   F. Weigend, Phys. Chem. Chem. Phys. 8, 1057 (2006).

================================================================================
                                        WARNINGS
                       Please study these warnings very carefully!
================================================================================


INFO   : the flag for use of the SHARK integral package has been found!

================================================================================
                                       INPUT FILE
================================================================================
NAME = pbeh-3c.inp
|  1> ! PBEh-3c def2/J TightSCF DefGrid3
|  2> 
|  3> %maxcore 60000
|  4> 
|  5> %pal
|  6> nprocs 4
|  7> end
|  8> 
|  9> *xyzfile 0 1 H4P2O7_4.xyz
| 10> 
| 11>                          ****END OF INPUT****
================================================================================

                       ****************************
                       * Single Point Calculation *
                       ****************************

---------------------------------
CARTESIAN COORDINATES (ANGSTROEM)
---------------------------------
  O      1.809183   -1.481976   -0.135639
  P      1.644269    0.110034   -0.021613
  O      2.625783    0.896028   -0.770130
  O      0.115151    0.345320   -0.626042
  P     -1.282693    0.120433    0.127280
  O     -1.139922    0.088554    1.598989
  O     -2.220410    1.241598   -0.508348
  O     -1.928698   -1.203247   -0.452377
  O      1.482194    0.383226    1.515022
  H      2.408222   -1.709284   -0.866539
  H     -1.955922    2.147253   -0.272546
  H     -2.092042   -1.182052   -1.410717
  H      0.534884    0.244113    1.822660

----------------------------
CARTESIAN COORDINATES (A.U.)
----------------------------
  NO LB      ZA    FRAG     MASS         X           Y           Z
   0 O     8.0000    0    15.999    3.418860   -2.800529   -0.256321
   1 P    15.0000    0    30.974    3.107218    0.207935   -0.040842
   2 O     8.0000    0    15.999    4.962011    1.693248   -1.455335
   3 O     8.0000    0    15.999    0.217603    0.652560   -1.183049
   4 P    15.0000    0    30.974   -2.423938    0.227585    0.240524
   5 O     8.0000    0    15.999   -2.154141    0.167344    3.021651
   6 O     8.0000    0    15.999   -4.195966    2.346280   -0.960638
   7 O     8.0000    0    15.999   -3.644711   -2.273807   -0.854868
   8 O     8.0000    0    15.999    2.800940    0.724193    2.862978
   9 H     1.0000    0     1.008    4.550881   -3.230078   -1.637521
  10 H     1.0000    0     1.008   -3.696157    4.057719   -0.515037
  11 H     1.0000    0     1.008   -3.953385   -2.233755   -2.665870
  12 H     1.0000    0     1.008    1.010785    0.461306    3.444329

--------------------------------
INTERNAL COORDINATES (ANGSTROEM)
--------------------------------
 O      0   0   0     0.000000000000     0.00000000     0.00000000
 P      1   0   0     1.604585833630     0.00000000     0.00000000
 O      2   1   0     1.463364201811   115.31668762     0.00000000
 O      2   1   3     1.660992973202   102.08135221   120.20875775
 P      4   2   1     1.603756331048   127.70604466    79.25947780
 O      5   4   2     1.478961758535   112.72464265    18.92349088
 O      5   4   2     1.593846760469   103.11061492   147.19602621
 O      5   4   2     1.582862241097   107.51599663   254.11960924
 O      2   1   3     1.569124045694   104.65202572   228.03091503
 H      1   2   3     0.971972896715   110.41451212   345.87302155
 H      7   5   4     0.972505267002   113.47664775   292.65607281
 H      8   5   4     0.972392490056   114.28308475   300.66610662
 H      9   2   1     1.005678055860   111.88710723   277.23031840

---------------------------
INTERNAL COORDINATES (A.U.)
---------------------------
 O      0   0   0     0.000000000000     0.00000000     0.00000000
 P      1   0   0     3.032227783930     0.00000000     0.00000000
 O      2   1   0     2.765357575607   115.31668762     0.00000000
 O      2   1   3     3.138821829720   102.08135221   120.20875775
 P      4   2   1     3.030660251223   127.70604466    79.25947780
 O      5   4   2     2.794832686174   112.72464265    18.92349088
 O      5   4   2     3.011933876723   103.11061492   147.19602621
 O      5   4   2     2.991176143397   107.51599663   254.11960924
 O      2   1   3     2.965214716511   104.65202572   228.03091503
 H      1   2   3     1.836762584385   110.41451212   345.87302155
 H      7   5   4     1.837768618430   113.47664775   292.65607281
 H      8   5   4     1.837555500888   114.28308475   300.66610662
 H      9   2   1     1.900456104471   111.88710723   277.23031840

---------------------
BASIS SET INFORMATION
---------------------
There are 3 groups of distinct atoms

 Group   1 Type O   : 8s4p1d contracted to 4s2p1d pattern {5111/31/1}
 Group   2 Type P   : 10s7p1d contracted to 4s3p1d pattern {5311/511/1}
 Group   3 Type H   : 4s contracted to 2s pattern {31}

Atom   0O    basis set group =>   1
Atom   1P    basis set group =>   2
Atom   2O    basis set group =>   1
Atom   3O    basis set group =>   1
Atom   4P    basis set group =>   2
Atom   5O    basis set group =>   1
Atom   6O    basis set group =>   1
Atom   7O    basis set group =>   1
Atom   8O    basis set group =>   1
Atom   9H    basis set group =>   3
Atom  10H    basis set group =>   3
Atom  11H    basis set group =>   3
Atom  12H    basis set group =>   3
---------------------------------
AUXILIARY/J BASIS SET INFORMATION
---------------------------------
There are 3 groups of distinct atoms

 Group   1 Type O   : 12s5p4d2f1g contracted to 6s4p3d1f1g pattern {711111/2111/211/2/1}
 Group   2 Type P   : 14s5p5d2f1g contracted to 8s4p3d1f1g pattern {71111111/2111/311/2/1}
 Group   3 Type H   : 5s2p1d contracted to 3s1p1d pattern {311/2/1}

Atom   0O    basis set group =>   1
Atom   1P    basis set group =>   2
Atom   2O    basis set group =>   1
Atom   3O    basis set group =>   1
Atom   4P    basis set group =>   2
Atom   5O    basis set group =>   1
Atom   6O    basis set group =>   1
Atom   7O    basis set group =>   1
Atom   8O    basis set group =>   1
Atom   9H    basis set group =>   3
Atom  10H    basis set group =>   3
Atom  11H    basis set group =>   3
Atom  12H    basis set group =>   3


           ************************************************************
           *        Program running with 4 parallel MPI-processes     *
           *              working on a common directory               *
           ************************************************************
------------------------------------------------------------------------------
                           ORCA GTO INTEGRAL CALCULATION
                           -- RI-GTO INTEGRALS CHOSEN --
------------------------------------------------------------------------------
------------------------------------------------------------------------------
                   ___                                                        
                  /   \      - P O W E R E D   B Y -                         
                 /     \                                                     
                 |  |  |   _    _      __       _____    __    __             
                 |  |  |  | |  | |    /  \     |  _  \  |  |  /  |          
                  \  \/   | |  | |   /    \    | | | |  |  | /  /          
                 / \  \   | |__| |  /  /\  \   | |_| |  |  |/  /          
                |  |  |   |  __  | /  /__\  \  |    /   |      \           
                |  |  |   | |  | | |   __   |  |    \   |  |\   \          
                \     /   | |  | | |  |  |  |  | |\  \  |  | \   \       
                 \___/    |_|  |_| |__|  |__|  |_| \__\ |__|  \__/        
                                                                              
                      - O R C A' S   B I G   F R I E N D -                    
                                      &                                       
                       - I N T E G R A L  F E E D E R -                       
                                                                              
 v1 FN, 2020, v2 2021                                                         
------------------------------------------------------------------------------


Reading SHARK input file pbeh-3c.SHARKINP.tmp ... ok
----------------------
SHARK INTEGRAL PACKAGE
----------------------

Number of atoms                             ...     13
Number of basis functions                   ...    149
Number of shells                            ...     73
Maximum angular momentum                    ...      2
Integral batch strategy                     ... SHARK/LIBINT Hybrid
RI-J (if used) integral strategy            ... SPLIT-RIJ (Revised 2003 algorithm where possible)
Printlevel                                  ...      1
Contraction scheme used                     ... SEGMENTED contraction
Coulomb Range Separation                    ... NOT USED
Exchange Range Separation                   ... NOT USED
Finite Nucleus Model                        ... NOT USED
Auxiliary Coulomb fitting basis             ... AVAILABLE
   # of basis functions in Aux-J            ...    489
   # of shells in Aux-J                     ...    159
   Maximum angular momentum in Aux-J        ...      4
Auxiliary J/K fitting basis                 ... NOT available
Auxiliary Correlation fitting basis         ... NOT available
Auxiliary 'external' fitting basis          ... NOT available
Integral threshold                          ...     2.500000e-11
Primitive cut-off                           ...     2.500000e-12
Primitive pair pre-selection threshold      ...     2.500000e-12

Calculating pre-screening integrals         ... done (  0.1 sec) Dimension = 73
Organizing shell pair data                  ... done (  0.6 sec)
Shell pair information
Total number of shell pairs                 ...      2701
Shell pairs after pre-screening             ...      2302
Total number of primitive shell pairs       ...     10445
Primitive shell pairs kept                  ...      6067
          la=0 lb=0:    753 shell pairs
          la=1 lb=0:    796 shell pairs
          la=1 lb=1:    199 shell pairs
          la=2 lb=0:    342 shell pairs
          la=2 lb=1:    170 shell pairs
          la=2 lb=2:     42 shell pairs

Calculating one electron integrals          ... done (  0.0 sec)
Calculating RI/J V-Matrix + Cholesky decomp.... done (  0.8 sec)
Calculating Nuclear repulsion               ... done (  0.1 sec) ENN=    776.595256629228 Eh

SHARK setup successfully completed in   2.9 seconds

Maximum memory used throughout the entire GTOINT-calculation: 11.0 MB


           ************************************************************
           *        Program running with 4 parallel MPI-processes     *
           *              working on a common directory               *
           ************************************************************
-------------------------------------------------------------------------------
                                 ORCA SCF
-------------------------------------------------------------------------------

------------
SCF SETTINGS
------------
Hamiltonian:
 Density Functional     Method          .... DFT(GTOs)
 Exchange Functional    Exchange        .... PBE
   PBE kappa parameter   XKappa         ....  1.024500
   PBE mue parameter    XMuePBE         ....  0.123457
 Correlation Functional Correlation     .... PBE
   PBE beta parameter  CBetaPBE         ....  0.030000
 LDA part of GGA corr.  LDAOpt          .... PW91-LDA
 Gradients option       PostSCFGGA      .... off
 Hybrid DFT is turned on
   Fraction HF Exchange ScalHFX         ....  0.420000
   Scaling of DF-GGA-X  ScalDFX         ....  0.580000
   Scaling of DF-GGA-C  ScalDFC         ....  1.000000
   Scaling of DF-LDA-C  ScalLDAC        ....  1.000000
   Perturbative correction              ....  0.000000
   Density functional embedding theory  .... OFF
 RI-approximation to the Coulomb term is turned on
   Number of AuxJ basis functions       .... 489
   RIJ-ON(X) (HFX calculated with O(N)) .... on
   Number of AuxJ basis functions       .... 489
   RIJ-COSX (HFX calculated with COS-X)).... on


General Settings:
 Integral files         IntName         .... pbeh-3c
 Hartree-Fock type      HFTyp           .... RHF
 Total Charge           Charge          ....    0
 Multiplicity           Mult            ....    1
 Number of Electrons    NEL             ....   90
 Basis Dimension        Dim             ....  149
 Nuclear Repulsion      ENuc            ....    776.5952566292 Eh

Convergence Acceleration:
 DIIS                   CNVDIIS         .... on
   Start iteration      DIISMaxIt       ....    12
   Startup error        DIISStart       ....  0.200000
   # of expansion vecs  DIISMaxEq       ....     5
   Bias factor          DIISBfac        ....   1.050
   Max. coefficient     DIISMaxC        ....  10.000
 Trust-Rad. Augm. Hess. CNVTRAH         .... auto
   Auto Start mean grad. ratio tolernc. ....  1.125000
   Auto Start start iteration           ....    20
   Auto Start num. interpolation iter.  ....    10
   Max. Number of Micro iterations      ....    16
   Max. Number of Macro iterations      .... Maxiter - #DIIS iter
   Number of Davidson start vectors     ....     2
   Converg. threshold I  (grad. norm)   ....   1.000e-05
   Converg. threshold II (energy diff.) ....   1.000e-08
   Grad. Scal. Fac. for Micro threshold ....   0.100
   Minimum threshold for Micro iter.    ....   0.010
   NR start threshold (gradient norm)   ....   0.001
   Initial trust radius                 ....   0.400
   Minimum AH scaling param. (alpha)    ....   1.000
   Maximum AH scaling param. (alpha)    .... 1000.000
   Orbital update algorithm             .... Taylor
   White noise on init. David. guess    .... on
   Maximum white noise                  ....   0.010
   Quad. conv. algorithm                .... NR
   COSX micro iterations for RIJONX calc.... off
 SOSCF                  CNVSOSCF        .... on
   Start iteration      SOSCFMaxIt      ....   150
   Startup grad/error   SOSCFStart      ....  0.003300
 Level Shifting         CNVShift        .... on
   Level shift para.    LevelShift      ....    0.2500
   Turn off err/grad.   ShiftErr        ....    0.0010
 Zerner damping         CNVZerner       .... off
 Static damping         CNVDamp         .... on
   Fraction old density DampFac         ....    0.7000
   Max. Damping (<1)    DampMax         ....    0.9800
   Min. Damping (>=0)   DampMin         ....    0.0000
   Turn off err/grad.   DampErr         ....    0.1000
 Fernandez-Rico         CNVRico         .... off

SCF Procedure:
 Maximum # iterations   MaxIter         ....   125
 SCF integral mode      SCFMode         .... Direct
   Integral package                     .... SHARK and LIBINT hybrid scheme
 Reset frequency        DirectResetFreq ....    20
 Integral Threshold     Thresh          ....  2.500e-11 Eh
 Primitive CutOff       TCut            ....  2.500e-12 Eh

Convergence Tolerance:
 Convergence Check Mode ConvCheckMode   .... Total+1el-Energy
 Convergence forced     ConvForced      .... 0
 Energy Change          TolE            ....  1.000e-08 Eh
 1-El. energy change                    ....  1.000e-05 Eh
 Orbital Gradient       TolG            ....  1.000e-05
 Orbital Rotation angle TolX            ....  1.000e-05
 DIIS Error             TolErr          ....  5.000e-07


Diagonalization of the overlap matrix:
Smallest eigenvalue                        ... 1.223e-02
Time for diagonalization                   ...    0.024 sec
Threshold for overlap eigenvalues          ... 1.000e-08
Number of eigenvalues below threshold      ... 0
Time for construction of square roots      ...    0.150 sec
Total time needed                          ...    0.186 sec

--------------------------------
INITIAL GUESS: MINIMAL BASIS EHT
--------------------------------
The minimal basis has 57 functions
EHT matrix was diagonalized
Basis set overlap was calculated now projecting the orbitals
Using GuessMode=FMatrix for the initial guess
C*T matrix was formed
Effective Fockian was calculated
Effective Fockian was diagonalized
Initial density was built
                      ------------------
                      INITIAL GUESS DONE
                      ------------------
-------------------
DFT GRID GENERATION
-------------------

General Integration Accuracy     IntAcc      ... 4.959
Radial Grid Type                 RadialGrid  ... OptM3 with GC (2021)
Angular Grid (max. ang.)         AngularGrid ... 6 (Lebedev-590)
Angular grid pruning method      GridPruning ... 4 (adaptive)
Weight generation scheme         WeightScheme... Becke
Basis function cutoff            BFCut       ... 1.0000e-11
Integration weight cutoff        WCut        ... 1.0000e-14
Angular grids for H and He will be reduced by one unit
Partially contracted basis set               ... off
Rotationally invariant grid construction     ... off

Total number of grid points                  ...   168510
Total number of batches                      ...     2641
Average number of points per batch           ...       63
Average number of grid points per atom       ...    12962
Time for grid setup =    5.469 sec

--------------------
COSX GRID GENERATION
--------------------

GRIDX 1
-------
General Integration Accuracy     IntAcc      ... 4.020
Radial Grid Type                 RadialGrid  ... OptM3 with GC (2021)
Angular Grid (max. ang.)         AngularGrid ... 2 (Lebedev-110)
Angular grid pruning method      GridPruning ... 4 (adaptive)
Weight generation scheme         WeightScheme... Becke
Basis function cutoff            BFCut       ... 1.0000e-11
Integration weight cutoff        WCut        ... 1.0000e-14
Angular grids for H and He will be reduced by one unit
Partially contracted basis set               ... on
Rotationally invariant grid construction     ... off

Total number of grid points                  ...    19812
Total number of batches                      ...      317
Average number of points per batch           ...       62
Average number of grid points per atom       ...     1524
UseSFitting                                  ... on

GRIDX 2
-------
General Integration Accuracy     IntAcc      ... 4.338
Radial Grid Type                 RadialGrid  ... OptM3 with GC (2021)
Angular Grid (max. ang.)         AngularGrid ... 3 (Lebedev-194)
Angular grid pruning method      GridPruning ... 4 (adaptive)
Weight generation scheme         WeightScheme... Becke
Basis function cutoff            BFCut       ... 1.0000e-11
Integration weight cutoff        WCut        ... 1.0000e-14
Angular grids for H and He will be reduced by one unit
Partially contracted basis set               ... on
Rotationally invariant grid construction     ... off

Total number of grid points                  ...    44894
Total number of batches                      ...      708
Average number of points per batch           ...       63
Average number of grid points per atom       ...     3453
UseSFitting                                  ... on

GRIDX 3
-------
General Integration Accuracy     IntAcc      ... 4.871
Radial Grid Type                 RadialGrid  ... OptM3 with GC (2021)
Angular Grid (max. ang.)         AngularGrid ... 4 (Lebedev-302)
Angular grid pruning method      GridPruning ... 4 (adaptive)
Weight generation scheme         WeightScheme... Becke
Basis function cutoff            BFCut       ... 1.0000e-11
Integration weight cutoff        WCut        ... 1.0000e-14
Angular grids for H and He will be reduced by one unit
Partially contracted basis set               ... on
Rotationally invariant grid construction     ... off

Total number of grid points                  ...    82078
Total number of batches                      ...     1290
Average number of points per batch           ...       63
Average number of grid points per atom       ...     6314
UseSFitting                                  ... on

Time for X-Grid setup             =    6.499 sec

--------------
SCF ITERATIONS
--------------
ITER       Energy         Delta-E        Max-DP      RMS-DP      [F,P]     Damp
               ***  Starting incremental Fock matrix formation  ***
  0  -1206.6212792236   0.000000000000 0.41624746  0.00913022  0.7043643 0.7000
  1  -1207.9455549475  -1.324275723853 0.15224521  0.00466238  0.3584128 0.7000
  2  -1208.5786305491  -0.633075601648 0.05383764  0.00236078  0.2529834 0.7000
                               ***Turning on DIIS***
  3  -1209.0083236294  -0.429693080236 0.02983362  0.00150266  0.1751773 0.7000
  4  -1209.3142821860  -0.305958556617 0.02129516  0.00105594  0.1198069 0.7000
  5  -1209.5297424662  -0.215460280232 0.04315824  0.00251401  0.0827671 0.0000
  6  -1210.0375798334  -0.507837367194 0.00608180  0.00016880  0.0065686 0.0000
  7  -1210.0377440161  -0.000164182743 0.00220160  0.00005825  0.0038287 0.0000
                      *** Initiating the SOSCF procedure ***
                           *** Shutting down DIIS ***
                      *** Re-Reading the Fockian *** 
                      *** Removing any level shift *** 
ITER      Energy       Delta-E        Grad      Rot      Max-DP    RMS-DP
  8  -1210.03779092  -0.0000469041  0.000294  0.000294  0.000804  0.000040
               *** Restarting incremental Fock matrix formation ***
  9  -1210.03780473  -0.0000138091  0.000174  0.000352  0.000950  0.000024
 10  -1210.03780355   0.0000011836  0.000252  0.000206  0.000554  0.000014
 11  -1210.03780598  -0.0000024330  0.000021  0.000021  0.000066  0.000002
 12  -1210.03780598  -0.0000000009  0.000020  0.000009  0.000036  0.000001
                  ***Gradient check signals convergence***
              ***Rediagonalizing the Fockian in SOSCF/NRSCF***

               *****************************************************
               *                     SUCCESS                       *
               *           SCF CONVERGED AFTER  13 CYCLES          *
               *****************************************************

Old exchange energy                            =    -43.981702670 Eh
New exchange energy                            =    -43.981710731 Eh
Exchange energy change after final integration =     -0.000008061 Eh
Total energy after final integration           =  -1210.037814051 Eh
Final COS-X integration done in                =     3.844 sec

----------------
TOTAL SCF ENERGY
----------------

Total Energy       :        -1210.03781405 Eh          -32926.80289 eV

Components:
Nuclear Repulsion  :          776.59525663 Eh           21132.23127 eV
Electronic Energy  :        -1986.63307068 Eh          -54059.03416 eV
One Electron Energy:        -3216.79201939 Eh          -87533.36096 eV
Two Electron Energy:         1230.15894871 Eh           33474.32680 eV
Max COSX asymmetry :            0.00000306 Eh               0.00008 eV

Virial components:
Potential Energy   :        -2414.94112009 Eh          -65713.88871 eV
Kinetic Energy     :         1204.90330604 Eh           32787.08582 eV
Virial Ratio       :            2.00426134


DFT components:
N(Alpha)           :       45.000002104174 electrons
N(Beta)            :       45.000002104174 electrons
N(Total)           :       90.000004208347 electrons
E(X)               :      -58.674248904424 Eh       
E(C)               :       -4.335696733273 Eh       
E(XC)              :      -63.009945637697 Eh       
DFET-embed. en.    :        0.000000000000 Eh       

---------------
SCF CONVERGENCE
---------------

  Last Energy change         ...   -1.1010e-08  Tolerance :   1.0000e-08
  Last MAX-Density change    ...    5.7732e-15  Tolerance :   1.0000e-07
  Last RMS-Density change    ...    8.2091e-17  Tolerance :   5.0000e-09
  Last Orbital Gradient      ...    6.4813e-07  Tolerance :   1.0000e-05
  Last Orbital Rotation      ...    1.4512e-06  Tolerance :   1.0000e-05

             **** THE GBW FILE WAS UPDATED (pbeh-3c.gbw) ****
             **** DENSITY pbeh-3c.scfp WAS UPDATED ****
             **** ENERGY FILE WAS UPDATED (pbeh-3c.en.tmp) ****
             **** THE GBW FILE WAS UPDATED (pbeh-3c.gbw) ****
             **** DENSITY pbeh-3c.scfp WAS UPDATED ****
----------------
ORBITAL ENERGIES
----------------

  NO   OCC          E(Eh)            E(eV) 
   0   2.0000     -77.956762     -2121.3114 
   1   2.0000     -77.927601     -2120.5178 
   2   2.0000     -19.572881      -532.6052 
   3   2.0000     -19.570472      -532.5396 
   4   2.0000     -19.569762      -532.5203 
   5   2.0000     -19.546009      -531.8739 
   6   2.0000     -19.530933      -531.4637 
   7   2.0000     -19.499226      -530.6009 
   8   2.0000     -19.462951      -529.6138 
   9   2.0000      -7.000663      -190.4977 
  10   2.0000      -6.971846      -189.7136 
  11   2.0000      -5.095085      -138.6443 
  12   2.0000      -5.094596      -138.6310 
  13   2.0000      -5.093214      -138.5934 
  14   2.0000      -5.066837      -137.8756 
  15   2.0000      -5.065272      -137.8331 
  16   2.0000      -5.063931      -137.7966 
  17   2.0000      -1.259331       -34.2681 
  18   2.0000      -1.217915       -33.1412 
  19   2.0000      -1.183248       -32.1978 
  20   2.0000      -1.166756       -31.7490 
  21   2.0000      -1.151191       -31.3255 
  22   2.0000      -1.114089       -30.3159 
  23   2.0000      -1.078726       -29.3536 
  24   2.0000      -0.774357       -21.0713 
  25   2.0000      -0.722549       -19.6616 
  26   2.0000      -0.673175       -18.3180 
  27   2.0000      -0.665692       -18.1144 
  28   2.0000      -0.634768       -17.2729 
  29   2.0000      -0.576089       -15.6762 
  30   2.0000      -0.552665       -15.0388 
  31   2.0000      -0.532881       -14.5004 
  32   2.0000      -0.522968       -14.2307 
  33   2.0000      -0.508537       -13.8380 
  34   2.0000      -0.487529       -13.2663 
  35   2.0000      -0.475023       -12.9260 
  36   2.0000      -0.459313       -12.4985 
  37   2.0000      -0.458070       -12.4647 
  38   2.0000      -0.442770       -12.0484 
  39   2.0000      -0.435269       -11.8443 
  40   2.0000      -0.411691       -11.2027 
  41   2.0000      -0.402177       -10.9438 
  42   2.0000      -0.395825       -10.7709 
  43   2.0000      -0.369110       -10.0440 
  44   2.0000      -0.362586        -9.8665 
  45   0.0000       0.049517         1.3474 
  46   0.0000       0.093268         2.5379 
  47   0.0000       0.097607         2.6560 
  48   0.0000       0.124015         3.3746 
  49   0.0000       0.137377         3.7382 
  50   0.0000       0.147078         4.0022 
  51   0.0000       0.168586         4.5874 
  52   0.0000       0.183303         4.9879 
  53   0.0000       0.194216         5.2849 
  54   0.0000       0.222347         6.0504 
  55   0.0000       0.243113         6.6154 
  56   0.0000       0.287669         7.8279 
  57   0.0000       0.312350         8.4995 
  58   0.0000       0.380442        10.3524 
  59   0.0000       0.510704        13.8970 
  60   0.0000       0.520894        14.1743 
  61   0.0000       0.541224        14.7275 
  62   0.0000       0.559075        15.2132 
  63   0.0000       0.572797        15.5866 
  64   0.0000       0.579825        15.7778 
  65   0.0000       0.614769        16.7287 
  66   0.0000       0.627849        17.0846 
  67   0.0000       0.639233        17.3944 
  68   0.0000       0.692810        18.8523 
  69   0.0000       0.781488        21.2654 
  70   0.0000       0.805664        21.9232 
  71   0.0000       0.820667        22.3315 
  72   0.0000       0.837365        22.7859 
  73   0.0000       0.873430        23.7672 
  74   0.0000       0.882885        24.0245 
  75   0.0000       0.920412        25.0457 
  76   0.0000       0.940830        25.6013 
  77   0.0000       0.973432        26.4884 
  78   0.0000       0.980013        26.6675 
  79   0.0000       0.997273        27.1372 
  80   0.0000       1.019212        27.7342 
  81   0.0000       1.043768        28.4024 
  82   0.0000       1.049145        28.5487 
  83   0.0000       1.066333        29.0164 
  84   0.0000       1.077073        29.3087 
  85   0.0000       1.106888        30.1200 
  86   0.0000       1.117685        30.4137 
  87   0.0000       1.125085        30.6151 
  88   0.0000       1.155096        31.4318 
  89   0.0000       1.176981        32.0273 
  90   0.0000       1.190796        32.4032 
  91   0.0000       1.229012        33.4431 
  92   0.0000       1.229627        33.4599 
  93   0.0000       1.255055        34.1518 
  94   0.0000       1.286221        34.9999 
  95   0.0000       1.293967        35.2106 
  96   0.0000       1.318360        35.8744 
  97   0.0000       1.333299        36.2809 
  98   0.0000       1.410981        38.3947 
  99   0.0000       1.447714        39.3943 
 100   0.0000       1.709996        46.5314 
 101   0.0000       1.715954        46.6935 
 102   0.0000       1.744952        47.4826 
 103   0.0000       1.762653        47.9642 
 104   0.0000       1.765203        48.0336 
 105   0.0000       1.770475        48.1771 
 106   0.0000       1.776392        48.3381 
 107   0.0000       1.778345        48.3912 
 108   0.0000       1.786821        48.6219 
 109   0.0000       1.793827        48.8125 
 110   0.0000       1.810778        49.2738 
 111   0.0000       1.817539        49.4578 
 112   0.0000       1.831131        49.8276 
 113   0.0000       1.852630        50.4126 
 114   0.0000       1.872089        50.9421 
 115   0.0000       1.883956        51.2650 
 116   0.0000       1.897633        51.6372 
 117   0.0000       1.920141        52.2497 
 118   0.0000       1.965361        53.4802 
 119   0.0000       2.002959        54.5033 
 120   0.0000       2.053936        55.8904 
 121   0.0000       2.121471        57.7282 
 122   0.0000       2.130429        57.9719 
 123   0.0000       2.178541        59.2811 
 124   0.0000       2.186043        59.4852 
 125   0.0000       2.226355        60.5822 
 126   0.0000       2.263066        61.5812 
 127   0.0000       2.304002        62.6951 
 128   0.0000       2.336541        63.5805 
 129   0.0000       2.362504        64.2870 
 130   0.0000       2.471687        67.2580 
 131   0.0000       2.502241        68.0894 
 132   0.0000       2.552807        69.4654 
 133   0.0000       2.590023        70.4781 
 134   0.0000       2.591896        70.5291 
 135   0.0000       2.623520        71.3896 
 136   0.0000       2.654485        72.2322 
 137   0.0000       2.700028        73.4715 
 138   0.0000       2.713613        73.8412 
 139   0.0000       2.761213        75.1364 
 140   0.0000       2.827757        76.9472 
 141   0.0000       2.868479        78.0553 
 142   0.0000      25.389747       690.8901 
 143   0.0000      25.443681       692.3577 
 144   0.0000      25.457954       692.7462 
 145   0.0000      25.560094       695.5255 
 146   0.0000      25.589781       696.3334 
 147   0.0000      25.637892       697.6425 
 148   0.0000      25.696802       699.2455 

                    ********************************
                    * MULLIKEN POPULATION ANALYSIS *
                    ********************************

-----------------------
MULLIKEN ATOMIC CHARGES
-----------------------
   0 O :   -0.712693
   1 P :    1.435342
   2 O :   -0.606961
   3 O :   -0.696806
   4 P :    1.450625
   5 O :   -0.657493
   6 O :   -0.699510
   7 O :   -0.680093
   8 O :   -0.728865
   9 H :    0.464295
  10 H :    0.472980
  11 H :    0.468152
  12 H :    0.491027
Sum of atomic charges:   -0.0000000

--------------------------------
MULLIKEN REDUCED ORBITAL CHARGES
--------------------------------
  0 O s       :     3.814625  s :     3.814625
      pz      :     1.649993  p :     4.873086
      px      :     1.719969
      py      :     1.503124
      dz2     :     0.004580  d :     0.024983
      dxz     :     0.007483
      dyz     :     0.003247
      dx2y2   :     0.006570
      dxy     :     0.003104
  1 P s       :     4.907501  s :     4.907501
      pz      :     2.655178  p :     7.925765
      px      :     2.627610
      py      :     2.642978
      dz2     :     0.186859  d :     0.731392
      dxz     :     0.122375
      dyz     :     0.121635
      dx2y2   :     0.188791
      dxy     :     0.111732
  2 O s       :     3.809630  s :     3.809630
      pz      :     1.607657  p :     4.768782
      px      :     1.554212
      py      :     1.606913
      dz2     :     0.005096  d :     0.028549
      dxz     :     0.005887
      dyz     :     0.004785
      dx2y2   :     0.006572
      dxy     :     0.006209
  3 O s       :     3.800573  s :     3.800573
      pz      :     1.719685  p :     4.876672
      px      :     1.352210
      py      :     1.804777
      dz2     :     0.003687  d :     0.019561
      dxz     :     0.006706
      dyz     :     0.003346
      dx2y2   :     0.003340
      dxy     :     0.002481
  4 P s       :     4.900066  s :     4.900066
      pz      :     2.633149  p :     7.908304
      px      :     2.623879
      py      :     2.651276
      dz2     :     0.148236  d :     0.741005
      dxz     :     0.171820
      dyz     :     0.172414
      dx2y2   :     0.111304
      dxy     :     0.137231
  5 O s       :     3.821545  s :     3.821545
      pz      :     1.408966  p :     4.809058
      px      :     1.694150
      py      :     1.705942
      dz2     :     0.010317  d :     0.026889
      dxz     :     0.007539
      dyz     :     0.008322
      dx2y2   :     0.000593
      dxy     :     0.000118
  6 O s       :     3.808035  s :     3.808035
      pz      :     1.796478  p :     4.867041
      px      :     1.725955
      py      :     1.344609
      dz2     :     0.003857  d :     0.024434
      dxz     :     0.005011
      dyz     :     0.004066
      dx2y2   :     0.004719
      dxy     :     0.006781
  7 O s       :     3.808083  s :     3.808083
      pz      :     1.436697  p :     4.846788
      px      :     1.791150
      py      :     1.618940
      dz2     :     0.010839  d :     0.025221
      dxz     :     0.000868
      dyz     :     0.003485
      dx2y2   :     0.004782
      dxy     :     0.005248
  8 O s       :     3.811911  s :     3.811911
      pz      :     1.455703  p :     4.891668
      px      :     1.600699
      py      :     1.835266
      dz2     :     0.008787  d :     0.025286
      dxz     :     0.003730
      dyz     :     0.004504
      dx2y2   :     0.006269
      dxy     :     0.001995
  9 H s       :     0.535705  s :     0.535705
 10 H s       :     0.527020  s :     0.527020
 11 H s       :     0.531848  s :     0.531848
 12 H s       :     0.508973  s :     0.508973


                     *******************************
                     * LOEWDIN POPULATION ANALYSIS *
                     *******************************

----------------------
LOEWDIN ATOMIC CHARGES
----------------------
   0 O :   -0.460773
   1 P :    0.908392
   2 O :   -0.494378
   3 O :   -0.413845
   4 P :    0.909413
   5 O :   -0.513163
   6 O :   -0.444409
   7 O :   -0.423557
   8 O :   -0.454393
   9 H :    0.345671
  10 H :    0.350748
  11 H :    0.349450
  12 H :    0.340844

-------------------------------
LOEWDIN REDUCED ORBITAL CHARGES
-------------------------------
  0 O s       :     3.542383  s :     3.542383
      pz      :     1.637491  p :     4.881294
      px      :     1.706873
      py      :     1.536929
      dz2     :     0.007204  d :     0.037096
      dxz     :     0.009159
      dyz     :     0.004379
      dx2y2   :     0.012326
      dxy     :     0.004029
  1 P s       :     4.823936  s :     4.823936
      pz      :     2.747285  p :     8.201643
      px      :     2.711076
      py      :     2.743282
      dz2     :     0.276822  d :     1.066029
      dxz     :     0.179067
      dyz     :     0.168739
      dx2y2   :     0.281035
      dxy     :     0.160366
  2 O s       :     3.595688  s :     3.595688
      pz      :     1.627956  p :     4.856716
      px      :     1.595522
      py      :     1.633238
      dz2     :     0.005641  d :     0.041974
      dxz     :     0.010241
      dyz     :     0.007684
      dx2y2   :     0.007275
      dxy     :     0.011134
  3 O s       :     3.503025  s :     3.503025
      pz      :     1.715428  p :     4.875044
      px      :     1.383100
      py      :     1.776516
      dz2     :     0.004882  d :     0.035775
      dxz     :     0.014307
      dyz     :     0.003299
      dx2y2   :     0.007974
      dxy     :     0.005312
  4 P s       :     4.815482  s :     4.815482
      pz      :     2.769614  p :     8.194928
      px      :     2.704223
      py      :     2.721092
      dz2     :     0.225241  d :     1.080177
      dxz     :     0.243119
      dyz     :     0.236927
      dx2y2   :     0.166580
      dxy     :     0.208310
  5 O s       :     3.591934  s :     3.591934
      pz      :     1.516196  p :     4.881470
      px      :     1.672399
      py      :     1.692875
      dz2     :     0.021848  d :     0.039759
      dxz     :     0.008052
      dyz     :     0.008802
      dx2y2   :     0.000830
      dxy     :     0.000227
  6 O s       :     3.533122  s :     3.533122
      pz      :     1.791401  p :     4.874517
      px      :     1.733106
      py      :     1.350009
      dz2     :     0.004689  d :     0.036770
      dxz     :     0.006067
      dyz     :     0.007085
      dx2y2   :     0.007072
      dxy     :     0.011857
  7 O s       :     3.527846  s :     3.527846
      pz      :     1.427601  p :     4.858134
      px      :     1.783450
      py      :     1.647084
      dz2     :     0.015878  d :     0.037576
      dxz     :     0.001732
      dyz     :     0.005645
      dx2y2   :     0.006574
      dxy     :     0.007746
  8 O s       :     3.527584  s :     3.527584
      pz      :     1.507614  p :     4.889265
      px      :     1.562238
      py      :     1.819413
      dz2     :     0.017080  d :     0.037544
      dxz     :     0.005100
      dyz     :     0.005643
      dx2y2   :     0.007534
      dxy     :     0.002188
  9 H s       :     0.654329  s :     0.654329
 10 H s       :     0.649252  s :     0.649252
 11 H s       :     0.650550  s :     0.650550
 12 H s       :     0.659156  s :     0.659156


                      *****************************
                      * MAYER POPULATION ANALYSIS *
                      *****************************

  NA   - Mulliken gross atomic population
  ZA   - Total nuclear charge
  QA   - Mulliken gross atomic charge
  VA   - Mayer's total valence
  BVA  - Mayer's bonded valence
  FA   - Mayer's free valence

  ATOM       NA         ZA         QA         VA         BVA        FA
  0 O      8.7127     8.0000    -0.7127     1.8859     1.8859     0.0000
  1 P     13.5647    15.0000     1.4353     5.0749     5.0749    -0.0000
  2 O      8.6070     8.0000    -0.6070     2.0457     2.0457    -0.0000
  3 O      8.6968     8.0000    -0.6968     1.9379     1.9379    -0.0000
  4 P     13.5494    15.0000     1.4506     5.0740     5.0740     0.0000
  5 O      8.6575     8.0000    -0.6575     1.9998     1.9998    -0.0000
  6 O      8.6995     8.0000    -0.6995     1.9021     1.9021    -0.0000
  7 O      8.6801     8.0000    -0.6801     1.9202     1.9202     0.0000
  8 O      8.7289     8.0000    -0.7289     1.8772     1.8772     0.0000
  9 H      0.5357     1.0000     0.4643     0.7724     0.7724     0.0000
 10 H      0.5270     1.0000     0.4730     0.7621     0.7621     0.0000
 11 H      0.5318     1.0000     0.4682     0.7668     0.7668     0.0000
 12 H      0.5090     1.0000     0.4910     0.7821     0.7821     0.0000

  Mayer bond orders larger than 0.100000
B(  0-O ,  1-P ) :   1.0701 B(  0-O ,  9-H ) :   0.7414 B(  1-P ,  2-O ) :   1.9356 
B(  1-P ,  3-O ) :   0.8160 B(  1-P ,  8-O ) :   1.1694 B(  3-O ,  4-P ) :   0.9992 
B(  4-P ,  5-O ) :   1.7399 B(  4-P ,  6-O ) :   1.0986 B(  4-P ,  7-O ) :   1.1142 
B(  5-O , 12-H ) :   0.1439 B(  6-O , 10-H ) :   0.7343 B(  7-O , 11-H ) :   0.7356 
B(  8-O , 12-H ) :   0.6021 

-------
TIMINGS
-------

Total SCF time: 0 days 0 hours 1 min 40 sec 

Total time                  ....     100.815 sec
Sum of individual times     ....      92.931 sec  ( 92.2%)

Fock matrix formation       ....      75.706 sec  ( 75.1%)
  Split-RI-J                ....       8.394 sec  ( 11.1% of F)
  Chain of spheres X        ....      31.037 sec  ( 41.0% of F)
  XC integration            ....      19.930 sec  ( 26.3% of F)
    Basis function eval.    ....       3.114 sec  ( 15.6% of XC)
    Density eval.           ....       1.814 sec  (  9.1% of XC)
    XC-Functional eval.     ....       1.197 sec  (  6.0% of XC)
    XC-Potential eval.      ....       1.190 sec  (  6.0% of XC)
Diagonalization             ....       1.071 sec  (  1.1%)
Density matrix formation    ....       0.251 sec  (  0.2%)
Population analysis         ....       0.464 sec  (  0.5%)
Initial guess               ....       0.097 sec  (  0.1%)
Orbital Transformation      ....       0.000 sec  (  0.0%)
Orbital Orthonormalization  ....       0.000 sec  (  0.0%)
DIIS solution               ....       2.996 sec  (  3.0%)
SOSCF solution              ....       0.379 sec  (  0.4%)
Grid generation             ....      11.968 sec  ( 11.9%)

Maximum memory used throughout the entire SCF-calculation: 54.9 MB


-------------------------------------------------------------------------------
                          DFT DISPERSION CORRECTION                            
                                                                               
                              DFTD3 V3.1  Rev 1                                
                          USING Becke-Johnson damping                          
-------------------------------------------------------------------------------
The PBEh-3c composite method is recognized
Using three-body term ABC
Active option DFTDOPT                   ...         4   

molecular C6(AA) [au] = 2916.564235 


            DFT-D V3
 parameters
 s6 scaling factor         :     1.0000 
 a1 scaling factor         :     0.4860 
 s8 scaling factor         :     0.0000 
 a2 scaling factor         :     4.5000 
 Damping factor alpha9(ATM):    16.0000 
 ad hoc parameters k1-k3   :    16.0000     1.3333    -4.0000 

 Edisp/kcal,au: -4.565177094461  -0.007275072005 
 E6   /kcal   :  -4.586189914 
 E8   /kcal   :  -0.000000000 
 E6(ABC)      :   0.021012819 
 % E8         :   0.000000000 
 % E6(ABC)    :  -0.460284861 

-------------------------   ----------------
Dispersion correction           -0.007275072
-------------------------   ----------------

------------------   -----------------
gCP correction             0.041440140
------------------   -----------------

-------------------------   --------------------
FINAL SINGLE POINT ENERGY     -1210.003648983391
-------------------------   --------------------


                            ***************************************
                            *     ORCA property calculations      *
                            ***************************************

                                    ---------------------
                                    Active property flags
                                    ---------------------
   (+) Dipole Moment


------------------------------------------------------------------------------
                       ORCA ELECTRIC PROPERTIES CALCULATION
------------------------------------------------------------------------------

Dipole Moment Calculation                       ... on
Quadrupole Moment Calculation                   ... off
Polarizability Calculation                      ... off
GBWName                                         ... pbeh-3c.gbw
Electron density                                ... pbeh-3c.scfp
The origin for moment calculation is the CENTER OF MASS  = ( 0.233358,  0.116228  0.132545)

-------------
DIPOLE MOMENT
-------------
                                X             Y             Z
Electronic contribution:      0.44410       0.57327      -0.32396
Nuclear contribution   :     -1.60415      -0.79827      -0.91254
                        -----------------------------------------
Total Dipole Moment    :     -1.16005      -0.22500      -1.23650
                        -----------------------------------------
Magnitude (a.u.)       :      1.71035
Magnitude (Debye)      :      4.34735



--------------------
Rotational spectrum 
--------------------
 
Rotational constants in cm-1:     0.078042     0.027631     0.027466 
Rotational constants in MHz :  2339.640208   828.356768   823.416102 

 Dipole components along the rotational axes: 
x,y,z [a.u.] :     1.141196    -0.777035    -1.009541 
x,y,z [Debye]:     2.900689    -1.975065    -2.566048 

 

Timings for individual modules:

Sum of individual times         ...      105.902 sec (=   1.765 min)
GTO integral calculation        ...        3.911 sec (=   0.065 min)   3.7 %
SCF iterations                  ...      101.991 sec (=   1.700 min)  96.3 %
                             ****ORCA TERMINATED NORMALLY****
TOTAL RUN TIME: 0 days 0 hours 1 minutes 51 seconds 806 msec
