
                                 *****************
                                 * O   R   C   A *
                                 *****************

                                            #,                                       
                                            ###                                      
                                            ####                                     
                                            #####                                    
                                            ######                                   
                                           ########,                                 
                                     ,,################,,,,,                         
                               ,,#################################,,                 
                          ,,##########################################,,             
                       ,#########################################, ''#####,          
                    ,#############################################,,   '####,        
                  ,##################################################,,,,####,       
                ,###########''''           ''''###############################       
              ,#####''   ,,,,##########,,,,          '''####'''          '####       
            ,##' ,,,,###########################,,,                        '##       
           ' ,,###''''                  '''############,,,                           
         ,,##''                                '''############,,,,        ,,,,,,###''
      ,#''                                            '''#######################'''  
     '                                                          ''''####''''         
             ,#######,   #######,   ,#######,      ##                                
            ,#'     '#,  ##    ##  ,#'     '#,    #''#        ######   ,####,        
            ##       ##  ##   ,#'  ##            #'  '#       #        #'  '#        
            ##       ##  #######   ##           ,######,      #####,   #    #        
            '#,     ,#'  ##    ##  '#,     ,#' ,#      #,         ##   #,  ,#        
             '#######'   ##     ##  '#######'  #'      '#     #####' # '####'        



                  #######################################################
                  #                        -***-                        #
                  #          Department of theory and spectroscopy      #
                  #    Directorship and core code : Frank Neese         #
                  #        Max Planck Institute fuer Kohlenforschung    #
                  #                Kaiser Wilhelm Platz 1               #
                  #                 D-45470 Muelheim/Ruhr               #
                  #                      Germany                        #
                  #                                                     #
                  #                  All rights reserved                #
                  #                        -***-                        #
                  #######################################################


                         Program Version 5.0.3 -  RELEASE  -


 With contributions from (in alphabetic order):
   Daniel Aravena         : Magnetic Suceptibility
   Michael Atanasov       : Ab Initio Ligand Field Theory (pilot matlab implementation)
   Alexander A. Auer      : GIAO ZORA, VPT2 properties, NMR spectrum
   Ute Becker             : Parallelization
   Giovanni Bistoni       : ED, misc. LED, open-shell LED, HFLD
   Martin Brehm           : Molecular dynamics
   Dmytro Bykov           : SCF Hessian
   Vijay G. Chilkuri      : MRCI spin determinant printing, contributions to CSF-ICE
   Dipayan Datta          : RHF DLPNO-CCSD density
   Achintya Kumar Dutta   : EOM-CC, STEOM-CC
   Dmitry Ganyushin       : Spin-Orbit,Spin-Spin,Magnetic field MRCI
   Miquel Garcia          : C-PCM and meta-GGA Hessian, CC/C-PCM, Gaussian charge scheme
   Yang Guo               : DLPNO-NEVPT2, F12-NEVPT2, CIM, IAO-localization
   Andreas Hansen         : Spin unrestricted coupled pair/coupled cluster methods
   Benjamin Helmich-Paris : MC-RPA, TRAH-SCF, COSX integrals
   Lee Huntington         : MR-EOM, pCC
   Robert Izsak           : Overlap fitted RIJCOSX, COSX-SCS-MP3, EOM
   Marcus Kettner         : VPT2
   Christian Kollmar      : KDIIS, OOCD, Brueckner-CCSD(T), CCSD density, CASPT2, CASPT2-K
   Simone Kossmann        : Meta GGA functionals, TD-DFT gradient, OOMP2, MP2 Hessian
   Martin Krupicka        : Initial AUTO-CI
   Lucas Lang             : DCDCAS
   Marvin Lechner         : AUTO-CI (C++ implementation), FIC-MRCC
   Dagmar Lenk            : GEPOL surface, SMD
   Dimitrios Liakos       : Extrapolation schemes; Compound Job, initial MDCI parallelization
   Dimitrios Manganas     : Further ROCIS development; embedding schemes
   Dimitrios Pantazis     : SARC Basis sets
   Anastasios Papadopoulos: AUTO-CI, single reference methods and gradients
   Taras Petrenko         : DFT Hessian,TD-DFT gradient, ASA, ECA, R-Raman, ABS, FL, XAS/XES, NRVS
   Peter Pinski           : DLPNO-MP2, DLPNO-MP2 Gradient
   Christoph Reimann      : Effective Core Potentials
   Marius Retegan         : Local ZFS, SOC
   Christoph Riplinger    : Optimizer, TS searches, QM/MM, DLPNO-CCSD(T), (RO)-DLPNO pert. Triples
   Tobias Risthaus        : Range-separated hybrids, TD-DFT gradient, RPA, STAB
   Michael Roemelt        : Original ROCIS implementation
   Masaaki Saitow         : Open-shell DLPNO-CCSD energy and density
   Barbara Sandhoefer     : DKH picture change effects
   Avijit Sen             : IP-ROCIS
   Kantharuban Sivalingam : CASSCF convergence, NEVPT2, FIC-MRCI
   Bernardo de Souza      : ESD, SOC TD-DFT
   Georgi Stoychev        : AutoAux, RI-MP2 NMR, DLPNO-MP2 response
   Willem Van den Heuvel  : Paramagnetic NMR
   Boris Wezisla          : Elementary symmetry handling
   Frank Wennmohs         : Technical directorship


 We gratefully acknowledge several colleagues who have allowed us to
 interface, adapt or use parts of their codes:
   Stefan Grimme, W. Hujo, H. Kruse, P. Pracht,  : VdW corrections, initial TS optimization,
                  C. Bannwarth, S. Ehlert          DFT functionals, gCP, sTDA/sTD-DF
   Ed Valeev, F. Pavosevic, A. Kumar             : LibInt (2-el integral package), F12 methods
   Garnet Chan, S. Sharma, J. Yang, R. Olivares  : DMRG
   Ulf Ekstrom                                   : XCFun DFT Library
   Mihaly Kallay                                 : mrcc  (arbitrary order and MRCC methods)
   Jiri Pittner, Ondrej Demel                    : Mk-CCSD
   Frank Weinhold                                : gennbo (NPA and NBO analysis)
   Christopher J. Cramer and Donald G. Truhlar   : smd solvation model
   Lars Goerigk                                  : TD-DFT with DH, B97 family of functionals
   V. Asgeirsson, H. Jonsson                     : NEB implementation
   FAccTs GmbH                                   : IRC, NEB, NEB-TS, DLPNO-Multilevel, CI-OPT
                                                   MM, QMMM, 2- and 3-layer-ONIOM, Crystal-QMMM,
                                                   LR-CPCM, SF, NACMEs, symmetry and pop. for TD-DFT,
                                                   nearIR, NL-DFT gradient (VV10), updates on ESD,
                                                   ML-optimized integration grids
   S Lehtola, MJT Oliveira, MAL Marques          : LibXC Library
   Liviu Ungur et al                             : ANISO software


 Your calculation uses the libint2 library for the computation of 2-el integrals
 For citations please refer to: http://libint.valeyev.net

 Your ORCA version has been built with support for libXC version: 5.1.0
 For citations please refer to: https://tddft.org/programs/libxc/

 This ORCA versions uses:
   CBLAS   interface :  Fast vector & matrix operations
   LAPACKE interface :  Fast linear algebra routines
   SCALAPACK package :  Parallel linear algebra routines
   Shared memory     :  Shared parallel matrices
   BLAS/LAPACK       :  OpenBLAS 0.3.15  USE64BITINT DYNAMIC_ARCH NO_AFFINITY Haswell SINGLE_THREADED
        Core in use  :  Haswell
   Copyright (c) 2011-2014, The OpenBLAS Project




***************************************
The coordinates will be read from file: antdimer.xyz
***************************************


Your calculation utilizes the geometrical counterpoise correction gCP
Please cite in your paper:
H.Kruse, S. Grimme J.Chem.Phys., 136, (2012), 154101 
   

Your calculation utilizes the atom-pairwise dispersion correction
with the Becke-Johnson damping scheme (D3BJ)
Cite in your paper:
S.Grimme, S.Ehrlich, L.Goerigk, J Comput Chem, (2011), 32, 1456–1465 
S.Grimme, J.Antony, S.Ehrlich and H.Krieg, J.Chem.Phys., 132, (2010), 154104 
   

Your calculation employs the composite approach PBEh-3c.
Please cite in your paper:
S. Grimme, J. G. Brandenburg, C. Bannwarth, A. Hansen J.Chem.Phys., 143, (2015), 054107 
   

================================================================================

----- Orbital basis set information -----
Your calculation utilizes the basis: def2-mSVP

----- AuxJ basis set information -----
Your calculation utilizes the auxiliary basis: def2/J
   F. Weigend, Phys. Chem. Chem. Phys. 8, 1057 (2006).

================================================================================
                                        WARNINGS
                       Please study these warnings very carefully!
================================================================================


INFO   : the flag for use of the SHARK integral package has been found!

================================================================================
                                       INPUT FILE
================================================================================
NAME = pbeh-3c.inp
|  1> ! PBEh-3c def2/J TightSCF DefGrid3
|  2> 
|  3> %maxcore 60000
|  4> 
|  5> %pal
|  6> nprocs 4
|  7> end
|  8> 
|  9> *xyzfile 0 1 antdimer.xyz
| 10> 
| 11>                          ****END OF INPUT****
================================================================================

                       ****************************
                       * Single Point Calculation *
                       ****************************

---------------------------------
CARTESIAN COORDINATES (ANGSTROEM)
---------------------------------
  C     -1.393709   -2.337728    1.815732
  C     -0.697521   -3.456009    2.275805
  C      0.697521   -3.456009    2.275805
  C      1.393709   -2.337728    1.815732
  C      0.701229   -1.222025    1.349109
  C     -0.701229   -1.222025    1.349109
  C      1.388576    0.000000    0.804733
  C     -1.388576    0.000000    0.804733
  C     -0.701229    1.222025    1.349109
  C      0.701229    1.222025    1.349109
  C     -1.393709    2.337728    1.815732
  C      1.393709    2.337728    1.815732
  C     -0.697521    3.456009    2.275805
  C      0.697521    3.456009    2.275805
  C     -1.393709    2.337728   -1.815732
  C     -0.697521    3.456009   -2.275805
  C      0.697521    3.456009   -2.275805
  C      1.393709    2.337728   -1.815732
  C      0.701229    1.222025   -1.349109
  C     -0.701229    1.222025   -1.349109
  C      1.388576    0.000000   -0.804733
  C     -1.388576    0.000000   -0.804733
  C     -0.701229   -1.222025   -1.349109
  C      0.701229   -1.222025   -1.349109
  C     -1.393709   -2.337728   -1.815732
  C      1.393709   -2.337728   -1.815732
  C     -0.697521   -3.456009   -2.275805
  C      0.697521   -3.456009   -2.275805
  H     -2.476723   -2.331984    1.817075
  H     -1.239531   -4.318753    2.636856
  H      1.239531   -4.318753    2.636856
  H      2.476723   -2.331984    1.817075
  H      2.433208    0.000000    1.118498
  H     -2.433208    0.000000    1.118498
  H     -2.476723    2.331984    1.817075
  H      2.476723    2.331984    1.817075
  H     -1.239531    4.318753    2.636856
  H      1.239531    4.318753    2.636856
  H     -2.476723    2.331984   -1.817075
  H     -1.239531    4.318753   -2.636856
  H      1.239531    4.318753   -2.636856
  H      2.476723    2.331984   -1.817075
  H      2.433208    0.000000   -1.118498
  H     -2.433208    0.000000   -1.118498
  H     -2.476723   -2.331984   -1.817075
  H      2.476723   -2.331984   -1.817075
  H     -1.239531   -4.318753   -2.636856
  H      1.239531   -4.318753   -2.636856

----------------------------
CARTESIAN COORDINATES (A.U.)
----------------------------
  NO LB      ZA    FRAG     MASS         X           Y           Z
   0 C     6.0000    0    12.011   -2.633728   -4.417666    3.431237
   1 C     6.0000    0    12.011   -1.318123   -6.530910    4.300648
   2 C     6.0000    0    12.011    1.318123   -6.530910    4.300648
   3 C     6.0000    0    12.011    2.633728   -4.417666    3.431237
   4 C     6.0000    0    12.011    1.325130   -2.309293    2.549447
   5 C     6.0000    0    12.011   -1.325130   -2.309293    2.549447
   6 C     6.0000    0    12.011    2.624029    0.000000    1.520724
   7 C     6.0000    0    12.011   -2.624029    0.000000    1.520724
   8 C     6.0000    0    12.011   -1.325130    2.309293    2.549447
   9 C     6.0000    0    12.011    1.325130    2.309293    2.549447
  10 C     6.0000    0    12.011   -2.633728    4.417666    3.431237
  11 C     6.0000    0    12.011    2.633728    4.417666    3.431237
  12 C     6.0000    0    12.011   -1.318123    6.530910    4.300648
  13 C     6.0000    0    12.011    1.318123    6.530910    4.300648
  14 C     6.0000    0    12.011   -2.633728    4.417666   -3.431237
  15 C     6.0000    0    12.011   -1.318123    6.530910   -4.300648
  16 C     6.0000    0    12.011    1.318123    6.530910   -4.300648
  17 C     6.0000    0    12.011    2.633728    4.417666   -3.431237
  18 C     6.0000    0    12.011    1.325130    2.309293   -2.549447
  19 C     6.0000    0    12.011   -1.325130    2.309293   -2.549447
  20 C     6.0000    0    12.011    2.624029    0.000000   -1.520724
  21 C     6.0000    0    12.011   -2.624029    0.000000   -1.520724
  22 C     6.0000    0    12.011   -1.325130   -2.309293   -2.549447
  23 C     6.0000    0    12.011    1.325130   -2.309293   -2.549447
  24 C     6.0000    0    12.011   -2.633728   -4.417666   -3.431237
  25 C     6.0000    0    12.011    2.633728   -4.417666   -3.431237
  26 C     6.0000    0    12.011   -1.318123   -6.530910   -4.300648
  27 C     6.0000    0    12.011    1.318123   -6.530910   -4.300648
  28 H     1.0000    0     1.008   -4.680328   -4.406811    3.433774
  29 H     1.0000    0     1.008   -2.342374   -8.161260    4.982937
  30 H     1.0000    0     1.008    2.342374   -8.161260    4.982937
  31 H     1.0000    0     1.008    4.680328   -4.406811    3.433774
  32 H     1.0000    0     1.008    4.598097    0.000000    2.113655
  33 H     1.0000    0     1.008   -4.598097    0.000000    2.113655
  34 H     1.0000    0     1.008   -4.680328    4.406811    3.433774
  35 H     1.0000    0     1.008    4.680328    4.406811    3.433774
  36 H     1.0000    0     1.008   -2.342374    8.161260    4.982937
  37 H     1.0000    0     1.008    2.342374    8.161260    4.982937
  38 H     1.0000    0     1.008   -4.680328    4.406811   -3.433774
  39 H     1.0000    0     1.008   -2.342374    8.161260   -4.982937
  40 H     1.0000    0     1.008    2.342374    8.161260   -4.982937
  41 H     1.0000    0     1.008    4.680328    4.406811   -3.433774
  42 H     1.0000    0     1.008    4.598097    0.000000   -2.113655
  43 H     1.0000    0     1.008   -4.598097    0.000000   -2.113655
  44 H     1.0000    0     1.008   -4.680328   -4.406811   -3.433774
  45 H     1.0000    0     1.008    4.680328   -4.406811   -3.433774
  46 H     1.0000    0     1.008   -2.342374   -8.161260   -4.982937
  47 H     1.0000    0     1.008    2.342374   -8.161260   -4.982937

--------------------------------
INTERNAL COORDINATES (ANGSTROEM)
--------------------------------
 C      0   0   0     0.000000000000     0.00000000     0.00000000
 C      1   0   0     1.395311980044     0.00000000     0.00000000
 C      2   1   0     1.395041800000   119.93041410     0.00000000
 C      3   2   1     1.395311980044   119.93041410     0.00000000
 C      4   3   2     1.393578060296   120.27309515   359.66488835
 C      1   2   3     1.393578060296   120.27309515     0.33511165
 C      5   4   3     1.504040433053   122.99671987   181.72958104
 C      6   1   2     1.504040433053   122.99671987   178.27041896
 C      8   6   1     1.504040433053   108.68081150   137.09292125
 C      9   8   6     1.402457400000   117.19373982    44.26802041
 C      9   8   6     1.393578060296   122.99671987   222.90707875
 C     10   9   8     1.393578060296   119.79564553   178.68470519
 C     11   9   8     1.395311980044   120.27309515   181.72958104
 C     13  11   9     1.395041800000   119.93041410   359.66488835
 C      9   8   6     3.426447728991    80.67077439   142.65470132
 C     15   9   8     1.395311980044   117.68965518   197.08992215
 C     16  15   9     1.395041800000   119.93041410    55.56338582
 C     17  16  15     1.395311980044   119.93041410     0.00000000
 C     18  17  16     1.393578060296   120.27309515   359.66488835
 C     15   9   8     1.393578060296    47.90307859   304.13615696
 C     19  18  17     1.504040433053   122.99671987   181.72958104
 C     20  15   9     1.504040433053   122.99671987    76.86480760
 C     22  20  15     1.504040433053   108.68081150   137.09292125
 C     23  22  20     1.402457400000   117.19373982    44.26802041
 C     23  22  20     1.393578060296   122.99671987   222.90707875
 C     24  23  22     1.393578060296   119.79564553   178.68470519
 C     25  23  22     1.395311980044   120.27309515   181.72958104
 C     27  25  23     1.395041800000   119.93041410   359.66488835
 H      1   2   3     1.083029967172   120.18428347   180.20973723
 H      2   1   3     1.080953512495   119.97478224   179.65424687
 H      3   2   1     1.080953512495   120.09389847   179.65383103
 H      4   3   2     1.083029967172   120.18428347   179.79026277
 H      7   5   4     1.090735651318   109.48536942   342.45436879
 H      8   6   1     1.090735651318   109.48536942    17.54563121
 H     11   9   8     1.083029967172   119.54250367     1.60501039
 H     12  10   9     1.083029967172   119.54250367   179.78991128
 H     13  11   9     1.080953512495   119.97478224   180.01064148
 H     14  13  11     1.080953512495   120.09389847   180.34616897
 H     15   9   8     1.083029967172   101.62546010    63.64419577
 H     16  15   9     1.080953512495   119.97478224   235.21763269
 H     17  16  15     1.080953512495   120.09389847   179.65383103
 H     18  17  16     1.083029967172   120.18428347   179.79026277
 H     21  19  18     1.090735651318   109.48536942   342.45436879
 H     22  20  15     1.090735651318   109.48536942    17.54563121
 H     25  23  22     1.083029967172   119.54250367     1.60501039
 H     26  24  23     1.083029967172   119.54250367   179.78991128
 H     27  25  23     1.080953512495   119.97478224   180.01064148
 H     28  27  25     1.080953512495   120.09389847   180.34616897

---------------------------
INTERNAL COORDINATES (A.U.)
---------------------------
 C      0   0   0     0.000000000000     0.00000000     0.00000000
 C      1   0   0     2.636757513663     0.00000000     0.00000000
 C      2   1   0     2.636246947373   119.93041410     0.00000000
 C      3   2   1     2.636757513663   119.93041410     0.00000000
 C      4   3   2     2.633480880201   120.27309515   359.66488835
 C      1   2   3     2.633480880201   120.27309515     0.33511165
 C      5   4   3     2.842224512814   122.99671987   181.72958104
 C      6   1   2     2.842224512814   122.99671987   178.27041896
 C      8   6   1     2.842224512814   108.68081150   137.09292125
 C      9   8   6     2.650260400491   117.19373982    44.26802041
 C      9   8   6     2.633480880201   122.99671987   222.90707875
 C     10   9   8     2.633480880201   119.79564553   178.68470519
 C     11   9   8     2.636757513663   120.27309515   181.72958104
 C     13  11   9     2.636246947373   119.93041410   359.66488835
 C      9   8   6     6.475047819990    80.67077439   142.65470132
 C     15   9   8     2.636757513663   117.68965518   197.08992215
 C     16  15   9     2.636246947373   119.93041410    55.56338582
 C     17  16  15     2.636757513663   119.93041410     0.00000000
 C     18  17  16     2.633480880201   120.27309515   359.66488835
 C     15   9   8     2.633480880201    47.90307859   304.13615696
 C     19  18  17     2.842224512814   122.99671987   181.72958104
 C     20  15   9     2.842224512814   122.99671987    76.86480760
 C     22  20  15     2.842224512814   108.68081150   137.09292125
 C     23  22  20     2.650260400491   117.19373982    44.26802041
 C     23  22  20     2.633480880201   122.99671987   222.90707875
 C     24  23  22     2.633480880201   119.79564553   178.68470519
 C     25  23  22     2.636757513663   120.27309515   181.72958104
 C     27  25  23     2.636246947373   119.93041410   359.66488835
 H      1   2   3     2.046630032784   120.18428347   180.20973723
 H      2   1   3     2.042706102115   119.97478224   179.65424687
 H      3   2   1     2.042706102115   120.09389847   179.65383103
 H      4   3   2     2.046630032784   120.18428347   179.79026277
 H      7   5   4     2.061191665495   109.48536942   342.45436879
 H      8   6   1     2.061191665495   109.48536942    17.54563121
 H     11   9   8     2.046630032784   119.54250367     1.60501039
 H     12  10   9     2.046630032784   119.54250367   179.78991128
 H     13  11   9     2.042706102115   119.97478224   180.01064148
 H     14  13  11     2.042706102115   120.09389847   180.34616897
 H     15   9   8     2.046630032784   101.62546010    63.64419577
 H     16  15   9     2.042706102115   119.97478224   235.21763269
 H     17  16  15     2.042706102115   120.09389847   179.65383103
 H     18  17  16     2.046630032784   120.18428347   179.79026277
 H     21  19  18     2.061191665495   109.48536942   342.45436879
 H     22  20  15     2.061191665495   109.48536942    17.54563121
 H     25  23  22     2.046630032784   119.54250367     1.60501039
 H     26  24  23     2.046630032784   119.54250367   179.78991128
 H     27  25  23     2.042706102115   119.97478224   180.01064148
 H     28  27  25     2.042706102115   120.09389847   180.34616897

---------------------
BASIS SET INFORMATION
---------------------
There are 2 groups of distinct atoms

 Group   1 Type C   : 8s4p1d contracted to 4s2p1d pattern {5111/31/1}
 Group   2 Type H   : 4s contracted to 2s pattern {31}

Atom   0C    basis set group =>   1
Atom   1C    basis set group =>   1
Atom   2C    basis set group =>   1
Atom   3C    basis set group =>   1
Atom   4C    basis set group =>   1
Atom   5C    basis set group =>   1
Atom   6C    basis set group =>   1
Atom   7C    basis set group =>   1
Atom   8C    basis set group =>   1
Atom   9C    basis set group =>   1
Atom  10C    basis set group =>   1
Atom  11C    basis set group =>   1
Atom  12C    basis set group =>   1
Atom  13C    basis set group =>   1
Atom  14C    basis set group =>   1
Atom  15C    basis set group =>   1
Atom  16C    basis set group =>   1
Atom  17C    basis set group =>   1
Atom  18C    basis set group =>   1
Atom  19C    basis set group =>   1
Atom  20C    basis set group =>   1
Atom  21C    basis set group =>   1
Atom  22C    basis set group =>   1
Atom  23C    basis set group =>   1
Atom  24C    basis set group =>   1
Atom  25C    basis set group =>   1
Atom  26C    basis set group =>   1
Atom  27C    basis set group =>   1
Atom  28H    basis set group =>   2
Atom  29H    basis set group =>   2
Atom  30H    basis set group =>   2
Atom  31H    basis set group =>   2
Atom  32H    basis set group =>   2
Atom  33H    basis set group =>   2
Atom  34H    basis set group =>   2
Atom  35H    basis set group =>   2
Atom  36H    basis set group =>   2
Atom  37H    basis set group =>   2
Atom  38H    basis set group =>   2
Atom  39H    basis set group =>   2
Atom  40H    basis set group =>   2
Atom  41H    basis set group =>   2
Atom  42H    basis set group =>   2
Atom  43H    basis set group =>   2
Atom  44H    basis set group =>   2
Atom  45H    basis set group =>   2
Atom  46H    basis set group =>   2
Atom  47H    basis set group =>   2
---------------------------------
AUXILIARY/J BASIS SET INFORMATION
---------------------------------
There are 2 groups of distinct atoms

 Group   1 Type C   : 12s5p4d2f1g contracted to 6s4p3d1f1g pattern {711111/2111/211/2/1}
 Group   2 Type H   : 5s2p1d contracted to 3s1p1d pattern {311/2/1}

Atom   0C    basis set group =>   1
Atom   1C    basis set group =>   1
Atom   2C    basis set group =>   1
Atom   3C    basis set group =>   1
Atom   4C    basis set group =>   1
Atom   5C    basis set group =>   1
Atom   6C    basis set group =>   1
Atom   7C    basis set group =>   1
Atom   8C    basis set group =>   1
Atom   9C    basis set group =>   1
Atom  10C    basis set group =>   1
Atom  11C    basis set group =>   1
Atom  12C    basis set group =>   1
Atom  13C    basis set group =>   1
Atom  14C    basis set group =>   1
Atom  15C    basis set group =>   1
Atom  16C    basis set group =>   1
Atom  17C    basis set group =>   1
Atom  18C    basis set group =>   1
Atom  19C    basis set group =>   1
Atom  20C    basis set group =>   1
Atom  21C    basis set group =>   1
Atom  22C    basis set group =>   1
Atom  23C    basis set group =>   1
Atom  24C    basis set group =>   1
Atom  25C    basis set group =>   1
Atom  26C    basis set group =>   1
Atom  27C    basis set group =>   1
Atom  28H    basis set group =>   2
Atom  29H    basis set group =>   2
Atom  30H    basis set group =>   2
Atom  31H    basis set group =>   2
Atom  32H    basis set group =>   2
Atom  33H    basis set group =>   2
Atom  34H    basis set group =>   2
Atom  35H    basis set group =>   2
Atom  36H    basis set group =>   2
Atom  37H    basis set group =>   2
Atom  38H    basis set group =>   2
Atom  39H    basis set group =>   2
Atom  40H    basis set group =>   2
Atom  41H    basis set group =>   2
Atom  42H    basis set group =>   2
Atom  43H    basis set group =>   2
Atom  44H    basis set group =>   2
Atom  45H    basis set group =>   2
Atom  46H    basis set group =>   2
Atom  47H    basis set group =>   2


           ************************************************************
           *        Program running with 4 parallel MPI-processes     *
           *              working on a common directory               *
           ************************************************************
------------------------------------------------------------------------------
                           ORCA GTO INTEGRAL CALCULATION
                           -- RI-GTO INTEGRALS CHOSEN --
------------------------------------------------------------------------------
------------------------------------------------------------------------------
                   ___                                                        
                  /   \      - P O W E R E D   B Y -                         
                 /     \                                                     
                 |  |  |   _    _      __       _____    __    __             
                 |  |  |  | |  | |    /  \     |  _  \  |  |  /  |          
                  \  \/   | |  | |   /    \    | | | |  |  | /  /          
                 / \  \   | |__| |  /  /\  \   | |_| |  |  |/  /          
                |  |  |   |  __  | /  /__\  \  |    /   |      \           
                |  |  |   | |  | | |   __   |  |    \   |  |\   \          
                \     /   | |  | | |  |  |  |  | |\  \  |  | \   \       
                 \___/    |_|  |_| |__|  |__|  |_| \__\ |__|  \__/        
                                                                              
                      - O R C A' S   B I G   F R I E N D -                    
                                      &                                       
                       - I N T E G R A L  F E E D E R -                       
                                                                              
 v1 FN, 2020, v2 2021                                                         
------------------------------------------------------------------------------


Reading SHARK input file pbeh-3c.SHARKINP.tmp ... ok
----------------------
SHARK INTEGRAL PACKAGE
----------------------

Number of atoms                             ...     48
Number of basis functions                   ...    460
Number of shells                            ...    236
Maximum angular momentum                    ...      2
Integral batch strategy                     ... SHARK/LIBINT Hybrid
RI-J (if used) integral strategy            ... SPLIT-RIJ (Revised 2003 algorithm where possible)
Printlevel                                  ...      1
Contraction scheme used                     ... SEGMENTED contraction
Coulomb Range Separation                    ... NOT USED
Exchange Range Separation                   ... NOT USED
Finite Nucleus Model                        ... NOT USED
Auxiliary Coulomb fitting basis             ... AVAILABLE
   # of basis functions in Aux-J            ...   1592
   # of shells in Aux-J                     ...    520
   Maximum angular momentum in Aux-J        ...      4
Auxiliary J/K fitting basis                 ... NOT available
Auxiliary Correlation fitting basis         ... NOT available
Auxiliary 'external' fitting basis          ... NOT available
Integral threshold                          ...     2.500000e-11
Primitive cut-off                           ...     2.500000e-12
Primitive pair pre-selection threshold      ...     2.500000e-12

Calculating pre-screening integrals         ... done (  0.2 sec) Dimension = 236
Organizing shell pair data                  ... done (  1.2 sec)
Shell pair information
Total number of shell pairs                 ...     27966
Shell pairs after pre-screening             ...     20380
Total number of primitive shell pairs       ...     99214
Primitive shell pairs kept                  ...     44690
          la=0 lb=0:   7366 shell pairs
          la=1 lb=0:   7088 shell pairs
          la=1 lb=1:   1516 shell pairs
          la=2 lb=0:   2720 shell pairs
          la=2 lb=1:   1384 shell pairs
          la=2 lb=2:    306 shell pairs

Calculating one electron integrals          ... done (  0.2 sec)
Calculating RI/J V-Matrix + Cholesky decomp.... done (  1.4 sec)
Calculating Nuclear repulsion               ... done (  0.0 sec) ENN=   2580.327729164845 Eh

SHARK setup successfully completed in   5.7 seconds

Maximum memory used throughout the entire GTOINT-calculation: 39.5 MB


           ************************************************************
           *        Program running with 4 parallel MPI-processes     *
           *              working on a common directory               *
           ************************************************************
-------------------------------------------------------------------------------
                                 ORCA SCF
-------------------------------------------------------------------------------

------------
SCF SETTINGS
------------
Hamiltonian:
 Density Functional     Method          .... DFT(GTOs)
 Exchange Functional    Exchange        .... PBE
   PBE kappa parameter   XKappa         ....  1.024500
   PBE mue parameter    XMuePBE         ....  0.123457
 Correlation Functional Correlation     .... PBE
   PBE beta parameter  CBetaPBE         ....  0.030000
 LDA part of GGA corr.  LDAOpt          .... PW91-LDA
 Gradients option       PostSCFGGA      .... off
 Hybrid DFT is turned on
   Fraction HF Exchange ScalHFX         ....  0.420000
   Scaling of DF-GGA-X  ScalDFX         ....  0.580000
   Scaling of DF-GGA-C  ScalDFC         ....  1.000000
   Scaling of DF-LDA-C  ScalLDAC        ....  1.000000
   Perturbative correction              ....  0.000000
   Density functional embedding theory  .... OFF
 RI-approximation to the Coulomb term is turned on
   Number of AuxJ basis functions       .... 1592
   RIJ-ON(X) (HFX calculated with O(N)) .... on
   Number of AuxJ basis functions       .... 1592
   RIJ-COSX (HFX calculated with COS-X)).... on


General Settings:
 Integral files         IntName         .... pbeh-3c
 Hartree-Fock type      HFTyp           .... RHF
 Total Charge           Charge          ....    0
 Multiplicity           Mult            ....    1
 Number of Electrons    NEL             ....  188
 Basis Dimension        Dim             ....  460
 Nuclear Repulsion      ENuc            ....   2580.3277291648 Eh

Convergence Acceleration:
 DIIS                   CNVDIIS         .... on
   Start iteration      DIISMaxIt       ....    12
   Startup error        DIISStart       ....  0.200000
   # of expansion vecs  DIISMaxEq       ....     5
   Bias factor          DIISBfac        ....   1.050
   Max. coefficient     DIISMaxC        ....  10.000
 Trust-Rad. Augm. Hess. CNVTRAH         .... auto
   Auto Start mean grad. ratio tolernc. ....  1.125000
   Auto Start start iteration           ....    20
   Auto Start num. interpolation iter.  ....    10
   Max. Number of Micro iterations      ....    16
   Max. Number of Macro iterations      .... Maxiter - #DIIS iter
   Number of Davidson start vectors     ....     2
   Converg. threshold I  (grad. norm)   ....   1.000e-05
   Converg. threshold II (energy diff.) ....   1.000e-08
   Grad. Scal. Fac. for Micro threshold ....   0.100
   Minimum threshold for Micro iter.    ....   0.010
   NR start threshold (gradient norm)   ....   0.001
   Initial trust radius                 ....   0.400
   Minimum AH scaling param. (alpha)    ....   1.000
   Maximum AH scaling param. (alpha)    .... 1000.000
   Orbital update algorithm             .... Taylor
   White noise on init. David. guess    .... on
   Maximum white noise                  ....   0.010
   Quad. conv. algorithm                .... NR
   COSX micro iterations for RIJONX calc.... off
 SOSCF                  CNVSOSCF        .... on
   Start iteration      SOSCFMaxIt      ....   150
   Startup grad/error   SOSCFStart      ....  0.003300
 Level Shifting         CNVShift        .... on
   Level shift para.    LevelShift      ....    0.2500
   Turn off err/grad.   ShiftErr        ....    0.0010
 Zerner damping         CNVZerner       .... off
 Static damping         CNVDamp         .... on
   Fraction old density DampFac         ....    0.7000
   Max. Damping (<1)    DampMax         ....    0.9800
   Min. Damping (>=0)   DampMin         ....    0.0000
   Turn off err/grad.   DampErr         ....    0.1000
 Fernandez-Rico         CNVRico         .... off

SCF Procedure:
 Maximum # iterations   MaxIter         ....   125
 SCF integral mode      SCFMode         .... Direct
   Integral package                     .... SHARK and LIBINT hybrid scheme
 Reset frequency        DirectResetFreq ....    20
 Integral Threshold     Thresh          ....  2.500e-11 Eh
 Primitive CutOff       TCut            ....  2.500e-12 Eh

Convergence Tolerance:
 Convergence Check Mode ConvCheckMode   .... Total+1el-Energy
 Convergence forced     ConvForced      .... 0
 Energy Change          TolE            ....  1.000e-08 Eh
 1-El. energy change                    ....  1.000e-05 Eh
 Orbital Gradient       TolG            ....  1.000e-05
 Orbital Rotation angle TolX            ....  1.000e-05
 DIIS Error             TolErr          ....  5.000e-07


Diagonalization of the overlap matrix:
Smallest eigenvalue                        ... 2.547e-04
Time for diagonalization                   ...    0.052 sec
Threshold for overlap eigenvalues          ... 1.000e-08
Number of eigenvalues below threshold      ... 0
Time for construction of square roots      ...    0.341 sec
Total time needed                          ...    0.394 sec

--------------------------------
INITIAL GUESS: MINIMAL BASIS EHT
--------------------------------
The minimal basis has 160 functions
EHT matrix was diagonalized
Basis set overlap was calculated now projecting the orbitals
Using GuessMode=FMatrix for the initial guess
C*T matrix was formed
Effective Fockian was calculated
Effective Fockian was diagonalized
Initial density was built
                      ------------------
                      INITIAL GUESS DONE
                      ------------------
-------------------
DFT GRID GENERATION
-------------------

General Integration Accuracy     IntAcc      ... 4.959
Radial Grid Type                 RadialGrid  ... OptM3 with GC (2021)
Angular Grid (max. ang.)         AngularGrid ... 6 (Lebedev-590)
Angular grid pruning method      GridPruning ... 4 (adaptive)
Weight generation scheme         WeightScheme... Becke
Basis function cutoff            BFCut       ... 1.0000e-11
Integration weight cutoff        WCut        ... 1.0000e-14
Angular grids for H and He will be reduced by one unit
Partially contracted basis set               ... off
Rotationally invariant grid construction     ... off

Total number of grid points                  ...   559124
Total number of batches                      ...     8764
Average number of points per batch           ...       63
Average number of grid points per atom       ...    11648
Time for grid setup =   19.274 sec

--------------------
COSX GRID GENERATION
--------------------

GRIDX 1
-------
General Integration Accuracy     IntAcc      ... 4.020
Radial Grid Type                 RadialGrid  ... OptM3 with GC (2021)
Angular Grid (max. ang.)         AngularGrid ... 2 (Lebedev-110)
Angular grid pruning method      GridPruning ... 4 (adaptive)
Weight generation scheme         WeightScheme... Becke
Basis function cutoff            BFCut       ... 1.0000e-11
Integration weight cutoff        WCut        ... 1.0000e-14
Angular grids for H and He will be reduced by one unit
Partially contracted basis set               ... on
Rotationally invariant grid construction     ... off

Total number of grid points                  ...    62360
Total number of batches                      ...      999
Average number of points per batch           ...       62
Average number of grid points per atom       ...     1299
UseSFitting                                  ... on

GRIDX 2
-------
General Integration Accuracy     IntAcc      ... 4.338
Radial Grid Type                 RadialGrid  ... OptM3 with GC (2021)
Angular Grid (max. ang.)         AngularGrid ... 3 (Lebedev-194)
Angular grid pruning method      GridPruning ... 4 (adaptive)
Weight generation scheme         WeightScheme... Becke
Basis function cutoff            BFCut       ... 1.0000e-11
Integration weight cutoff        WCut        ... 1.0000e-14
Angular grids for H and He will be reduced by one unit
Partially contracted basis set               ... on
Rotationally invariant grid construction     ... off

Total number of grid points                  ...   135896
Total number of batches                      ...     2145
Average number of points per batch           ...       63
Average number of grid points per atom       ...     2831
UseSFitting                                  ... on

GRIDX 3
-------
General Integration Accuracy     IntAcc      ... 4.871
Radial Grid Type                 RadialGrid  ... OptM3 with GC (2021)
Angular Grid (max. ang.)         AngularGrid ... 4 (Lebedev-302)
Angular grid pruning method      GridPruning ... 4 (adaptive)
Weight generation scheme         WeightScheme... Becke
Basis function cutoff            BFCut       ... 1.0000e-11
Integration weight cutoff        WCut        ... 1.0000e-14
Angular grids for H and He will be reduced by one unit
Partially contracted basis set               ... on
Rotationally invariant grid construction     ... off

Total number of grid points                  ...   252344
Total number of batches                      ...     3968
Average number of points per batch           ...       63
Average number of grid points per atom       ...     5257
UseSFitting                                  ... on

Time for X-Grid setup             =   18.503 sec

--------------
SCF ITERATIONS
--------------
ITER       Energy         Delta-E        Max-DP      RMS-DP      [F,P]     Damp
               ***  Starting incremental Fock matrix formation  ***
  0  -1074.1772217195   0.000000000000 0.13551211  0.00326399  0.4104110 0.7000
  1  -1074.9039932349  -0.726771515368 0.09789256  0.00239330  0.2894502 0.7000
  2  -1075.4253556587  -0.521362423822 0.07127167  0.00176450  0.2036151 0.7000
                               ***Turning on DIIS***
  3  -1075.7976678596  -0.372312200863 0.05146507  0.00129689  0.1429642 0.7000
  4  -1076.0626268013  -0.264958941710 0.03738043  0.00099128  0.1002573 0.7000
  5  -1076.2505294361  -0.187902634765 0.08811333  0.00242371  0.0702809 0.0000
                      *** Initiating the SOSCF procedure ***
                           *** Shutting down DIIS ***
                      *** Re-Reading the Fockian *** 
                      *** Removing any level shift *** 
ITER      Energy       Delta-E        Grad      Rot      Max-DP    RMS-DP
  6  -1076.69847471  -0.4479452723  0.001452  0.001452  0.001780  0.000075
               *** Restarting incremental Fock matrix formation ***
  7  -1076.69867110  -0.0001963952  0.000572  0.002068  0.001702  0.000042
  8  -1076.69869639  -0.0000252880  0.000438  0.001767  0.000744  0.000030
  9  -1076.69869219   0.0000042058  0.000586  0.001003  0.000458  0.000018
 10  -1076.69870093  -0.0000087475  0.000015  0.000022  0.000052  0.000001
 11  -1076.69870089   0.0000000449  0.000015  0.000011  0.000021  0.000001
                  ***Gradient check signals convergence***
              ***Rediagonalizing the Fockian in SOSCF/NRSCF***

               *****************************************************
               *                     SUCCESS                       *
               *           SCF CONVERGED AFTER  12 CYCLES          *
               *****************************************************

Old exchange energy                            =    -63.989099037 Eh
New exchange energy                            =    -63.989046067 Eh
Exchange energy change after final integration =      0.000052970 Eh
Total energy after final integration           =  -1076.698647972 Eh
Final COS-X integration done in                =    69.104 sec

----------------
TOTAL SCF ENERGY
----------------

Total Energy       :        -1076.69864797 Eh          -29298.45972 eV

Components:
Nuclear Repulsion  :         2580.32772916 Eh           70214.28714 eV
Electronic Energy  :        -3657.02637714 Eh          -99512.74685 eV
One Electron Energy:        -6589.21996621 Eh         -179301.79081 eV
Two Electron Energy:         2932.19358908 Eh           79789.04396 eV
Max COSX asymmetry :            0.00000114 Eh               0.00003 eV

Virial components:
Potential Energy   :        -2144.48498047 Eh          -58354.40300 eV
Kinetic Energy     :         1067.78633250 Eh           29055.94328 eV
Virial Ratio       :            2.00834653


DFT components:
N(Alpha)           :       93.999920254005 electrons
N(Beta)            :       93.999920254005 electrons
N(Total)           :      187.999840508011 electrons
E(X)               :      -84.961613938249 Eh       
E(C)               :       -8.232236008812 Eh       
E(XC)              :      -93.193849947061 Eh       
DFET-embed. en.    :        0.000000000000 Eh       

---------------
SCF CONVERGENCE
---------------

  Last Energy change         ...   -5.3431e-08  Tolerance :   1.0000e-08
  Last MAX-Density change    ...    1.3017e-15  Tolerance :   1.0000e-07
  Last RMS-Density change    ...    2.9877e-17  Tolerance :   5.0000e-09
  Last Orbital Gradient      ...    1.4733e-06  Tolerance :   1.0000e-05
  Last Orbital Rotation      ...    4.5341e-06  Tolerance :   1.0000e-05

             **** THE GBW FILE WAS UPDATED (pbeh-3c.gbw) ****
             **** DENSITY pbeh-3c.scfp WAS UPDATED ****
             **** ENERGY FILE WAS UPDATED (pbeh-3c.en.tmp) ****
             **** THE GBW FILE WAS UPDATED (pbeh-3c.gbw) ****
             **** DENSITY pbeh-3c.scfp WAS UPDATED ****
----------------
ORBITAL ENERGIES
----------------

  NO   OCC          E(Eh)            E(eV) 
   0   2.0000     -10.462323      -284.6943 
   1   2.0000     -10.462258      -284.6925 
   2   2.0000     -10.462205      -284.6911 
   3   2.0000     -10.462105      -284.6884 
   4   2.0000     -10.450722      -284.3786 
   5   2.0000     -10.450641      -284.3764 
   6   2.0000     -10.450525      -284.3733 
   7   2.0000     -10.450443      -284.3710 
   8   2.0000     -10.450120      -284.3622 
   9   2.0000     -10.450054      -284.3604 
  10   2.0000     -10.449962      -284.3579 
  11   2.0000     -10.449949      -284.3576 
  12   2.0000     -10.442678      -284.1597 
  13   2.0000     -10.442674      -284.1596 
  14   2.0000     -10.442672      -284.1595 
  15   2.0000     -10.442664      -284.1593 
  16   2.0000     -10.442643      -284.1588 
  17   2.0000     -10.442641      -284.1587 
  18   2.0000     -10.442637      -284.1586 
  19   2.0000     -10.442637      -284.1586 
  20   2.0000     -10.441949      -284.1399 
  21   2.0000     -10.441949      -284.1399 
  22   2.0000     -10.441940      -284.1396 
  23   2.0000     -10.441940      -284.1396 
  24   2.0000     -10.441466      -284.1267 
  25   2.0000     -10.441464      -284.1267 
  26   2.0000     -10.441456      -284.1265 
  27   2.0000     -10.441455      -284.1264 
  28   2.0000      -1.002580       -27.2816 
  29   2.0000      -0.962519       -26.1915 
  30   2.0000      -0.948876       -25.8202 
  31   2.0000      -0.940857       -25.6020 
  32   2.0000      -0.904415       -24.6104 
  33   2.0000      -0.903929       -24.5971 
  34   2.0000      -0.871913       -23.7259 
  35   2.0000      -0.848507       -23.0891 
  36   2.0000      -0.834787       -22.7157 
  37   2.0000      -0.831229       -22.6189 
  38   2.0000      -0.828189       -22.5362 
  39   2.0000      -0.814974       -22.1766 
  40   2.0000      -0.801951       -21.8222 
  41   2.0000      -0.760382       -20.6911 
  42   2.0000      -0.751859       -20.4591 
  43   2.0000      -0.712970       -19.4009 
  44   2.0000      -0.697566       -18.9817 
  45   2.0000      -0.682439       -18.5701 
  46   2.0000      -0.670398       -18.2425 
  47   2.0000      -0.665275       -18.1030 
  48   2.0000      -0.659732       -17.9522 
  49   2.0000      -0.657420       -17.8893 
  50   2.0000      -0.631903       -17.1950 
  51   2.0000      -0.598304       -16.2807 
  52   2.0000      -0.588997       -16.0274 
  53   2.0000      -0.578376       -15.7384 
  54   2.0000      -0.567639       -15.4462 
  55   2.0000      -0.550284       -14.9740 
  56   2.0000      -0.546063       -14.8591 
  57   2.0000      -0.526519       -14.3273 
  58   2.0000      -0.524905       -14.2834 
  59   2.0000      -0.515970       -14.0402 
  60   2.0000      -0.506433       -13.7807 
  61   2.0000      -0.504085       -13.7168 
  62   2.0000      -0.503164       -13.6918 
  63   2.0000      -0.499943       -13.6041 
  64   2.0000      -0.494294       -13.4504 
  65   2.0000      -0.480947       -13.0872 
  66   2.0000      -0.479233       -13.0406 
  67   2.0000      -0.477026       -12.9805 
  68   2.0000      -0.466340       -12.6898 
  69   2.0000      -0.466314       -12.6890 
  70   2.0000      -0.458067       -12.4646 
  71   2.0000      -0.435219       -11.8429 
  72   2.0000      -0.432428       -11.7670 
  73   2.0000      -0.431681       -11.7466 
  74   2.0000      -0.418489       -11.3877 
  75   2.0000      -0.410780       -11.1779 
  76   2.0000      -0.408803       -11.1241 
  77   2.0000      -0.406395       -11.0586 
  78   2.0000      -0.398684       -10.8487 
  79   2.0000      -0.395832       -10.7711 
  80   2.0000      -0.394009       -10.7215 
  81   2.0000      -0.391134       -10.6433 
  82   2.0000      -0.385161       -10.4808 
  83   2.0000      -0.385021       -10.4770 
  84   2.0000      -0.358955        -9.7677 
  85   2.0000      -0.352874        -9.6022 
  86   2.0000      -0.295915        -8.0523 
  87   2.0000      -0.287931        -7.8350 
  88   2.0000      -0.286505        -7.7962 
  89   2.0000      -0.285867        -7.7788 
  90   2.0000      -0.279781        -7.6132 
  91   2.0000      -0.275101        -7.4859 
  92   2.0000      -0.270930        -7.3724 
  93   2.0000      -0.245359        -6.6766 
  94   0.0000       0.001662         0.0452 
  95   0.0000       0.003339         0.0909 
  96   0.0000       0.016083         0.4376 
  97   0.0000       0.017631         0.4798 
  98   0.0000       0.018120         0.4931 
  99   0.0000       0.025270         0.6876 
 100   0.0000       0.055690         1.5154 
 101   0.0000       0.058254         1.5852 
 102   0.0000       0.118501         3.2246 
 103   0.0000       0.133579         3.6349 
 104   0.0000       0.139776         3.8035 
 105   0.0000       0.157956         4.2982 
 106   0.0000       0.161135         4.3847 
 107   0.0000       0.166477         4.5301 
 108   0.0000       0.173722         4.7272 
 109   0.0000       0.185282         5.0418 
 110   0.0000       0.186469         5.0741 
 111   0.0000       0.187821         5.1109 
 112   0.0000       0.192565         5.2400 
 113   0.0000       0.201397         5.4803 
 114   0.0000       0.210667         5.7326 
 115   0.0000       0.212834         5.7915 
 116   0.0000       0.213132         5.7996 
 117   0.0000       0.218998         5.9592 
 118   0.0000       0.224342         6.1047 
 119   0.0000       0.229849         6.2545 
 120   0.0000       0.231072         6.2878 
 121   0.0000       0.235649         6.4123 
 122   0.0000       0.236723         6.4416 
 123   0.0000       0.237685         6.4677 
 124   0.0000       0.241713         6.5773 
 125   0.0000       0.262637         7.1467 
 126   0.0000       0.263535         7.1712 
 127   0.0000       0.263732         7.1765 
 128   0.0000       0.265323         7.2198 
 129   0.0000       0.290857         7.9146 
 130   0.0000       0.291748         7.9389 
 131   0.0000       0.298468         8.1217 
 132   0.0000       0.299589         8.1522 
 133   0.0000       0.304307         8.2806 
 134   0.0000       0.315243         8.5782 
 135   0.0000       0.322523         8.7763 
 136   0.0000       0.323818         8.8115 
 137   0.0000       0.327687         8.9168 
 138   0.0000       0.342583         9.3222 
 139   0.0000       0.348100         9.4723 
 140   0.0000       0.353497         9.6191 
 141   0.0000       0.354950         9.6587 
 142   0.0000       0.364113         9.9080 
 143   0.0000       0.372264        10.1298 
 144   0.0000       0.384417        10.4605 
 145   0.0000       0.386929        10.5289 
 146   0.0000       0.389481        10.5983 
 147   0.0000       0.407737        11.0951 
 148   0.0000       0.410607        11.1732 
 149   0.0000       0.412788        11.2325 
 150   0.0000       0.465627        12.6703 
 151   0.0000       0.467143        12.7116 
 152   0.0000       0.477843        13.0028 
 153   0.0000       0.487729        13.2718 
 154   0.0000       0.498496        13.5648 
 155   0.0000       0.503536        13.7019 
 156   0.0000       0.508428        13.8350 
 157   0.0000       0.509807        13.8725 
 158   0.0000       0.512663        13.9503 
 159   0.0000       0.534147        14.5349 
 160   0.0000       0.541190        14.7265 
 161   0.0000       0.544843        14.8259 
 162   0.0000       0.549372        14.9492 
 163   0.0000       0.550445        14.9784 
 164   0.0000       0.553133        15.0515 
 165   0.0000       0.556969        15.1559 
 166   0.0000       0.570854        15.5337 
 167   0.0000       0.572256        15.5719 
 168   0.0000       0.575138        15.6503 
 169   0.0000       0.592783        16.1304 
 170   0.0000       0.593548        16.1513 
 171   0.0000       0.598436        16.2843 
 172   0.0000       0.605742        16.4831 
 173   0.0000       0.607719        16.5369 
 174   0.0000       0.614052        16.7092 
 175   0.0000       0.618393        16.8273 
 176   0.0000       0.620943        16.8967 
 177   0.0000       0.622366        16.9354 
 178   0.0000       0.628924        17.1139 
 179   0.0000       0.631527        17.1847 
 180   0.0000       0.631739        17.1905 
 181   0.0000       0.634267        17.2593 
 182   0.0000       0.634730        17.2719 
 183   0.0000       0.638116        17.3640 
 184   0.0000       0.639702        17.4072 
 185   0.0000       0.644149        17.5282 
 186   0.0000       0.653228        17.7752 
 187   0.0000       0.656756        17.8712 
 188   0.0000       0.657492        17.8913 
 189   0.0000       0.657786        17.8993 
 190   0.0000       0.671346        18.2683 
 191   0.0000       0.681943        18.5566 
 192   0.0000       0.682531        18.5726 
 193   0.0000       0.685384        18.6502 
 194   0.0000       0.685883        18.6638 
 195   0.0000       0.690163        18.7803 
 196   0.0000       0.695192        18.9171 
 197   0.0000       0.699443        19.0328 
 198   0.0000       0.710987        19.3469 
 199   0.0000       0.715653        19.4739 
 200   0.0000       0.728227        19.8161 
 201   0.0000       0.746298        20.3078 
 202   0.0000       0.753124        20.4935 
 203   0.0000       0.758474        20.6391 
 204   0.0000       0.759330        20.6624 
 205   0.0000       0.776727        21.1358 
 206   0.0000       0.779527        21.2120 
 207   0.0000       0.779541        21.2124 
 208   0.0000       0.780079        21.2270 
 209   0.0000       0.783983        21.3333 
 210   0.0000       0.797141        21.6913 
 211   0.0000       0.811465        22.0811 
 212   0.0000       0.818224        22.2650 
 213   0.0000       0.841675        22.9031 
 214   0.0000       0.849180        23.1074 
 215   0.0000       0.859507        23.3884 
 216   0.0000       0.887169        24.1411 
 217   0.0000       0.898106        24.4387 
 218   0.0000       0.904823        24.6215 
 219   0.0000       0.920824        25.0569 
 220   0.0000       0.923239        25.1226 
 221   0.0000       0.930229        25.3128 
 222   0.0000       0.933341        25.3975 
 223   0.0000       0.935972        25.4691 
 224   0.0000       0.943084        25.6626 
 225   0.0000       0.944737        25.7076 
 226   0.0000       0.951480        25.8911 
 227   0.0000       0.958495        26.0820 
 228   0.0000       0.966647        26.3038 
 229   0.0000       0.966830        26.3088 
 230   0.0000       0.978236        26.6191 
 231   0.0000       0.991068        26.9683 
 232   0.0000       0.993025        27.0216 
 233   0.0000       0.999412        27.1954 
 234   0.0000       1.000366        27.2213 
 235   0.0000       1.003846        27.3160 
 236   0.0000       1.005008        27.3477 
 237   0.0000       1.009464        27.4689 
 238   0.0000       1.010439        27.4954 
 239   0.0000       1.023491        27.8506 
 240   0.0000       1.033356        28.1190 
 241   0.0000       1.044111        28.4117 
 242   0.0000       1.047550        28.5053 
 243   0.0000       1.055198        28.7134 
 244   0.0000       1.059013        28.8172 
 245   0.0000       1.059720        28.8364 
 246   0.0000       1.059792        28.8384 
 247   0.0000       1.064764        28.9737 
 248   0.0000       1.076251        29.2863 
 249   0.0000       1.089250        29.6400 
 250   0.0000       1.089968        29.6595 
 251   0.0000       1.093852        29.7652 
 252   0.0000       1.096888        29.8478 
 253   0.0000       1.099209        29.9110 
 254   0.0000       1.104160        30.0457 
 255   0.0000       1.105951        30.0945 
 256   0.0000       1.121344        30.5133 
 257   0.0000       1.123131        30.5619 
 258   0.0000       1.140934        31.0464 
 259   0.0000       1.142000        31.0754 
 260   0.0000       1.156434        31.4682 
 261   0.0000       1.163855        31.6701 
 262   0.0000       1.163912        31.6717 
 263   0.0000       1.171264        31.8717 
 264   0.0000       1.195110        32.5206 
 265   0.0000       1.205793        32.8113 
 266   0.0000       1.207142        32.8480 
 267   0.0000       1.210955        32.9518 
 268   0.0000       1.244767        33.8718 
 269   0.0000       1.246625        33.9224 
 270   0.0000       1.255888        34.1744 
 271   0.0000       1.265281        34.4300 
 272   0.0000       1.278433        34.7879 
 273   0.0000       1.294623        35.2285 
 274   0.0000       1.296913        35.2908 
 275   0.0000       1.332189        36.2507 
 276   0.0000       1.341099        36.4932 
 277   0.0000       1.350873        36.7591 
 278   0.0000       1.365313        37.1520 
 279   0.0000       1.389810        37.8187 
 280   0.0000       1.390944        37.8495 
 281   0.0000       1.394348        37.9421 
 282   0.0000       1.404912        38.2296 
 283   0.0000       1.407579        38.3022 
 284   0.0000       1.439721        39.1768 
 285   0.0000       1.461083        39.7581 
 286   0.0000       1.475316        40.1454 
 287   0.0000       1.502713        40.8909 
 288   0.0000       1.504106        40.9288 
 289   0.0000       1.522162        41.4201 
 290   0.0000       1.530165        41.6379 
 291   0.0000       1.538832        41.8737 
 292   0.0000       1.539647        41.8959 
 293   0.0000       1.548388        42.1338 
 294   0.0000       1.555496        42.3272 
 295   0.0000       1.556840        42.3638 
 296   0.0000       1.567824        42.6627 
 297   0.0000       1.569865        42.7182 
 298   0.0000       1.571171        42.7537 
 299   0.0000       1.584781        43.1241 
 300   0.0000       1.615122        43.9497 
 301   0.0000       1.628558        44.3153 
 302   0.0000       1.636189        44.5230 
 303   0.0000       1.645848        44.7858 
 304   0.0000       1.650268        44.9061 
 305   0.0000       1.673460        45.5372 
 306   0.0000       1.684662        45.8420 
 307   0.0000       1.712316        46.5945 
 308   0.0000       1.715079        46.6697 
 309   0.0000       1.746357        47.5208 
 310   0.0000       1.752815        47.6965 
 311   0.0000       1.755316        47.7646 
 312   0.0000       1.761102        47.9220 
 313   0.0000       1.802961        49.0611 
 314   0.0000       1.805359        49.1263 
 315   0.0000       1.836336        49.9692 
 316   0.0000       1.842402        50.1343 
 317   0.0000       1.850184        50.3461 
 318   0.0000       1.864958        50.7481 
 319   0.0000       1.866441        50.7884 
 320   0.0000       1.882848        51.2349 
 321   0.0000       1.886121        51.3240 
 322   0.0000       1.895220        51.5716 
 323   0.0000       1.901638        51.7462 
 324   0.0000       1.910448        51.9859 
 325   0.0000       1.928978        52.4902 
 326   0.0000       1.935695        52.6729 
 327   0.0000       1.939380        52.7732 
 328   0.0000       1.953198        53.1492 
 329   0.0000       1.953802        53.1656 
 330   0.0000       1.982675        53.9513 
 331   0.0000       1.995006        54.2869 
 332   0.0000       1.995315        54.2953 
 333   0.0000       1.998158        54.3727 
 334   0.0000       2.014776        54.8248 
 335   0.0000       2.016418        54.8695 
 336   0.0000       2.027191        55.1627 
 337   0.0000       2.050853        55.8065 
 338   0.0000       2.084651        56.7262 
 339   0.0000       2.091290        56.9069 
 340   0.0000       2.098783        57.1108 
 341   0.0000       2.113408        57.5088 
 342   0.0000       2.118530        57.6481 
 343   0.0000       2.139049        58.2065 
 344   0.0000       2.144215        58.3471 
 345   0.0000       2.150199        58.5099 
 346   0.0000       2.152072        58.5608 
 347   0.0000       2.165992        58.9396 
 348   0.0000       2.192562        59.6626 
 349   0.0000       2.192690        59.6661 
 350   0.0000       2.198947        59.8364 
 351   0.0000       2.202221        59.9255 
 352   0.0000       2.210680        60.1557 
 353   0.0000       2.224048        60.5194 
 354   0.0000       2.227432        60.6115 
 355   0.0000       2.230973        60.7078 
 356   0.0000       2.239132        60.9299 
 357   0.0000       2.261968        61.5513 
 358   0.0000       2.274432        61.8904 
 359   0.0000       2.277264        61.9675 
 360   0.0000       2.279588        62.0307 
 361   0.0000       2.285356        62.1877 
 362   0.0000       2.286810        62.2273 
 363   0.0000       2.305637        62.7396 
 364   0.0000       2.306081        62.7517 
 365   0.0000       2.306613        62.7661 
 366   0.0000       2.308910        62.8286 
 367   0.0000       2.316288        63.0294 
 368   0.0000       2.349851        63.9427 
 369   0.0000       2.363594        64.3167 
 370   0.0000       2.375170        64.6317 
 371   0.0000       2.389453        65.0203 
 372   0.0000       2.395264        65.1784 
 373   0.0000       2.396786        65.2199 
 374   0.0000       2.407722        65.5174 
 375   0.0000       2.407820        65.5201 
 376   0.0000       2.408444        65.5371 
 377   0.0000       2.424751        65.9808 
 378   0.0000       2.434142        66.2364 
 379   0.0000       2.436532        66.3014 
 380   0.0000       2.475643        67.3657 
 381   0.0000       2.486345        67.6569 
 382   0.0000       2.487478        67.6877 
 383   0.0000       2.492492        67.8241 
 384   0.0000       2.498366        67.9840 
 385   0.0000       2.500648        68.0461 
 386   0.0000       2.531685        68.8907 
 387   0.0000       2.572158        69.9920 
 388   0.0000       2.606586        70.9288 
 389   0.0000       2.619843        71.2896 
 390   0.0000       2.657951        72.3265 
 391   0.0000       2.674434        72.7750 
 392   0.0000       2.676570        72.8332 
 393   0.0000       2.695501        73.3483 
 394   0.0000       2.700296        73.4788 
 395   0.0000       2.706612        73.6507 
 396   0.0000       2.734244        74.4026 
 397   0.0000       2.739172        74.5367 
 398   0.0000       2.739357        74.5417 
 399   0.0000       2.739520        74.5461 
 400   0.0000       2.761083        75.1329 
 401   0.0000       2.764684        75.2309 
 402   0.0000       2.772216        75.4358 
 403   0.0000       2.809660        76.4547 
 404   0.0000       2.810377        76.4743 
 405   0.0000       2.812722        76.5381 
 406   0.0000       2.817054        76.6559 
 407   0.0000       2.826858        76.9227 
 408   0.0000       2.835440        77.1563 
 409   0.0000       2.852140        77.6107 
 410   0.0000       2.855499        77.7021 
 411   0.0000       2.871890        78.1481 
 412   0.0000       2.873836        78.2011 
 413   0.0000       2.880432        78.3805 
 414   0.0000       2.883706        78.4696 
 415   0.0000       2.888831        78.6091 
 416   0.0000       2.901816        78.9624 
 417   0.0000       2.926161        79.6249 
 418   0.0000       2.937849        79.9429 
 419   0.0000       2.940549        80.0164 
 420   0.0000       2.959339        80.5277 
 421   0.0000       2.982897        81.1687 
 422   0.0000       3.030950        82.4763 
 423   0.0000       3.091140        84.1142 
 424   0.0000       3.123056        84.9827 
 425   0.0000       3.148357        85.6712 
 426   0.0000       3.226184        87.7889 
 427   0.0000       3.289982        89.5249 
 428   0.0000       3.480321        94.7043 
 429   0.0000       3.492858        95.0455 
 430   0.0000       3.503097        95.3241 
 431   0.0000       3.514192        95.6260 
 432   0.0000      13.132677       357.3583 
 433   0.0000      13.282389       361.4322 
 434   0.0000      13.306603       362.0911 
 435   0.0000      13.407367       364.8330 
 436   0.0000      13.562032       369.0416 
 437   0.0000      13.682822       372.3285 
 438   0.0000      13.696980       372.7138 
 439   0.0000      13.718817       373.3080 
 440   0.0000      13.780841       374.9957 
 441   0.0000      13.789874       375.2415 
 442   0.0000      13.807465       375.7202 
 443   0.0000      13.927668       378.9911 
 444   0.0000      13.983317       380.5054 
 445   0.0000      14.049902       382.3173 
 446   0.0000      14.113427       384.0459 
 447   0.0000      14.134622       384.6226 
 448   0.0000      14.158541       385.2735 
 449   0.0000      14.197168       386.3246 
 450   0.0000      14.228363       387.1734 
 451   0.0000      14.273681       388.4066 
 452   0.0000      14.280368       388.5886 
 453   0.0000      14.324073       389.7779 
 454   0.0000      14.373665       391.1273 
 455   0.0000      14.512693       394.9105 
 456   0.0000      14.534210       395.4960 
 457   0.0000      14.539080       395.6285 
 458   0.0000      14.736853       401.0102 
 459   0.0000      14.749300       401.3489 

                    ********************************
                    * MULLIKEN POPULATION ANALYSIS *
                    ********************************

-----------------------
MULLIKEN ATOMIC CHARGES
-----------------------
   0 C :   -0.283083
   1 C :   -0.219178
   2 C :   -0.219179
   3 C :   -0.283082
   4 C :    0.165601
   5 C :    0.165601
   6 C :   -0.395410
   7 C :   -0.395408
   8 C :    0.165599
   9 C :    0.165602
  10 C :   -0.283081
  11 C :   -0.283081
  12 C :   -0.219179
  13 C :   -0.219178
  14 C :   -0.283082
  15 C :   -0.219178
  16 C :   -0.219178
  17 C :   -0.283082
  18 C :    0.165600
  19 C :    0.165601
  20 C :   -0.395408
  21 C :   -0.395407
  22 C :    0.165600
  23 C :    0.165601
  24 C :   -0.283082
  25 C :   -0.283082
  26 C :   -0.219179
  27 C :   -0.219178
  28 H :    0.201679
  29 H :    0.213712
  30 H :    0.213711
  31 H :    0.201679
  32 H :    0.237948
  33 H :    0.237947
  34 H :    0.201680
  35 H :    0.201679
  36 H :    0.213711
  37 H :    0.213711
  38 H :    0.201678
  39 H :    0.213711
  40 H :    0.213711
  41 H :    0.201679
  42 H :    0.237947
  43 H :    0.237947
  44 H :    0.201679
  45 H :    0.201679
  46 H :    0.213711
  47 H :    0.213712
Sum of atomic charges:   -0.0000000

--------------------------------
MULLIKEN REDUCED ORBITAL CHARGES
--------------------------------
  0 C s       :     3.290764  s :     3.290764
      pz      :     0.990851  p :     2.952660
      px      :     1.036050
      py      :     0.925760
      dz2     :     0.005407  d :     0.039659
      dxz     :     0.003464
      dyz     :     0.006623
      dx2y2   :     0.014493
      dxy     :     0.009671
  1 C s       :     3.248176  s :     3.248176
      pz      :     0.997083  p :     2.931394
      px      :     0.935988
      py      :     0.998322
      dz2     :     0.003748  d :     0.039608
      dxz     :     0.007051
      dyz     :     0.004908
      dx2y2   :     0.010721
      dxy     :     0.013180
  2 C s       :     3.248178  s :     3.248178
      pz      :     0.997083  p :     2.931393
      px      :     0.935988
      py      :     0.998322
      dz2     :     0.003748  d :     0.039608
      dxz     :     0.007051
      dyz     :     0.004908
      dx2y2   :     0.010721
      dxy     :     0.013180
  3 C s       :     3.290764  s :     3.290764
      pz      :     0.990851  p :     2.952660
      px      :     1.036049
      py      :     0.925760
      dz2     :     0.005407  d :     0.039659
      dxz     :     0.003464
      dyz     :     0.006623
      dx2y2   :     0.014493
      dxy     :     0.009671
  4 C s       :     3.143343  s :     3.143343
      pz      :     0.948660  p :     2.645687
      px      :     0.848911
      py      :     0.848116
      dz2     :     0.005219  d :     0.045368
      dxz     :     0.007343
      dyz     :     0.006423
      dx2y2   :     0.013743
      dxy     :     0.012640
  5 C s       :     3.143344  s :     3.143344
      pz      :     0.948661  p :     2.645687
      px      :     0.848912
      py      :     0.848113
      dz2     :     0.005219  d :     0.045368
      dxz     :     0.007343
      dyz     :     0.006423
      dx2y2   :     0.013743
      dxy     :     0.012640
  6 C s       :     3.383489  s :     3.383489
      pz      :     0.935458  p :     2.964525
      px      :     1.101270
      py      :     0.927797
      dz2     :     0.011927  d :     0.047397
      dxz     :     0.006949
      dyz     :     0.009258
      dx2y2   :     0.011327
      dxy     :     0.007936
  7 C s       :     3.383487  s :     3.383487
      pz      :     0.935458  p :     2.964524
      px      :     1.101269
      py      :     0.927797
      dz2     :     0.011927  d :     0.047397
      dxz     :     0.006949
      dyz     :     0.009258
      dx2y2   :     0.011327
      dxy     :     0.007936
  8 C s       :     3.143344  s :     3.143344
      pz      :     0.948662  p :     2.645688
      px      :     0.848911
      py      :     0.848115
      dz2     :     0.005219  d :     0.045368
      dxz     :     0.007343
      dyz     :     0.006423
      dx2y2   :     0.013743
      dxy     :     0.012640
  9 C s       :     3.143344  s :     3.143344
      pz      :     0.948661  p :     2.645686
      px      :     0.848911
      py      :     0.848114
      dz2     :     0.005219  d :     0.045368
      dxz     :     0.007343
      dyz     :     0.006423
      dx2y2   :     0.013743
      dxy     :     0.012640
 10 C s       :     3.290760  s :     3.290760
      pz      :     0.990851  p :     2.952662
      px      :     1.036050
      py      :     0.925761
      dz2     :     0.005407  d :     0.039659
      dxz     :     0.003464
      dyz     :     0.006623
      dx2y2   :     0.014493
      dxy     :     0.009671
 11 C s       :     3.290761  s :     3.290761
      pz      :     0.990851  p :     2.952662
      px      :     1.036051
      py      :     0.925761
      dz2     :     0.005407  d :     0.039659
      dxz     :     0.003464
      dyz     :     0.006623
      dx2y2   :     0.014493
      dxy     :     0.009671
 12 C s       :     3.248179  s :     3.248179
      pz      :     0.997083  p :     2.931393
      px      :     0.935987
      py      :     0.998323
      dz2     :     0.003748  d :     0.039608
      dxz     :     0.007051
      dyz     :     0.004908
      dx2y2   :     0.010721
      dxy     :     0.013180
 13 C s       :     3.248178  s :     3.248178
      pz      :     0.997083  p :     2.931392
      px      :     0.935987
      py      :     0.998322
      dz2     :     0.003748  d :     0.039608
      dxz     :     0.007051
      dyz     :     0.004908
      dx2y2   :     0.010721
      dxy     :     0.013180
 14 C s       :     3.290765  s :     3.290765
      pz      :     0.990851  p :     2.952659
      px      :     1.036048
      py      :     0.925760
      dz2     :     0.005407  d :     0.039659
      dxz     :     0.003464
      dyz     :     0.006623
      dx2y2   :     0.014493
      dxy     :     0.009671
 15 C s       :     3.248177  s :     3.248177
      pz      :     0.997083  p :     2.931393
      px      :     0.935988
      py      :     0.998322
      dz2     :     0.003748  d :     0.039608
      dxz     :     0.007051
      dyz     :     0.004908
      dx2y2   :     0.010721
      dxy     :     0.013180
 16 C s       :     3.248178  s :     3.248178
      pz      :     0.997083  p :     2.931392
      px      :     0.935987
      py      :     0.998322
      dz2     :     0.003748  d :     0.039608
      dxz     :     0.007051
      dyz     :     0.004908
      dx2y2   :     0.010721
      dxy     :     0.013180
 17 C s       :     3.290764  s :     3.290764
      pz      :     0.990851  p :     2.952660
      px      :     1.036049
      py      :     0.925760
      dz2     :     0.005407  d :     0.039659
      dxz     :     0.003464
      dyz     :     0.006623
      dx2y2   :     0.014493
      dxy     :     0.009671
 18 C s       :     3.143343  s :     3.143343
      pz      :     0.948661  p :     2.645689
      px      :     0.848912
      py      :     0.848116
      dz2     :     0.005219  d :     0.045368
      dxz     :     0.007343
      dyz     :     0.006423
      dx2y2   :     0.013743
      dxy     :     0.012640
 19 C s       :     3.143343  s :     3.143343
      pz      :     0.948661  p :     2.645688
      px      :     0.848912
      py      :     0.848115
      dz2     :     0.005219  d :     0.045368
      dxz     :     0.007343
      dyz     :     0.006423
      dx2y2   :     0.013743
      dxy     :     0.012640
 20 C s       :     3.383487  s :     3.383487
      pz      :     0.935458  p :     2.964525
      px      :     1.101269
      py      :     0.927798
      dz2     :     0.011927  d :     0.047397
      dxz     :     0.006949
      dyz     :     0.009258
      dx2y2   :     0.011327
      dxy     :     0.007936
 21 C s       :     3.383486  s :     3.383486
      pz      :     0.935458  p :     2.964525
      px      :     1.101270
      py      :     0.927797
      dz2     :     0.011927  d :     0.047397
      dxz     :     0.006949
      dyz     :     0.009258
      dx2y2   :     0.011327
      dxy     :     0.007936
 22 C s       :     3.143344  s :     3.143344
      pz      :     0.948662  p :     2.645688
      px      :     0.848912
      py      :     0.848114
      dz2     :     0.005219  d :     0.045368
      dxz     :     0.007343
      dyz     :     0.006423
      dx2y2   :     0.013743
      dxy     :     0.012640
 23 C s       :     3.143344  s :     3.143344
      pz      :     0.948661  p :     2.645687
      px      :     0.848912
      py      :     0.848114
      dz2     :     0.005219  d :     0.045368
      dxz     :     0.007343
      dyz     :     0.006423
      dx2y2   :     0.013743
      dxy     :     0.012640
 24 C s       :     3.290762  s :     3.290762
      pz      :     0.990851  p :     2.952662
      px      :     1.036050
      py      :     0.925760
      dz2     :     0.005407  d :     0.039659
      dxz     :     0.003464
      dyz     :     0.006623
      dx2y2   :     0.014493
      dxy     :     0.009671
 25 C s       :     3.290763  s :     3.290763
      pz      :     0.990850  p :     2.952661
      px      :     1.036050
      py      :     0.925760
      dz2     :     0.005407  d :     0.039659
      dxz     :     0.003464
      dyz     :     0.006623
      dx2y2   :     0.014493
      dxy     :     0.009671
 26 C s       :     3.248178  s :     3.248178
      pz      :     0.997083  p :     2.931393
      px      :     0.935987
      py      :     0.998322
      dz2     :     0.003748  d :     0.039608
      dxz     :     0.007051
      dyz     :     0.004908
      dx2y2   :     0.010721
      dxy     :     0.013180
 27 C s       :     3.248177  s :     3.248177
      pz      :     0.997083  p :     2.931393
      px      :     0.935987
      py      :     0.998323
      dz2     :     0.003748  d :     0.039608
      dxz     :     0.007051
      dyz     :     0.004908
      dx2y2   :     0.010721
      dxy     :     0.013180
 28 H s       :     0.798321  s :     0.798321
 29 H s       :     0.786288  s :     0.786288
 30 H s       :     0.786289  s :     0.786289
 31 H s       :     0.798321  s :     0.798321
 32 H s       :     0.762052  s :     0.762052
 33 H s       :     0.762053  s :     0.762053
 34 H s       :     0.798320  s :     0.798320
 35 H s       :     0.798321  s :     0.798321
 36 H s       :     0.786289  s :     0.786289
 37 H s       :     0.786289  s :     0.786289
 38 H s       :     0.798322  s :     0.798322
 39 H s       :     0.786289  s :     0.786289
 40 H s       :     0.786289  s :     0.786289
 41 H s       :     0.798321  s :     0.798321
 42 H s       :     0.762053  s :     0.762053
 43 H s       :     0.762053  s :     0.762053
 44 H s       :     0.798321  s :     0.798321
 45 H s       :     0.798321  s :     0.798321
 46 H s       :     0.786289  s :     0.786289
 47 H s       :     0.786288  s :     0.786288


                     *******************************
                     * LOEWDIN POPULATION ANALYSIS *
                     *******************************

----------------------
LOEWDIN ATOMIC CHARGES
----------------------
   0 C :   -0.127936
   1 C :   -0.133504
   2 C :   -0.133504
   3 C :   -0.127936
   4 C :   -0.023903
   5 C :   -0.023903
   6 C :   -0.101867
   7 C :   -0.101867
   8 C :   -0.023903
   9 C :   -0.023903
  10 C :   -0.127936
  11 C :   -0.127936
  12 C :   -0.133504
  13 C :   -0.133504
  14 C :   -0.127936
  15 C :   -0.133504
  16 C :   -0.133504
  17 C :   -0.127936
  18 C :   -0.023903
  19 C :   -0.023903
  20 C :   -0.101867
  21 C :   -0.101867
  22 C :   -0.023903
  23 C :   -0.023903
  24 C :   -0.127936
  25 C :   -0.127936
  26 C :   -0.133504
  27 C :   -0.133504
  28 H :    0.131948
  29 H :    0.134471
  30 H :    0.134471
  31 H :    0.131948
  32 H :    0.139715
  33 H :    0.139715
  34 H :    0.131948
  35 H :    0.131948
  36 H :    0.134471
  37 H :    0.134471
  38 H :    0.131948
  39 H :    0.134471
  40 H :    0.134471
  41 H :    0.131948
  42 H :    0.139715
  43 H :    0.139715
  44 H :    0.131948
  45 H :    0.131948
  46 H :    0.134471
  47 H :    0.134471

-------------------------------
LOEWDIN REDUCED ORBITAL CHARGES
-------------------------------
  0 C s       :     2.888524  s :     2.888524
      pz      :     1.008889  p :     3.149277
      px      :     1.074410
      py      :     1.065978
      dz2     :     0.009550  d :     0.090134
      dxz     :     0.007025
      dyz     :     0.015323
      dx2y2   :     0.033381
      dxy     :     0.024856
  1 C s       :     2.892291  s :     2.892291
      pz      :     1.001013  p :     3.151873
      px      :     1.086148
      py      :     1.064712
      dz2     :     0.006830  d :     0.089340
      dxz     :     0.014998
      dyz     :     0.009009
      dx2y2   :     0.027228
      dxy     :     0.031275
  2 C s       :     2.892291  s :     2.892291
      pz      :     1.001013  p :     3.151873
      px      :     1.086148
      py      :     1.064712
      dz2     :     0.006830  d :     0.089340
      dxz     :     0.014998
      dyz     :     0.009009
      dx2y2   :     0.027228
      dxy     :     0.031275
  3 C s       :     2.888524  s :     2.888524
      pz      :     1.008889  p :     3.149277
      px      :     1.074410
      py      :     1.065978
      dz2     :     0.009550  d :     0.090134
      dxz     :     0.007025
      dyz     :     0.015323
      dx2y2   :     0.033381
      dxy     :     0.024856
  4 C s       :     2.839689  s :     2.839689
      pz      :     0.970217  p :     3.073809
      px      :     1.073258
      py      :     1.030334
      dz2     :     0.010259  d :     0.110406
      dxz     :     0.016652
      dyz     :     0.014144
      dx2y2   :     0.035512
      dxy     :     0.033839
  5 C s       :     2.839689  s :     2.839689
      pz      :     0.970217  p :     3.073809
      px      :     1.073258
      py      :     1.030334
      dz2     :     0.010259  d :     0.110406
      dxz     :     0.016652
      dyz     :     0.014144
      dx2y2   :     0.035512
      dxy     :     0.033839
  6 C s       :     2.865757  s :     2.865757
      pz      :     1.015815  p :     3.133190
      px      :     1.078691
      py      :     1.038684
      dz2     :     0.027746  d :     0.102920
      dxz     :     0.013075
      dyz     :     0.020033
      dx2y2   :     0.023632
      dxy     :     0.018434
  7 C s       :     2.865757  s :     2.865757
      pz      :     1.015815  p :     3.133190
      px      :     1.078691
      py      :     1.038684
      dz2     :     0.027746  d :     0.102920
      dxz     :     0.013075
      dyz     :     0.020033
      dx2y2   :     0.023632
      dxy     :     0.018434
  8 C s       :     2.839689  s :     2.839689
      pz      :     0.970217  p :     3.073809
      px      :     1.073258
      py      :     1.030334
      dz2     :     0.010259  d :     0.110406
      dxz     :     0.016652
      dyz     :     0.014144
      dx2y2   :     0.035512
      dxy     :     0.033839
  9 C s       :     2.839689  s :     2.839689
      pz      :     0.970217  p :     3.073809
      px      :     1.073258
      py      :     1.030334
      dz2     :     0.010259  d :     0.110406
      dxz     :     0.016652
      dyz     :     0.014144
      dx2y2   :     0.035512
      dxy     :     0.033839
 10 C s       :     2.888524  s :     2.888524
      pz      :     1.008889  p :     3.149277
      px      :     1.074410
      py      :     1.065978
      dz2     :     0.009550  d :     0.090134
      dxz     :     0.007025
      dyz     :     0.015323
      dx2y2   :     0.033381
      dxy     :     0.024856
 11 C s       :     2.888524  s :     2.888524
      pz      :     1.008889  p :     3.149277
      px      :     1.074410
      py      :     1.065978
      dz2     :     0.009550  d :     0.090134
      dxz     :     0.007025
      dyz     :     0.015323
      dx2y2   :     0.033381
      dxy     :     0.024856
 12 C s       :     2.892291  s :     2.892291
      pz      :     1.001013  p :     3.151873
      px      :     1.086148
      py      :     1.064712
      dz2     :     0.006830  d :     0.089340
      dxz     :     0.014998
      dyz     :     0.009009
      dx2y2   :     0.027228
      dxy     :     0.031275
 13 C s       :     2.892291  s :     2.892291
      pz      :     1.001013  p :     3.151873
      px      :     1.086148
      py      :     1.064712
      dz2     :     0.006830  d :     0.089340
      dxz     :     0.014998
      dyz     :     0.009009
      dx2y2   :     0.027228
      dxy     :     0.031275
 14 C s       :     2.888524  s :     2.888524
      pz      :     1.008889  p :     3.149277
      px      :     1.074410
      py      :     1.065978
      dz2     :     0.009550  d :     0.090134
      dxz     :     0.007025
      dyz     :     0.015323
      dx2y2   :     0.033381
      dxy     :     0.024856
 15 C s       :     2.892291  s :     2.892291
      pz      :     1.001013  p :     3.151873
      px      :     1.086148
      py      :     1.064712
      dz2     :     0.006830  d :     0.089340
      dxz     :     0.014998
      dyz     :     0.009009
      dx2y2   :     0.027228
      dxy     :     0.031275
 16 C s       :     2.892291  s :     2.892291
      pz      :     1.001013  p :     3.151873
      px      :     1.086148
      py      :     1.064712
      dz2     :     0.006830  d :     0.089340
      dxz     :     0.014998
      dyz     :     0.009009
      dx2y2   :     0.027228
      dxy     :     0.031275
 17 C s       :     2.888524  s :     2.888524
      pz      :     1.008889  p :     3.149277
      px      :     1.074410
      py      :     1.065978
      dz2     :     0.009550  d :     0.090134
      dxz     :     0.007025
      dyz     :     0.015323
      dx2y2   :     0.033381
      dxy     :     0.024856
 18 C s       :     2.839689  s :     2.839689
      pz      :     0.970217  p :     3.073809
      px      :     1.073258
      py      :     1.030334
      dz2     :     0.010259  d :     0.110406
      dxz     :     0.016652
      dyz     :     0.014144
      dx2y2   :     0.035512
      dxy     :     0.033839
 19 C s       :     2.839689  s :     2.839689
      pz      :     0.970217  p :     3.073809
      px      :     1.073258
      py      :     1.030334
      dz2     :     0.010259  d :     0.110406
      dxz     :     0.016652
      dyz     :     0.014144
      dx2y2   :     0.035512
      dxy     :     0.033839
 20 C s       :     2.865757  s :     2.865757
      pz      :     1.015815  p :     3.133190
      px      :     1.078691
      py      :     1.038684
      dz2     :     0.027746  d :     0.102920
      dxz     :     0.013075
      dyz     :     0.020033
      dx2y2   :     0.023632
      dxy     :     0.018434
 21 C s       :     2.865757  s :     2.865757
      pz      :     1.015815  p :     3.133190
      px      :     1.078691
      py      :     1.038684
      dz2     :     0.027746  d :     0.102920
      dxz     :     0.013075
      dyz     :     0.020033
      dx2y2   :     0.023632
      dxy     :     0.018434
 22 C s       :     2.839689  s :     2.839689
      pz      :     0.970217  p :     3.073809
      px      :     1.073258
      py      :     1.030334
      dz2     :     0.010259  d :     0.110406
      dxz     :     0.016652
      dyz     :     0.014144
      dx2y2   :     0.035512
      dxy     :     0.033839
 23 C s       :     2.839689  s :     2.839689
      pz      :     0.970217  p :     3.073809
      px      :     1.073258
      py      :     1.030334
      dz2     :     0.010259  d :     0.110406
      dxz     :     0.016652
      dyz     :     0.014144
      dx2y2   :     0.035512
      dxy     :     0.033839
 24 C s       :     2.888524  s :     2.888524
      pz      :     1.008889  p :     3.149277
      px      :     1.074410
      py      :     1.065978
      dz2     :     0.009550  d :     0.090134
      dxz     :     0.007025
      dyz     :     0.015323
      dx2y2   :     0.033381
      dxy     :     0.024856
 25 C s       :     2.888524  s :     2.888524
      pz      :     1.008889  p :     3.149277
      px      :     1.074410
      py      :     1.065978
      dz2     :     0.009550  d :     0.090134
      dxz     :     0.007025
      dyz     :     0.015323
      dx2y2   :     0.033381
      dxy     :     0.024856
 26 C s       :     2.892291  s :     2.892291
      pz      :     1.001013  p :     3.151873
      px      :     1.086148
      py      :     1.064712
      dz2     :     0.006830  d :     0.089340
      dxz     :     0.014998
      dyz     :     0.009009
      dx2y2   :     0.027228
      dxy     :     0.031275
 27 C s       :     2.892291  s :     2.892291
      pz      :     1.001013  p :     3.151873
      px      :     1.086148
      py      :     1.064712
      dz2     :     0.006830  d :     0.089340
      dxz     :     0.014998
      dyz     :     0.009009
      dx2y2   :     0.027228
      dxy     :     0.031275
 28 H s       :     0.868052  s :     0.868052
 29 H s       :     0.865529  s :     0.865529
 30 H s       :     0.865529  s :     0.865529
 31 H s       :     0.868052  s :     0.868052
 32 H s       :     0.860285  s :     0.860285
 33 H s       :     0.860285  s :     0.860285
 34 H s       :     0.868052  s :     0.868052
 35 H s       :     0.868052  s :     0.868052
 36 H s       :     0.865529  s :     0.865529
 37 H s       :     0.865529  s :     0.865529
 38 H s       :     0.868052  s :     0.868052
 39 H s       :     0.865529  s :     0.865529
 40 H s       :     0.865529  s :     0.865529
 41 H s       :     0.868052  s :     0.868052
 42 H s       :     0.860285  s :     0.860285
 43 H s       :     0.860285  s :     0.860285
 44 H s       :     0.868052  s :     0.868052
 45 H s       :     0.868052  s :     0.868052
 46 H s       :     0.865529  s :     0.865529
 47 H s       :     0.865529  s :     0.865529


                      *****************************
                      * MAYER POPULATION ANALYSIS *
                      *****************************

  NA   - Mulliken gross atomic population
  ZA   - Total nuclear charge
  QA   - Mulliken gross atomic charge
  VA   - Mayer's total valence
  BVA  - Mayer's bonded valence
  FA   - Mayer's free valence

  ATOM       NA         ZA         QA         VA         BVA        FA
  0 C      6.2831     6.0000    -0.2831     3.8349     3.8349    -0.0000
  1 C      6.2192     6.0000    -0.2192     3.8262     3.8262    -0.0000
  2 C      6.2192     6.0000    -0.2192     3.8262     3.8262    -0.0000
  3 C      6.2831     6.0000    -0.2831     3.8349     3.8349    -0.0000
  4 C      5.8344     6.0000     0.1656     3.7057     3.7057    -0.0000
  5 C      5.8344     6.0000     0.1656     3.7057     3.7057    -0.0000
  6 C      6.3954     6.0000    -0.3954     3.6911     3.6911    -0.0000
  7 C      6.3954     6.0000    -0.3954     3.6911     3.6911    -0.0000
  8 C      5.8344     6.0000     0.1656     3.7057     3.7057    -0.0000
  9 C      5.8344     6.0000     0.1656     3.7057     3.7057    -0.0000
 10 C      6.2831     6.0000    -0.2831     3.8349     3.8349    -0.0000
 11 C      6.2831     6.0000    -0.2831     3.8349     3.8349    -0.0000
 12 C      6.2192     6.0000    -0.2192     3.8262     3.8262    -0.0000
 13 C      6.2192     6.0000    -0.2192     3.8262     3.8262    -0.0000
 14 C      6.2831     6.0000    -0.2831     3.8349     3.8349    -0.0000
 15 C      6.2192     6.0000    -0.2192     3.8262     3.8262    -0.0000
 16 C      6.2192     6.0000    -0.2192     3.8262     3.8262    -0.0000
 17 C      6.2831     6.0000    -0.2831     3.8349     3.8349    -0.0000
 18 C      5.8344     6.0000     0.1656     3.7057     3.7057    -0.0000
 19 C      5.8344     6.0000     0.1656     3.7057     3.7057    -0.0000
 20 C      6.3954     6.0000    -0.3954     3.6911     3.6911    -0.0000
 21 C      6.3954     6.0000    -0.3954     3.6911     3.6911    -0.0000
 22 C      5.8344     6.0000     0.1656     3.7057     3.7057    -0.0000
 23 C      5.8344     6.0000     0.1656     3.7057     3.7057    -0.0000
 24 C      6.2831     6.0000    -0.2831     3.8349     3.8349     0.0000
 25 C      6.2831     6.0000    -0.2831     3.8349     3.8349    -0.0000
 26 C      6.2192     6.0000    -0.2192     3.8262     3.8262    -0.0000
 27 C      6.2192     6.0000    -0.2192     3.8262     3.8262    -0.0000
 28 H      0.7983     1.0000     0.2017     0.9221     0.9221    -0.0000
 29 H      0.7863     1.0000     0.2137     0.9138     0.9138    -0.0000
 30 H      0.7863     1.0000     0.2137     0.9138     0.9138    -0.0000
 31 H      0.7983     1.0000     0.2017     0.9221     0.9221    -0.0000
 32 H      0.7621     1.0000     0.2379     0.9033     0.9033    -0.0000
 33 H      0.7621     1.0000     0.2379     0.9033     0.9033    -0.0000
 34 H      0.7983     1.0000     0.2017     0.9221     0.9221    -0.0000
 35 H      0.7983     1.0000     0.2017     0.9221     0.9221    -0.0000
 36 H      0.7863     1.0000     0.2137     0.9138     0.9138     0.0000
 37 H      0.7863     1.0000     0.2137     0.9138     0.9138     0.0000
 38 H      0.7983     1.0000     0.2017     0.9221     0.9221     0.0000
 39 H      0.7863     1.0000     0.2137     0.9138     0.9138    -0.0000
 40 H      0.7863     1.0000     0.2137     0.9138     0.9138     0.0000
 41 H      0.7983     1.0000     0.2017     0.9221     0.9221    -0.0000
 42 H      0.7621     1.0000     0.2379     0.9033     0.9033     0.0000
 43 H      0.7621     1.0000     0.2379     0.9033     0.9033    -0.0000
 44 H      0.7983     1.0000     0.2017     0.9221     0.9221    -0.0000
 45 H      0.7983     1.0000     0.2017     0.9221     0.9221    -0.0000
 46 H      0.7863     1.0000     0.2137     0.9138     0.9138    -0.0000
 47 H      0.7863     1.0000     0.2137     0.9138     0.9138    -0.0000

  Mayer bond orders larger than 0.100000
B(  0-C ,  1-C ) :   1.4124 B(  0-C ,  5-C ) :   1.4123 B(  0-C , 28-H ) :   0.9270 
B(  1-C ,  2-C ) :   1.4343 B(  1-C , 29-H ) :   0.9205 B(  2-C ,  3-C ) :   1.4124 
B(  2-C , 30-H ) :   0.9205 B(  3-C ,  4-C ) :   1.4123 B(  3-C , 31-H ) :   0.9270 
B(  4-C ,  5-C ) :   1.3734 B(  4-C ,  6-C ) :   0.9593 B(  5-C ,  7-C ) :   0.9593 
B(  6-C ,  9-C ) :   0.9593 B(  6-C , 20-C ) :   0.8930 B(  6-C , 32-H ) :   0.9214 
B(  7-C ,  8-C ) :   0.9593 B(  7-C , 21-C ) :   0.8930 B(  7-C , 33-H ) :   0.9214 
B(  8-C ,  9-C ) :   1.3734 B(  8-C , 10-C ) :   1.4123 B(  9-C , 11-C ) :   1.4123 
B( 10-C , 12-C ) :   1.4124 B( 10-C , 34-H ) :   0.9270 B( 11-C , 13-C ) :   1.4124 
B( 11-C , 35-H ) :   0.9270 B( 12-C , 13-C ) :   1.4343 B( 12-C , 36-H ) :   0.9205 
B( 13-C , 37-H ) :   0.9205 B( 14-C , 15-C ) :   1.4124 B( 14-C , 19-C ) :   1.4123 
B( 14-C , 38-H ) :   0.9270 B( 15-C , 16-C ) :   1.4343 B( 15-C , 39-H ) :   0.9205 
B( 16-C , 17-C ) :   1.4124 B( 16-C , 40-H ) :   0.9205 B( 17-C , 18-C ) :   1.4123 
B( 17-C , 41-H ) :   0.9270 B( 18-C , 19-C ) :   1.3734 B( 18-C , 20-C ) :   0.9593 
B( 19-C , 21-C ) :   0.9593 B( 20-C , 23-C ) :   0.9593 B( 20-C , 42-H ) :   0.9214 
B( 21-C , 22-C ) :   0.9593 B( 21-C , 43-H ) :   0.9214 B( 22-C , 23-C ) :   1.3734 
B( 22-C , 24-C ) :   1.4123 B( 23-C , 25-C ) :   1.4123 B( 24-C , 26-C ) :   1.4124 
B( 24-C , 44-H ) :   0.9270 B( 25-C , 27-C ) :   1.4124 B( 25-C , 45-H ) :   0.9270 
B( 26-C , 27-C ) :   1.4343 B( 26-C , 46-H ) :   0.9205 B( 27-C , 47-H ) :   0.9205 


-------
TIMINGS
-------

Total SCF time: 0 days 0 hours 9 min 28 sec 

Total time                  ....     568.802 sec
Sum of individual times     ....     557.134 sec  ( 97.9%)

Fock matrix formation       ....     511.155 sec  ( 89.9%)
  Split-RI-J                ....      33.311 sec  (  6.5% of F)
  Chain of spheres X        ....     402.204 sec  ( 78.7% of F)
  XC integration            ....      59.844 sec  ( 11.7% of F)
    Basis function eval.    ....      18.127 sec  ( 30.3% of XC)
    Density eval.           ....      15.071 sec  ( 25.2% of XC)
    XC-Functional eval.     ....       3.018 sec  (  5.0% of XC)
    XC-Potential eval.      ....       8.503 sec  ( 14.2% of XC)
Diagonalization             ....       2.090 sec  (  0.4%)
Density matrix formation    ....       0.095 sec  (  0.0%)
Population analysis         ....       0.685 sec  (  0.1%)
Initial guess               ....       0.186 sec  (  0.0%)
Orbital Transformation      ....       0.000 sec  (  0.0%)
Orbital Orthonormalization  ....       0.000 sec  (  0.0%)
DIIS solution               ....       3.649 sec  (  0.6%)
SOSCF solution              ....       1.497 sec  (  0.3%)
Grid generation             ....      37.777 sec  (  6.6%)

Maximum memory used throughout the entire SCF-calculation: 171.3 MB


-------------------------------------------------------------------------------
                          DFT DISPERSION CORRECTION                            
                                                                               
                              DFTD3 V3.1  Rev 1                                
                          USING Becke-Johnson damping                          
-------------------------------------------------------------------------------
The PBEh-3c composite method is recognized
Using three-body term ABC
Active option DFTDOPT                   ...         4   

molecular C6(AA) [au] = 29593.504027 


            DFT-D V3
 parameters
 s6 scaling factor         :     1.0000 
 a1 scaling factor         :     0.4860 
 s8 scaling factor         :     0.0000 
 a2 scaling factor         :     4.5000 
 Damping factor alpha9(ATM):    16.0000 
 ad hoc parameters k1-k3   :    16.0000     1.3333    -4.0000 

 Edisp/kcal,au: -29.975362325972  -0.047768775401 
 E6   /kcal   : -30.538936543 
 E8   /kcal   :  -0.000000000 
 E6(ABC)      :   0.563574217 
 % E8         :   0.000000000 
 % E6(ABC)    :  -1.880124787 

-------------------------   ----------------
Dispersion correction           -0.047768775
-------------------------   ----------------

------------------   -----------------
gCP correction             0.069489762
------------------   -----------------

-------------------------   --------------------
FINAL SINGLE POINT ENERGY     -1076.676926985688
-------------------------   --------------------


                            ***************************************
                            *     ORCA property calculations      *
                            ***************************************

                                    ---------------------
                                    Active property flags
                                    ---------------------
   (+) Dipole Moment


------------------------------------------------------------------------------
                       ORCA ELECTRIC PROPERTIES CALCULATION
------------------------------------------------------------------------------

Dipole Moment Calculation                       ... on
Quadrupole Moment Calculation                   ... off
Polarizability Calculation                      ... off
GBWName                                         ... pbeh-3c.gbw
Electron density                                ... pbeh-3c.scfp
The origin for moment calculation is the CENTER OF MASS  = ( 0.000000, -0.000000 -0.000000)

-------------
DIPOLE MOMENT
-------------
                                X             Y             Z
Electronic contribution:      0.00000       0.00000       0.00000
Nuclear contribution   :      0.00000       0.00000      -0.00000
                        -----------------------------------------
Total Dipole Moment    :      0.00000       0.00000       0.00000
                        -----------------------------------------
Magnitude (a.u.)       :      0.00000
Magnitude (Debye)      :      0.00000



--------------------
Rotational spectrum 
--------------------
 
Rotational constants in cm-1:     0.010757     0.006826     0.005405 
Rotational constants in MHz :   322.471904   204.644275   162.045779 

 Dipole components along the rotational axes: 
x,y,z [a.u.] :    -0.000000     0.000000     0.000000 
x,y,z [Debye]:    -0.000000     0.000001     0.000000 

 

Timings for individual modules:

Sum of individual times         ...      576.333 sec (=   9.606 min)
GTO integral calculation        ...        6.484 sec (=   0.108 min)   1.1 %
SCF iterations                  ...      569.849 sec (=   9.497 min)  98.9 %
                             ****ORCA TERMINATED NORMALLY****
TOTAL RUN TIME: 0 days 0 hours 9 minutes 41 seconds 705 msec
