
                                 *****************
                                 * O   R   C   A *
                                 *****************

                                            #,                                       
                                            ###                                      
                                            ####                                     
                                            #####                                    
                                            ######                                   
                                           ########,                                 
                                     ,,################,,,,,                         
                               ,,#################################,,                 
                          ,,##########################################,,             
                       ,#########################################, ''#####,          
                    ,#############################################,,   '####,        
                  ,##################################################,,,,####,       
                ,###########''''           ''''###############################       
              ,#####''   ,,,,##########,,,,          '''####'''          '####       
            ,##' ,,,,###########################,,,                        '##       
           ' ,,###''''                  '''############,,,                           
         ,,##''                                '''############,,,,        ,,,,,,###''
      ,#''                                            '''#######################'''  
     '                                                          ''''####''''         
             ,#######,   #######,   ,#######,      ##                                
            ,#'     '#,  ##    ##  ,#'     '#,    #''#        ######   ,####,        
            ##       ##  ##   ,#'  ##            #'  '#       #        #'  '#        
            ##       ##  #######   ##           ,######,      #####,   #    #        
            '#,     ,#'  ##    ##  '#,     ,#' ,#      #,         ##   #,  ,#        
             '#######'   ##     ##  '#######'  #'      '#     #####' # '####'        



                  #######################################################
                  #                        -***-                        #
                  #          Department of theory and spectroscopy      #
                  #    Directorship and core code : Frank Neese         #
                  #        Max Planck Institute fuer Kohlenforschung    #
                  #                Kaiser Wilhelm Platz 1               #
                  #                 D-45470 Muelheim/Ruhr               #
                  #                      Germany                        #
                  #                                                     #
                  #                  All rights reserved                #
                  #                        -***-                        #
                  #######################################################


                         Program Version 5.0.3 -  RELEASE  -


 With contributions from (in alphabetic order):
   Daniel Aravena         : Magnetic Suceptibility
   Michael Atanasov       : Ab Initio Ligand Field Theory (pilot matlab implementation)
   Alexander A. Auer      : GIAO ZORA, VPT2 properties, NMR spectrum
   Ute Becker             : Parallelization
   Giovanni Bistoni       : ED, misc. LED, open-shell LED, HFLD
   Martin Brehm           : Molecular dynamics
   Dmytro Bykov           : SCF Hessian
   Vijay G. Chilkuri      : MRCI spin determinant printing, contributions to CSF-ICE
   Dipayan Datta          : RHF DLPNO-CCSD density
   Achintya Kumar Dutta   : EOM-CC, STEOM-CC
   Dmitry Ganyushin       : Spin-Orbit,Spin-Spin,Magnetic field MRCI
   Miquel Garcia          : C-PCM and meta-GGA Hessian, CC/C-PCM, Gaussian charge scheme
   Yang Guo               : DLPNO-NEVPT2, F12-NEVPT2, CIM, IAO-localization
   Andreas Hansen         : Spin unrestricted coupled pair/coupled cluster methods
   Benjamin Helmich-Paris : MC-RPA, TRAH-SCF, COSX integrals
   Lee Huntington         : MR-EOM, pCC
   Robert Izsak           : Overlap fitted RIJCOSX, COSX-SCS-MP3, EOM
   Marcus Kettner         : VPT2
   Christian Kollmar      : KDIIS, OOCD, Brueckner-CCSD(T), CCSD density, CASPT2, CASPT2-K
   Simone Kossmann        : Meta GGA functionals, TD-DFT gradient, OOMP2, MP2 Hessian
   Martin Krupicka        : Initial AUTO-CI
   Lucas Lang             : DCDCAS
   Marvin Lechner         : AUTO-CI (C++ implementation), FIC-MRCC
   Dagmar Lenk            : GEPOL surface, SMD
   Dimitrios Liakos       : Extrapolation schemes; Compound Job, initial MDCI parallelization
   Dimitrios Manganas     : Further ROCIS development; embedding schemes
   Dimitrios Pantazis     : SARC Basis sets
   Anastasios Papadopoulos: AUTO-CI, single reference methods and gradients
   Taras Petrenko         : DFT Hessian,TD-DFT gradient, ASA, ECA, R-Raman, ABS, FL, XAS/XES, NRVS
   Peter Pinski           : DLPNO-MP2, DLPNO-MP2 Gradient
   Christoph Reimann      : Effective Core Potentials
   Marius Retegan         : Local ZFS, SOC
   Christoph Riplinger    : Optimizer, TS searches, QM/MM, DLPNO-CCSD(T), (RO)-DLPNO pert. Triples
   Tobias Risthaus        : Range-separated hybrids, TD-DFT gradient, RPA, STAB
   Michael Roemelt        : Original ROCIS implementation
   Masaaki Saitow         : Open-shell DLPNO-CCSD energy and density
   Barbara Sandhoefer     : DKH picture change effects
   Avijit Sen             : IP-ROCIS
   Kantharuban Sivalingam : CASSCF convergence, NEVPT2, FIC-MRCI
   Bernardo de Souza      : ESD, SOC TD-DFT
   Georgi Stoychev        : AutoAux, RI-MP2 NMR, DLPNO-MP2 response
   Willem Van den Heuvel  : Paramagnetic NMR
   Boris Wezisla          : Elementary symmetry handling
   Frank Wennmohs         : Technical directorship


 We gratefully acknowledge several colleagues who have allowed us to
 interface, adapt or use parts of their codes:
   Stefan Grimme, W. Hujo, H. Kruse, P. Pracht,  : VdW corrections, initial TS optimization,
                  C. Bannwarth, S. Ehlert          DFT functionals, gCP, sTDA/sTD-DF
   Ed Valeev, F. Pavosevic, A. Kumar             : LibInt (2-el integral package), F12 methods
   Garnet Chan, S. Sharma, J. Yang, R. Olivares  : DMRG
   Ulf Ekstrom                                   : XCFun DFT Library
   Mihaly Kallay                                 : mrcc  (arbitrary order and MRCC methods)
   Jiri Pittner, Ondrej Demel                    : Mk-CCSD
   Frank Weinhold                                : gennbo (NPA and NBO analysis)
   Christopher J. Cramer and Donald G. Truhlar   : smd solvation model
   Lars Goerigk                                  : TD-DFT with DH, B97 family of functionals
   V. Asgeirsson, H. Jonsson                     : NEB implementation
   FAccTs GmbH                                   : IRC, NEB, NEB-TS, DLPNO-Multilevel, CI-OPT
                                                   MM, QMMM, 2- and 3-layer-ONIOM, Crystal-QMMM,
                                                   LR-CPCM, SF, NACMEs, symmetry and pop. for TD-DFT,
                                                   nearIR, NL-DFT gradient (VV10), updates on ESD,
                                                   ML-optimized integration grids
   S Lehtola, MJT Oliveira, MAL Marques          : LibXC Library
   Liviu Ungur et al                             : ANISO software


 Your calculation uses the libint2 library for the computation of 2-el integrals
 For citations please refer to: http://libint.valeyev.net

 Your ORCA version has been built with support for libXC version: 5.1.0
 For citations please refer to: https://tddft.org/programs/libxc/

 This ORCA versions uses:
   CBLAS   interface :  Fast vector & matrix operations
   LAPACKE interface :  Fast linear algebra routines
   SCALAPACK package :  Parallel linear algebra routines
   Shared memory     :  Shared parallel matrices
   BLAS/LAPACK       :  OpenBLAS 0.3.15  USE64BITINT DYNAMIC_ARCH NO_AFFINITY Haswell SINGLE_THREADED
        Core in use  :  Haswell
   Copyright (c) 2011-2014, The OpenBLAS Project




***************************************
The coordinates will be read from file: 12a.xyz
***************************************


Your calculation utilizes the geometrical counterpoise correction gCP
Please cite in your paper:
H.Kruse, S. Grimme J.Chem.Phys., 136, (2012), 154101 
   

Your calculation utilizes the atom-pairwise dispersion correction
with the Becke-Johnson damping scheme (D3BJ)
Cite in your paper:
S.Grimme, S.Ehrlich, L.Goerigk, J Comput Chem, (2011), 32, 1456–1465 
S.Grimme, J.Antony, S.Ehrlich and H.Krieg, J.Chem.Phys., 132, (2010), 154104 
   

Your calculation employs the composite approach PBEh-3c.
Please cite in your paper:
S. Grimme, J. G. Brandenburg, C. Bannwarth, A. Hansen J.Chem.Phys., 143, (2015), 054107 
   

================================================================================

----- Orbital basis set information -----
Your calculation utilizes the basis: def2-mSVP

----- AuxJ basis set information -----
Your calculation utilizes the auxiliary basis: def2/J
   F. Weigend, Phys. Chem. Chem. Phys. 8, 1057 (2006).

================================================================================
                                        WARNINGS
                       Please study these warnings very carefully!
================================================================================


INFO   : the flag for use of the SHARK integral package has been found!

================================================================================
                                       INPUT FILE
================================================================================
NAME = pbeh-3c.inp
|  1> ! PBEh-3c def2/J TightSCF DefGrid3
|  2> 
|  3> %maxcore 60000
|  4> 
|  5> %pal
|  6> nprocs 4
|  7> end
|  8> 
|  9> *xyzfile 0 1 12a.xyz
| 10> 
| 11>                          ****END OF INPUT****
================================================================================

                       ****************************
                       * Single Point Calculation *
                       ****************************

---------------------------------
CARTESIAN COORDINATES (ANGSTROEM)
---------------------------------
  C     -1.130650    0.696138    0.000000
  C     -1.130650   -0.696138    0.000000
  C      1.130650   -0.696138    0.000000
  C      1.130650    0.696138    0.000000
  N      0.000000   -1.414479    0.000000
  N      0.000000    1.414479    0.000000
  H     -2.062480    1.247279    0.000000
  H     -2.062480   -1.247279    0.000000
  H      2.062480   -1.247279    0.000000
  H      2.062480    1.247279    0.000000

----------------------------
CARTESIAN COORDINATES (A.U.)
----------------------------
  NO LB      ZA    FRAG     MASS         X           Y           Z
   0 C     6.0000    0    12.011   -2.136618    1.315511    0.000000
   1 C     6.0000    0    12.011   -2.136618   -1.315511    0.000000
   2 C     6.0000    0    12.011    2.136618   -1.315511    0.000000
   3 C     6.0000    0    12.011    2.136618    1.315511    0.000000
   4 N     7.0000    0    14.007    0.000000   -2.672977    0.000000
   5 N     7.0000    0    14.007    0.000000    2.672977    0.000000
   6 H     1.0000    0     1.008   -3.897522    2.357016    0.000000
   7 H     1.0000    0     1.008   -3.897522   -2.357016    0.000000
   8 H     1.0000    0     1.008    3.897522   -2.357016    0.000000
   9 H     1.0000    0     1.008    3.897522    2.357016    0.000000

--------------------------------
INTERNAL COORDINATES (ANGSTROEM)
--------------------------------
 C      0   0   0     0.000000000000     0.00000000     0.00000000
 C      1   0   0     1.392276600000     0.00000000     0.00000000
 C      2   1   0     2.261299200000    90.00000000     0.00000000
 C      3   2   1     1.392276600000    90.00000000     0.00000000
 N      2   1   3     1.339545185719   122.42918902     0.00000000
 N      1   2   3     1.339545185719   122.42918902     0.00000000
 H      1   2   3     1.082618893686   120.60262828   180.00000000
 H      2   1   3     1.082618893686   120.60262828   180.00000000
 H      3   2   1     1.082618893686   149.39737172   180.00000000
 H      4   3   2     1.082618893686   120.60262828   180.00000000

---------------------------
INTERNAL COORDINATES (A.U.)
---------------------------
 C      0   0   0     0.000000000000     0.00000000     0.00000000
 C      1   0   0     2.631021476667     0.00000000     0.00000000
 C      2   1   0     4.273236194855    90.00000000     0.00000000
 C      3   2   1     2.631021476667    90.00000000     0.00000000
 N      2   1   3     2.531373545023   122.42918902     0.00000000
 N      1   2   3     2.531373545023   122.42918902     0.00000000
 H      1   2   3     2.045853216476   120.60262828   180.00000000
 H      2   1   3     2.045853216476   120.60262828   180.00000000
 H      3   2   1     2.045853216476   149.39737172   180.00000000
 H      4   3   2     2.045853216476   120.60262828   180.00000000

---------------------
BASIS SET INFORMATION
---------------------
There are 3 groups of distinct atoms

 Group   1 Type C   : 8s4p1d contracted to 4s2p1d pattern {5111/31/1}
 Group   2 Type N   : 8s4p1d contracted to 4s2p1d pattern {5111/31/1}
 Group   3 Type H   : 4s contracted to 2s pattern {31}

Atom   0C    basis set group =>   1
Atom   1C    basis set group =>   1
Atom   2C    basis set group =>   1
Atom   3C    basis set group =>   1
Atom   4N    basis set group =>   2
Atom   5N    basis set group =>   2
Atom   6H    basis set group =>   3
Atom   7H    basis set group =>   3
Atom   8H    basis set group =>   3
Atom   9H    basis set group =>   3
---------------------------------
AUXILIARY/J BASIS SET INFORMATION
---------------------------------
There are 3 groups of distinct atoms

 Group   1 Type C   : 12s5p4d2f1g contracted to 6s4p3d1f1g pattern {711111/2111/211/2/1}
 Group   2 Type N   : 12s5p4d2f1g contracted to 6s4p3d1f1g pattern {711111/2111/211/2/1}
 Group   3 Type H   : 5s2p1d contracted to 3s1p1d pattern {311/2/1}

Atom   0C    basis set group =>   1
Atom   1C    basis set group =>   1
Atom   2C    basis set group =>   1
Atom   3C    basis set group =>   1
Atom   4N    basis set group =>   2
Atom   5N    basis set group =>   2
Atom   6H    basis set group =>   3
Atom   7H    basis set group =>   3
Atom   8H    basis set group =>   3
Atom   9H    basis set group =>   3


           ************************************************************
           *        Program running with 4 parallel MPI-processes     *
           *              working on a common directory               *
           ************************************************************
------------------------------------------------------------------------------
                           ORCA GTO INTEGRAL CALCULATION
                           -- RI-GTO INTEGRALS CHOSEN --
------------------------------------------------------------------------------
------------------------------------------------------------------------------
                   ___                                                        
                  /   \      - P O W E R E D   B Y -                         
                 /     \                                                     
                 |  |  |   _    _      __       _____    __    __             
                 |  |  |  | |  | |    /  \     |  _  \  |  |  /  |          
                  \  \/   | |  | |   /    \    | | | |  |  | /  /          
                 / \  \   | |__| |  /  /\  \   | |_| |  |  |/  /          
                |  |  |   |  __  | /  /__\  \  |    /   |      \           
                |  |  |   | |  | | |   __   |  |    \   |  |\   \          
                \     /   | |  | | |  |  |  |  | |\  \  |  | \   \       
                 \___/    |_|  |_| |__|  |__|  |_| \__\ |__|  \__/        
                                                                              
                      - O R C A' S   B I G   F R I E N D -                    
                                      &                                       
                       - I N T E G R A L  F E E D E R -                       
                                                                              
 v1 FN, 2020, v2 2021                                                         
------------------------------------------------------------------------------


Reading SHARK input file pbeh-3c.SHARKINP.tmp ... ok
----------------------
SHARK INTEGRAL PACKAGE
----------------------

Number of atoms                             ...     10
Number of basis functions                   ...     98
Number of shells                            ...     50
Maximum angular momentum                    ...      2
Integral batch strategy                     ... SHARK/LIBINT Hybrid
RI-J (if used) integral strategy            ... SPLIT-RIJ (Revised 2003 algorithm where possible)
Printlevel                                  ...      1
Contraction scheme used                     ... SEGMENTED contraction
Coulomb Range Separation                    ... NOT USED
Exchange Range Separation                   ... NOT USED
Finite Nucleus Model                        ... NOT USED
Auxiliary Coulomb fitting basis             ... AVAILABLE
   # of basis functions in Aux-J            ...    338
   # of shells in Aux-J                     ...    110
   Maximum angular momentum in Aux-J        ...      4
Auxiliary J/K fitting basis                 ... NOT available
Auxiliary Correlation fitting basis         ... NOT available
Auxiliary 'external' fitting basis          ... NOT available
Integral threshold                          ...     2.500000e-11
Primitive cut-off                           ...     2.500000e-12
Primitive pair pre-selection threshold      ...     2.500000e-12

Calculating pre-screening integrals         ... done (  0.1 sec) Dimension = 50
Organizing shell pair data                  ... done (  0.1 sec)
Shell pair information
Total number of shell pairs                 ...      1275
Shell pairs after pre-screening             ...      1223
Total number of primitive shell pairs       ...      4555
Primitive shell pairs kept                  ...      3345
          la=0 lb=0:    476 shell pairs
          la=1 lb=0:    384 shell pairs
          la=1 lb=1:     78 shell pairs
          la=2 lb=0:    192 shell pairs
          la=2 lb=1:     72 shell pairs
          la=2 lb=2:     21 shell pairs

Calculating one electron integrals          ... done (  0.0 sec)
Calculating RI/J V-Matrix + Cholesky decomp.... done (  0.1 sec)
Calculating Nuclear repulsion               ... done (  0.0 sec) ENN=    208.626597995617 Eh

SHARK setup successfully completed in   1.3 seconds

Maximum memory used throughout the entire GTOINT-calculation: 10.0 MB


           ************************************************************
           *        Program running with 4 parallel MPI-processes     *
           *              working on a common directory               *
           ************************************************************
-------------------------------------------------------------------------------
                                 ORCA SCF
-------------------------------------------------------------------------------

------------
SCF SETTINGS
------------
Hamiltonian:
 Density Functional     Method          .... DFT(GTOs)
 Exchange Functional    Exchange        .... PBE
   PBE kappa parameter   XKappa         ....  1.024500
   PBE mue parameter    XMuePBE         ....  0.123457
 Correlation Functional Correlation     .... PBE
   PBE beta parameter  CBetaPBE         ....  0.030000
 LDA part of GGA corr.  LDAOpt          .... PW91-LDA
 Gradients option       PostSCFGGA      .... off
 Hybrid DFT is turned on
   Fraction HF Exchange ScalHFX         ....  0.420000
   Scaling of DF-GGA-X  ScalDFX         ....  0.580000
   Scaling of DF-GGA-C  ScalDFC         ....  1.000000
   Scaling of DF-LDA-C  ScalLDAC        ....  1.000000
   Perturbative correction              ....  0.000000
   Density functional embedding theory  .... OFF
 RI-approximation to the Coulomb term is turned on
   Number of AuxJ basis functions       .... 338
   RIJ-ON(X) (HFX calculated with O(N)) .... on
   Number of AuxJ basis functions       .... 338
   RIJ-COSX (HFX calculated with COS-X)).... on


General Settings:
 Integral files         IntName         .... pbeh-3c
 Hartree-Fock type      HFTyp           .... RHF
 Total Charge           Charge          ....    0
 Multiplicity           Mult            ....    1
 Number of Electrons    NEL             ....   42
 Basis Dimension        Dim             ....   98
 Nuclear Repulsion      ENuc            ....    208.6265979956 Eh

Convergence Acceleration:
 DIIS                   CNVDIIS         .... on
   Start iteration      DIISMaxIt       ....    12
   Startup error        DIISStart       ....  0.200000
   # of expansion vecs  DIISMaxEq       ....     5
   Bias factor          DIISBfac        ....   1.050
   Max. coefficient     DIISMaxC        ....  10.000
 Trust-Rad. Augm. Hess. CNVTRAH         .... auto
   Auto Start mean grad. ratio tolernc. ....  1.125000
   Auto Start start iteration           ....    20
   Auto Start num. interpolation iter.  ....    10
   Max. Number of Micro iterations      ....    16
   Max. Number of Macro iterations      .... Maxiter - #DIIS iter
   Number of Davidson start vectors     ....     2
   Converg. threshold I  (grad. norm)   ....   1.000e-05
   Converg. threshold II (energy diff.) ....   1.000e-08
   Grad. Scal. Fac. for Micro threshold ....   0.100
   Minimum threshold for Micro iter.    ....   0.010
   NR start threshold (gradient norm)   ....   0.001
   Initial trust radius                 ....   0.400
   Minimum AH scaling param. (alpha)    ....   1.000
   Maximum AH scaling param. (alpha)    .... 1000.000
   Orbital update algorithm             .... Taylor
   White noise on init. David. guess    .... on
   Maximum white noise                  ....   0.010
   Quad. conv. algorithm                .... NR
   COSX micro iterations for RIJONX calc.... off
 SOSCF                  CNVSOSCF        .... on
   Start iteration      SOSCFMaxIt      ....   150
   Startup grad/error   SOSCFStart      ....  0.003300
 Level Shifting         CNVShift        .... on
   Level shift para.    LevelShift      ....    0.2500
   Turn off err/grad.   ShiftErr        ....    0.0010
 Zerner damping         CNVZerner       .... off
 Static damping         CNVDamp         .... on
   Fraction old density DampFac         ....    0.7000
   Max. Damping (<1)    DampMax         ....    0.9800
   Min. Damping (>=0)   DampMin         ....    0.0000
   Turn off err/grad.   DampErr         ....    0.1000
 Fernandez-Rico         CNVRico         .... off

SCF Procedure:
 Maximum # iterations   MaxIter         ....   125
 SCF integral mode      SCFMode         .... Direct
   Integral package                     .... SHARK and LIBINT hybrid scheme
 Reset frequency        DirectResetFreq ....    20
 Integral Threshold     Thresh          ....  2.500e-11 Eh
 Primitive CutOff       TCut            ....  2.500e-12 Eh

Convergence Tolerance:
 Convergence Check Mode ConvCheckMode   .... Total+1el-Energy
 Convergence forced     ConvForced      .... 0
 Energy Change          TolE            ....  1.000e-08 Eh
 1-El. energy change                    ....  1.000e-05 Eh
 Orbital Gradient       TolG            ....  1.000e-05
 Orbital Rotation angle TolX            ....  1.000e-05
 DIIS Error             TolErr          ....  5.000e-07


Diagonalization of the overlap matrix:
Smallest eigenvalue                        ... 2.611e-03
Time for diagonalization                   ...    0.002 sec
Threshold for overlap eigenvalues          ... 1.000e-08
Number of eigenvalues below threshold      ... 0
Time for construction of square roots      ...    0.014 sec
Total time needed                          ...    0.015 sec

--------------------------------
INITIAL GUESS: MINIMAL BASIS EHT
--------------------------------
The minimal basis has 34 functions
EHT matrix was diagonalized
Basis set overlap was calculated now projecting the orbitals
Using GuessMode=FMatrix for the initial guess
C*T matrix was formed
Effective Fockian was calculated
Effective Fockian was diagonalized
Initial density was built
                      ------------------
                      INITIAL GUESS DONE
                      ------------------
-------------------
DFT GRID GENERATION
-------------------

General Integration Accuracy     IntAcc      ... 4.959
Radial Grid Type                 RadialGrid  ... OptM3 with GC (2021)
Angular Grid (max. ang.)         AngularGrid ... 6 (Lebedev-590)
Angular grid pruning method      GridPruning ... 4 (adaptive)
Weight generation scheme         WeightScheme... Becke
Basis function cutoff            BFCut       ... 1.0000e-11
Integration weight cutoff        WCut        ... 1.0000e-14
Angular grids for H and He will be reduced by one unit
Partially contracted basis set               ... off
Rotationally invariant grid construction     ... off

Total number of grid points                  ...   121470
Total number of batches                      ...     1903
Average number of points per batch           ...       63
Average number of grid points per atom       ...    12147
Time for grid setup =    2.562 sec

--------------------
COSX GRID GENERATION
--------------------

GRIDX 1
-------
General Integration Accuracy     IntAcc      ... 4.020
Radial Grid Type                 RadialGrid  ... OptM3 with GC (2021)
Angular Grid (max. ang.)         AngularGrid ... 2 (Lebedev-110)
Angular grid pruning method      GridPruning ... 4 (adaptive)
Weight generation scheme         WeightScheme... Becke
Basis function cutoff            BFCut       ... 1.0000e-11
Integration weight cutoff        WCut        ... 1.0000e-14
Angular grids for H and He will be reduced by one unit
Partially contracted basis set               ... on
Rotationally invariant grid construction     ... off

Total number of grid points                  ...    14008
Total number of batches                      ...      222
Average number of points per batch           ...       63
Average number of grid points per atom       ...     1401
UseSFitting                                  ... on

GRIDX 2
-------
General Integration Accuracy     IntAcc      ... 4.338
Radial Grid Type                 RadialGrid  ... OptM3 with GC (2021)
Angular Grid (max. ang.)         AngularGrid ... 3 (Lebedev-194)
Angular grid pruning method      GridPruning ... 4 (adaptive)
Weight generation scheme         WeightScheme... Becke
Basis function cutoff            BFCut       ... 1.0000e-11
Integration weight cutoff        WCut        ... 1.0000e-14
Angular grids for H and He will be reduced by one unit
Partially contracted basis set               ... on
Rotationally invariant grid construction     ... off

Total number of grid points                  ...    30986
Total number of batches                      ...      488
Average number of points per batch           ...       63
Average number of grid points per atom       ...     3099
UseSFitting                                  ... on

GRIDX 3
-------
General Integration Accuracy     IntAcc      ... 4.871
Radial Grid Type                 RadialGrid  ... OptM3 with GC (2021)
Angular Grid (max. ang.)         AngularGrid ... 4 (Lebedev-302)
Angular grid pruning method      GridPruning ... 4 (adaptive)
Weight generation scheme         WeightScheme... Becke
Basis function cutoff            BFCut       ... 1.0000e-11
Integration weight cutoff        WCut        ... 1.0000e-14
Angular grids for H and He will be reduced by one unit
Partially contracted basis set               ... on
Rotationally invariant grid construction     ... off

Total number of grid points                  ...    58126
Total number of batches                      ...      914
Average number of points per batch           ...       63
Average number of grid points per atom       ...     5813
UseSFitting                                  ... on

Time for X-Grid setup             =    2.703 sec

--------------
SCF ITERATIONS
--------------
ITER       Energy         Delta-E        Max-DP      RMS-DP      [F,P]     Damp
               ***  Starting incremental Fock matrix formation  ***
  0   -262.8070550953   0.000000000000 0.14937353  0.00725232  0.3999141 0.7000
  1   -263.1427031845  -0.335648089183 0.09404017  0.00453068  0.2713245 0.7000
                               ***Turning on DIIS***
  2   -263.3229270886  -0.180223904139 0.05067850  0.00258898  0.1954411 0.7000
  3   -263.4438016483  -0.120874559660 0.03118133  0.00173064  0.1390787 0.7000
  4   -263.5302571047  -0.086455456475 0.06724659  0.00423161  0.0966216 0.0000
  5   -263.7389819863  -0.208724881571 0.01020906  0.00036562  0.0090475 0.0000
  6   -263.7393010744  -0.000319088142 0.00309029  0.00015022  0.0048152 0.0000
                      *** Initiating the SOSCF procedure ***
                           *** Shutting down DIIS ***
                      *** Re-Reading the Fockian *** 
                      *** Removing any level shift *** 
ITER      Energy       Delta-E        Grad      Rot      Max-DP    RMS-DP
  7   -263.73941733  -0.0001162576  0.000642  0.000642  0.002588  0.000101
               *** Restarting incremental Fock matrix formation ***
  8   -263.73941553   0.0000017995  0.000099  0.000193  0.000370  0.000015
  9   -263.73941568  -0.0000001491  0.000057  0.000063  0.000099  0.000005
 10   -263.73941573  -0.0000000482  0.000006  0.000010  0.000017  0.000001
 11   -263.73941573   0.0000000009  0.000007  0.000007  0.000008  0.000000
                  ***Gradient check signals convergence***
              ***Rediagonalizing the Fockian in SOSCF/NRSCF***

               *****************************************************
               *                     SUCCESS                       *
               *           SCF CONVERGED AFTER  12 CYCLES          *
               *****************************************************

Old exchange energy                            =    -14.827681844 Eh
New exchange energy                            =    -14.827676550 Eh
Exchange energy change after final integration =      0.000005294 Eh
Total energy after final integration           =   -263.739410433 Eh
Final COS-X integration done in                =     1.859 sec

----------------
TOTAL SCF ENERGY
----------------

Total Energy       :         -263.73941043 Eh           -7176.71421 eV

Components:
Nuclear Repulsion  :          208.62659800 Eh            5677.01835 eV
Electronic Energy  :         -472.36600843 Eh          -12853.73256 eV
One Electron Energy:         -768.73155045 Eh          -20918.24895 eV
Two Electron Energy:          296.36554202 Eh            8064.51639 eV
Max COSX asymmetry :            0.00000035 Eh               0.00001 eV

Virial components:
Potential Energy   :         -525.42356789 Eh          -14297.50215 eV
Kinetic Energy     :          261.68415746 Eh            7120.78794 eV
Virial Ratio       :            2.00785394


DFT components:
N(Alpha)           :       21.000000057632 electrons
N(Beta)            :       21.000000057632 electrons
N(Total)           :       42.000000115263 electrons
E(X)               :      -19.725613480962 Eh       
E(C)               :       -1.834700168002 Eh       
E(XC)              :      -21.560313648964 Eh       
DFET-embed. en.    :        0.000000000000 Eh       

---------------
SCF CONVERGENCE
---------------

  Last Energy change         ...    1.9568e-09  Tolerance :   1.0000e-08
  Last MAX-Density change    ...    1.4433e-15  Tolerance :   1.0000e-07
  Last RMS-Density change    ...    5.3293e-17  Tolerance :   5.0000e-09
  Last Orbital Gradient      ...    5.3140e-07  Tolerance :   1.0000e-05
  Last Orbital Rotation      ...    7.4302e-07  Tolerance :   1.0000e-05

             **** THE GBW FILE WAS UPDATED (pbeh-3c.gbw) ****
             **** DENSITY pbeh-3c.scfp WAS UPDATED ****
             **** ENERGY FILE WAS UPDATED (pbeh-3c.en.tmp) ****
             **** THE GBW FILE WAS UPDATED (pbeh-3c.gbw) ****
             **** DENSITY pbeh-3c.scfp WAS UPDATED ****
----------------
ORBITAL ENERGIES
----------------

  NO   OCC          E(Eh)            E(eV) 
   0   2.0000     -14.666690      -399.1009 
   1   2.0000     -14.666564      -399.0975 
   2   2.0000     -10.497157      -285.6422 
   3   2.0000     -10.497115      -285.6410 
   4   2.0000     -10.496574      -285.6263 
   5   2.0000     -10.496562      -285.6260 
   6   2.0000      -1.094044       -29.7704 
   7   2.0000      -1.015448       -27.6317 
   8   2.0000      -0.875491       -23.8233 
   9   2.0000      -0.748718       -20.3737 
  10   2.0000      -0.740463       -20.1490 
  11   2.0000      -0.603566       -16.4239 
  12   2.0000      -0.588241       -16.0069 
  13   2.0000      -0.559588       -15.2272 
  14   2.0000      -0.504518       -13.7286 
  15   2.0000      -0.488491       -13.2925 
  16   2.0000      -0.450268       -12.2524 
  17   2.0000      -0.380961       -10.3665 
  18   2.0000      -0.380434       -10.3521 
  19   2.0000      -0.321569        -8.7503 
  20   2.0000      -0.311078        -8.4649 
  21   0.0000      -0.032516        -0.8848 
  22   0.0000      -0.004174        -0.1136 
  23   0.0000       0.166036         4.5181 
  24   0.0000       0.169056         4.6002 
  25   0.0000       0.190070         5.1721 
  26   0.0000       0.203042         5.5250 
  27   0.0000       0.215622         5.8674 
  28   0.0000       0.219810         5.9813 
  29   0.0000       0.301516         8.2047 
  30   0.0000       0.334214         9.0944 
  31   0.0000       0.342338         9.3155 
  32   0.0000       0.473162        12.8754 
  33   0.0000       0.486665        13.2428 
  34   0.0000       0.495581        13.4855 
  35   0.0000       0.506559        13.7842 
  36   0.0000       0.551862        15.0169 
  37   0.0000       0.555166        15.1068 
  38   0.0000       0.582964        15.8632 
  39   0.0000       0.611931        16.6515 
  40   0.0000       0.632389        17.2082 
  41   0.0000       0.654962        17.8224 
  42   0.0000       0.657970        17.9043 
  43   0.0000       0.676630        18.4120 
  44   0.0000       0.729991        19.8641 
  45   0.0000       0.828967        22.5573 
  46   0.0000       0.893246        24.3065 
  47   0.0000       0.897946        24.4344 
  48   0.0000       0.920632        25.0517 
  49   0.0000       0.928147        25.2562 
  50   0.0000       0.946765        25.7628 
  51   0.0000       0.976870        26.5820 
  52   0.0000       1.006009        27.3749 
  53   0.0000       1.015220        27.6255 
  54   0.0000       1.029732        28.0204 
  55   0.0000       1.072866        29.1942 
  56   0.0000       1.146800        31.2060 
  57   0.0000       1.153697        31.3937 
  58   0.0000       1.229870        33.4665 
  59   0.0000       1.280373        34.8407 
  60   0.0000       1.343699        36.5639 
  61   0.0000       1.408269        38.3210 
  62   0.0000       1.525173        41.5021 
  63   0.0000       1.526234        41.5309 
  64   0.0000       1.541852        41.9559 
  65   0.0000       1.556032        42.3418 
  66   0.0000       1.558768        42.4162 
  67   0.0000       1.733227        47.1635 
  68   0.0000       1.825977        49.6874 
  69   0.0000       1.839557        50.0569 
  70   0.0000       1.844033        50.1787 
  71   0.0000       1.934324        52.6356 
  72   0.0000       2.042099        55.5683 
  73   0.0000       2.085131        56.7393 
  74   0.0000       2.154993        58.6403 
  75   0.0000       2.201859        59.9156 
  76   0.0000       2.255361        61.3715 
  77   0.0000       2.296170        62.4820 
  78   0.0000       2.317627        63.0658 
  79   0.0000       2.326545        63.3085 
  80   0.0000       2.392226        65.0958 
  81   0.0000       2.480364        67.4941 
  82   0.0000       2.506705        68.2109 
  83   0.0000       2.593055        70.5606 
  84   0.0000       2.624939        71.4282 
  85   0.0000       2.772494        75.4434 
  86   0.0000       2.778444        75.6053 
  87   0.0000       2.792221        75.9802 
  88   0.0000       2.808528        76.4239 
  89   0.0000       2.890985        78.6677 
  90   0.0000       3.105892        84.5156 
  91   0.0000       3.462902        94.2304 
  92   0.0000      13.446598       365.9005 
  93   0.0000      13.564272       369.1026 
  94   0.0000      14.091094       383.4382 
  95   0.0000      14.131049       384.5254 
  96   0.0000      19.225158       523.1431 
  97   0.0000      19.530479       531.4514 

                    ********************************
                    * MULLIKEN POPULATION ANALYSIS *
                    ********************************

-----------------------
MULLIKEN ATOMIC CHARGES
-----------------------
   0 C :   -0.087003
   1 C :   -0.087003
   2 C :   -0.087003
   3 C :   -0.087003
   4 N :   -0.309591
   5 N :   -0.309591
   6 H :    0.241799
   7 H :    0.241799
   8 H :    0.241799
   9 H :    0.241799
Sum of atomic charges:   -0.0000000

--------------------------------
MULLIKEN REDUCED ORBITAL CHARGES
--------------------------------
  0 C s       :     3.181276  s :     3.181276
      pz      :     0.948148  p :     2.848147
      px      :     0.965645
      py      :     0.934355
      dz2     :     0.004601  d :     0.057579
      dxz     :     0.005375
      dyz     :     0.005908
      dx2y2   :     0.020511
      dxy     :     0.021184
  1 C s       :     3.181276  s :     3.181276
      pz      :     0.948148  p :     2.848148
      px      :     0.965645
      py      :     0.934355
      dz2     :     0.004601  d :     0.057579
      dxz     :     0.005375
      dyz     :     0.005908
      dx2y2   :     0.020511
      dxy     :     0.021184
  2 C s       :     3.181276  s :     3.181276
      pz      :     0.948148  p :     2.848148
      px      :     0.965645
      py      :     0.934355
      dz2     :     0.004601  d :     0.057579
      dxz     :     0.005375
      dyz     :     0.005908
      dx2y2   :     0.020511
      dxy     :     0.021184
  3 C s       :     3.181276  s :     3.181276
      pz      :     0.948148  p :     2.848148
      px      :     0.965645
      py      :     0.934355
      dz2     :     0.004601  d :     0.057579
      dxz     :     0.005375
      dyz     :     0.005908
      dx2y2   :     0.020511
      dxy     :     0.021184
  4 N s       :     3.615530  s :     3.615530
      pz      :     1.066552  p :     3.650510
      px      :     1.027039
      py      :     1.556919
      dz2     :     0.004803  d :     0.043551
      dxz     :     0.007087
      dyz     :     0.007499
      dx2y2   :     0.006912
      dxy     :     0.017250
  5 N s       :     3.615530  s :     3.615530
      pz      :     1.066552  p :     3.650510
      px      :     1.027039
      py      :     1.556919
      dz2     :     0.004803  d :     0.043551
      dxz     :     0.007087
      dyz     :     0.007499
      dx2y2   :     0.006912
      dxy     :     0.017250
  6 H s       :     0.758201  s :     0.758201
  7 H s       :     0.758201  s :     0.758201
  8 H s       :     0.758201  s :     0.758201
  9 H s       :     0.758201  s :     0.758201


                     *******************************
                     * LOEWDIN POPULATION ANALYSIS *
                     *******************************

----------------------
LOEWDIN ATOMIC CHARGES
----------------------
   0 C :   -0.082991
   1 C :   -0.082991
   2 C :   -0.082991
   3 C :   -0.082991
   4 N :   -0.108237
   5 N :   -0.108237
   6 H :    0.137110
   7 H :    0.137110
   8 H :    0.137110
   9 H :    0.137110

-------------------------------
LOEWDIN REDUCED ORBITAL CHARGES
-------------------------------
  0 C s       :     2.899017  s :     2.899017
      pz      :     0.940422  p :     3.055586
      px      :     1.039768
      py      :     1.075396
      dz2     :     0.008661  d :     0.128388
      dxz     :     0.008810
      dyz     :     0.011906
      dx2y2   :     0.050174
      dxy     :     0.048837
  1 C s       :     2.899017  s :     2.899017
      pz      :     0.940422  p :     3.055586
      px      :     1.039768
      py      :     1.075396
      dz2     :     0.008661  d :     0.128388
      dxz     :     0.008810
      dyz     :     0.011906
      dx2y2   :     0.050174
      dxy     :     0.048837
  2 C s       :     2.899017  s :     2.899017
      pz      :     0.940422  p :     3.055586
      px      :     1.039768
      py      :     1.075396
      dz2     :     0.008661  d :     0.128388
      dxz     :     0.008810
      dyz     :     0.011906
      dx2y2   :     0.050174
      dxy     :     0.048837
  3 C s       :     2.899017  s :     2.899017
      pz      :     0.940422  p :     3.055586
      px      :     1.039768
      py      :     1.075396
      dz2     :     0.008661  d :     0.128388
      dxz     :     0.008810
      dyz     :     0.011906
      dx2y2   :     0.050174
      dxy     :     0.048837
  4 N s       :     3.222018  s :     3.222018
      pz      :     1.053310  p :     3.794481
      px      :     1.160657
      py      :     1.580514
      dz2     :     0.008586  d :     0.091738
      dxz     :     0.016256
      dyz     :     0.008156
      dx2y2   :     0.020038
      dxy     :     0.038702
  5 N s       :     3.222018  s :     3.222018
      pz      :     1.053310  p :     3.794481
      px      :     1.160657
      py      :     1.580514
      dz2     :     0.008586  d :     0.091738
      dxz     :     0.016256
      dyz     :     0.008156
      dx2y2   :     0.020038
      dxy     :     0.038702
  6 H s       :     0.862890  s :     0.862890
  7 H s       :     0.862890  s :     0.862890
  8 H s       :     0.862890  s :     0.862890
  9 H s       :     0.862890  s :     0.862890


                      *****************************
                      * MAYER POPULATION ANALYSIS *
                      *****************************

  NA   - Mulliken gross atomic population
  ZA   - Total nuclear charge
  QA   - Mulliken gross atomic charge
  VA   - Mayer's total valence
  BVA  - Mayer's bonded valence
  FA   - Mayer's free valence

  ATOM       NA         ZA         QA         VA         BVA        FA
  0 C      6.0870     6.0000    -0.0870     3.8250     3.8250    -0.0000
  1 C      6.0870     6.0000    -0.0870     3.8250     3.8250    -0.0000
  2 C      6.0870     6.0000    -0.0870     3.8250     3.8250    -0.0000
  3 C      6.0870     6.0000    -0.0870     3.8250     3.8250     0.0000
  4 N      7.3096     7.0000    -0.3096     3.0943     3.0943    -0.0000
  5 N      7.3096     7.0000    -0.3096     3.0943     3.0943    -0.0000
  6 H      0.7582     1.0000     0.2418     0.9032     0.9032    -0.0000
  7 H      0.7582     1.0000     0.2418     0.9032     0.9032    -0.0000
  8 H      0.7582     1.0000     0.2418     0.9032     0.9032    -0.0000
  9 H      0.7582     1.0000     0.2418     0.9032     0.9032    -0.0000

  Mayer bond orders larger than 0.100000
B(  0-C ,  1-C ) :   1.3429 B(  0-C ,  2-C ) :   0.1044 B(  0-C ,  5-N ) :   1.5004 
B(  0-C ,  6-H ) :   0.9085 B(  1-C ,  3-C ) :   0.1044 B(  1-C ,  4-N ) :   1.5004 
B(  1-C ,  7-H ) :   0.9085 B(  2-C ,  3-C ) :   1.3429 B(  2-C ,  4-N ) :   1.5004 
B(  2-C ,  8-H ) :   0.9085 B(  3-C ,  5-N ) :   1.5004 B(  3-C ,  9-H ) :   0.9085 


-------
TIMINGS
-------

Total SCF time: 0 days 0 hours 0 min 59 sec 

Total time                  ....      59.124 sec
Sum of individual times     ....      53.739 sec  ( 90.9%)

Fock matrix formation       ....      44.333 sec  ( 75.0%)
  Split-RI-J                ....       5.931 sec  ( 13.4% of F)
  Chain of spheres X        ....      13.651 sec  ( 30.8% of F)
  XC integration            ....      10.304 sec  ( 23.2% of F)
    Basis function eval.    ....       2.050 sec  ( 19.9% of XC)
    Density eval.           ....       1.230 sec  ( 11.9% of XC)
    XC-Functional eval.     ....       0.998 sec  (  9.7% of XC)
    XC-Potential eval.      ....       0.984 sec  (  9.5% of XC)
Diagonalization             ....       0.660 sec  (  1.1%)
Density matrix formation    ....       0.210 sec  (  0.4%)
Population analysis         ....       0.383 sec  (  0.6%)
Initial guess               ....       0.037 sec  (  0.1%)
Orbital Transformation      ....       0.000 sec  (  0.0%)
Orbital Orthonormalization  ....       0.000 sec  (  0.0%)
DIIS solution               ....       2.205 sec  (  3.7%)
SOSCF solution              ....       0.645 sec  (  1.1%)
Grid generation             ....       5.265 sec  (  8.9%)

Maximum memory used throughout the entire SCF-calculation: 49.7 MB


-------------------------------------------------------------------------------
                          DFT DISPERSION CORRECTION                            
                                                                               
                              DFTD3 V3.1  Rev 1                                
                          USING Becke-Johnson damping                          
-------------------------------------------------------------------------------
The PBEh-3c composite method is recognized
Using three-body term ABC
Active option DFTDOPT                   ...         4   

molecular C6(AA) [au] = 1284.300868 


            DFT-D V3
 parameters
 s6 scaling factor         :     1.0000 
 a1 scaling factor         :     0.4860 
 s8 scaling factor         :     0.0000 
 a2 scaling factor         :     4.5000 
 Damping factor alpha9(ATM):    16.0000 
 ad hoc parameters k1-k3   :    16.0000     1.3333    -4.0000 

 Edisp/kcal,au: -2.995231484184  -0.004773204690 
 E6   /kcal   :  -2.997633325 
 E8   /kcal   :  -0.000000000 
 E6(ABC)      :   0.002401841 
 % E8         :   0.000000000 
 % E6(ABC)    :  -0.080188835 

-------------------------   ----------------
Dispersion correction           -0.004773205
-------------------------   ----------------

------------------   -----------------
gCP correction             0.016190176
------------------   -----------------

-------------------------   --------------------
FINAL SINGLE POINT ENERGY      -263.727993461268
-------------------------   --------------------


                            ***************************************
                            *     ORCA property calculations      *
                            ***************************************

                                    ---------------------
                                    Active property flags
                                    ---------------------
   (+) Dipole Moment


------------------------------------------------------------------------------
                       ORCA ELECTRIC PROPERTIES CALCULATION
------------------------------------------------------------------------------

Dipole Moment Calculation                       ... on
Quadrupole Moment Calculation                   ... off
Polarizability Calculation                      ... off
GBWName                                         ... pbeh-3c.gbw
Electron density                                ... pbeh-3c.scfp
The origin for moment calculation is the CENTER OF MASS  = ( 0.000000,  0.000000  0.000000)

-------------
DIPOLE MOMENT
-------------
                                X             Y             Z
Electronic contribution:      0.00000      -0.00000       0.00000
Nuclear contribution   :      0.00000       0.00000       0.00000
                        -----------------------------------------
Total Dipole Moment    :      0.00000      -0.00000       0.00000
                        -----------------------------------------
Magnitude (a.u.)       :      0.00000
Magnitude (Debye)      :      0.00000



--------------------
Rotational spectrum 
--------------------
 
Rotational constants in cm-1:     0.214558     0.196926     0.102682 
Rotational constants in MHz :  6432.272404  5903.680640  3078.325763 

 Dipole components along the rotational axes: 
x,y,z [a.u.] :    -0.000000     0.000000     0.000000 
x,y,z [Debye]:    -0.000000     0.000000     0.000000 

 

Timings for individual modules:

Sum of individual times         ...       61.313 sec (=   1.022 min)
GTO integral calculation        ...        1.756 sec (=   0.029 min)   2.9 %
SCF iterations                  ...       59.557 sec (=   0.993 min)  97.1 %
                             ****ORCA TERMINATED NORMALLY****
TOTAL RUN TIME: 0 days 0 hours 1 minutes 2 seconds 418 msec
