
                                 *****************
                                 * O   R   C   A *
                                 *****************

                                            #,                                       
                                            ###                                      
                                            ####                                     
                                            #####                                    
                                            ######                                   
                                           ########,                                 
                                     ,,################,,,,,                         
                               ,,#################################,,                 
                          ,,##########################################,,             
                       ,#########################################, ''#####,          
                    ,#############################################,,   '####,        
                  ,##################################################,,,,####,       
                ,###########''''           ''''###############################       
              ,#####''   ,,,,##########,,,,          '''####'''          '####       
            ,##' ,,,,###########################,,,                        '##       
           ' ,,###''''                  '''############,,,                           
         ,,##''                                '''############,,,,        ,,,,,,###''
      ,#''                                            '''#######################'''  
     '                                                          ''''####''''         
             ,#######,   #######,   ,#######,      ##                                
            ,#'     '#,  ##    ##  ,#'     '#,    #''#        ######   ,####,        
            ##       ##  ##   ,#'  ##            #'  '#       #        #'  '#        
            ##       ##  #######   ##           ,######,      #####,   #    #        
            '#,     ,#'  ##    ##  '#,     ,#' ,#      #,         ##   #,  ,#        
             '#######'   ##     ##  '#######'  #'      '#     #####' # '####'        



                  #######################################################
                  #                        -***-                        #
                  #          Department of theory and spectroscopy      #
                  #    Directorship and core code : Frank Neese         #
                  #        Max Planck Institute fuer Kohlenforschung    #
                  #                Kaiser Wilhelm Platz 1               #
                  #                 D-45470 Muelheim/Ruhr               #
                  #                      Germany                        #
                  #                                                     #
                  #                  All rights reserved                #
                  #                        -***-                        #
                  #######################################################


                         Program Version 5.0.3 -  RELEASE  -


 With contributions from (in alphabetic order):
   Daniel Aravena         : Magnetic Suceptibility
   Michael Atanasov       : Ab Initio Ligand Field Theory (pilot matlab implementation)
   Alexander A. Auer      : GIAO ZORA, VPT2 properties, NMR spectrum
   Ute Becker             : Parallelization
   Giovanni Bistoni       : ED, misc. LED, open-shell LED, HFLD
   Martin Brehm           : Molecular dynamics
   Dmytro Bykov           : SCF Hessian
   Vijay G. Chilkuri      : MRCI spin determinant printing, contributions to CSF-ICE
   Dipayan Datta          : RHF DLPNO-CCSD density
   Achintya Kumar Dutta   : EOM-CC, STEOM-CC
   Dmitry Ganyushin       : Spin-Orbit,Spin-Spin,Magnetic field MRCI
   Miquel Garcia          : C-PCM and meta-GGA Hessian, CC/C-PCM, Gaussian charge scheme
   Yang Guo               : DLPNO-NEVPT2, F12-NEVPT2, CIM, IAO-localization
   Andreas Hansen         : Spin unrestricted coupled pair/coupled cluster methods
   Benjamin Helmich-Paris : MC-RPA, TRAH-SCF, COSX integrals
   Lee Huntington         : MR-EOM, pCC
   Robert Izsak           : Overlap fitted RIJCOSX, COSX-SCS-MP3, EOM
   Marcus Kettner         : VPT2
   Christian Kollmar      : KDIIS, OOCD, Brueckner-CCSD(T), CCSD density, CASPT2, CASPT2-K
   Simone Kossmann        : Meta GGA functionals, TD-DFT gradient, OOMP2, MP2 Hessian
   Martin Krupicka        : Initial AUTO-CI
   Lucas Lang             : DCDCAS
   Marvin Lechner         : AUTO-CI (C++ implementation), FIC-MRCC
   Dagmar Lenk            : GEPOL surface, SMD
   Dimitrios Liakos       : Extrapolation schemes; Compound Job, initial MDCI parallelization
   Dimitrios Manganas     : Further ROCIS development; embedding schemes
   Dimitrios Pantazis     : SARC Basis sets
   Anastasios Papadopoulos: AUTO-CI, single reference methods and gradients
   Taras Petrenko         : DFT Hessian,TD-DFT gradient, ASA, ECA, R-Raman, ABS, FL, XAS/XES, NRVS
   Peter Pinski           : DLPNO-MP2, DLPNO-MP2 Gradient
   Christoph Reimann      : Effective Core Potentials
   Marius Retegan         : Local ZFS, SOC
   Christoph Riplinger    : Optimizer, TS searches, QM/MM, DLPNO-CCSD(T), (RO)-DLPNO pert. Triples
   Tobias Risthaus        : Range-separated hybrids, TD-DFT gradient, RPA, STAB
   Michael Roemelt        : Original ROCIS implementation
   Masaaki Saitow         : Open-shell DLPNO-CCSD energy and density
   Barbara Sandhoefer     : DKH picture change effects
   Avijit Sen             : IP-ROCIS
   Kantharuban Sivalingam : CASSCF convergence, NEVPT2, FIC-MRCI
   Bernardo de Souza      : ESD, SOC TD-DFT
   Georgi Stoychev        : AutoAux, RI-MP2 NMR, DLPNO-MP2 response
   Willem Van den Heuvel  : Paramagnetic NMR
   Boris Wezisla          : Elementary symmetry handling
   Frank Wennmohs         : Technical directorship


 We gratefully acknowledge several colleagues who have allowed us to
 interface, adapt or use parts of their codes:
   Stefan Grimme, W. Hujo, H. Kruse, P. Pracht,  : VdW corrections, initial TS optimization,
                  C. Bannwarth, S. Ehlert          DFT functionals, gCP, sTDA/sTD-DF
   Ed Valeev, F. Pavosevic, A. Kumar             : LibInt (2-el integral package), F12 methods
   Garnet Chan, S. Sharma, J. Yang, R. Olivares  : DMRG
   Ulf Ekstrom                                   : XCFun DFT Library
   Mihaly Kallay                                 : mrcc  (arbitrary order and MRCC methods)
   Jiri Pittner, Ondrej Demel                    : Mk-CCSD
   Frank Weinhold                                : gennbo (NPA and NBO analysis)
   Christopher J. Cramer and Donald G. Truhlar   : smd solvation model
   Lars Goerigk                                  : TD-DFT with DH, B97 family of functionals
   V. Asgeirsson, H. Jonsson                     : NEB implementation
   FAccTs GmbH                                   : IRC, NEB, NEB-TS, DLPNO-Multilevel, CI-OPT
                                                   MM, QMMM, 2- and 3-layer-ONIOM, Crystal-QMMM,
                                                   LR-CPCM, SF, NACMEs, symmetry and pop. for TD-DFT,
                                                   nearIR, NL-DFT gradient (VV10), updates on ESD,
                                                   ML-optimized integration grids
   S Lehtola, MJT Oliveira, MAL Marques          : LibXC Library
   Liviu Ungur et al                             : ANISO software


 Your calculation uses the libint2 library for the computation of 2-el integrals
 For citations please refer to: http://libint.valeyev.net

 Your ORCA version has been built with support for libXC version: 5.1.0
 For citations please refer to: https://tddft.org/programs/libxc/

 This ORCA versions uses:
   CBLAS   interface :  Fast vector & matrix operations
   LAPACKE interface :  Fast linear algebra routines
   SCALAPACK package :  Parallel linear algebra routines
   Shared memory     :  Shared parallel matrices
   BLAS/LAPACK       :  OpenBLAS 0.3.15  USE64BITINT DYNAMIC_ARCH NO_AFFINITY Haswell SINGLE_THREADED
        Core in use  :  Haswell
   Copyright (c) 2011-2014, The OpenBLAS Project




***************************************
The coordinates will be read from file: cis-135-Hexatriene.xyz
***************************************


Your calculation utilizes the geometrical counterpoise correction gCP
Please cite in your paper:
H.Kruse, S. Grimme J.Chem.Phys., 136, (2012), 154101 
   

Your calculation utilizes the atom-pairwise dispersion correction
with the Becke-Johnson damping scheme (D3BJ)
Cite in your paper:
S.Grimme, S.Ehrlich, L.Goerigk, J Comput Chem, (2011), 32, 1456–1465 
S.Grimme, J.Antony, S.Ehrlich and H.Krieg, J.Chem.Phys., 132, (2010), 154104 
   

Your calculation employs the composite approach PBEh-3c.
Please cite in your paper:
S. Grimme, J. G. Brandenburg, C. Bannwarth, A. Hansen J.Chem.Phys., 143, (2015), 054107 
   

================================================================================

----- Orbital basis set information -----
Your calculation utilizes the basis: def2-mSVP

----- AuxJ basis set information -----
Your calculation utilizes the auxiliary basis: def2/J
   F. Weigend, Phys. Chem. Chem. Phys. 8, 1057 (2006).

================================================================================
                                        WARNINGS
                       Please study these warnings very carefully!
================================================================================


INFO   : the flag for use of the SHARK integral package has been found!

================================================================================
                                       INPUT FILE
================================================================================
NAME = pbeh-3c.inp
|  1> ! PBEh-3c def2/J TightSCF DefGrid3
|  2> 
|  3> %maxcore 60000
|  4> 
|  5> %pal
|  6> nprocs 4
|  7> end
|  8> 
|  9> *xyzfile 0 1 cis-135-Hexatriene.xyz
| 10> 
| 11>                          ****END OF INPUT****
================================================================================

                       ****************************
                       * Single Point Calculation *
                       ****************************

---------------------------------
CARTESIAN COORDINATES (ANGSTROEM)
---------------------------------
  C     -0.291860   -2.894522    0.000000
  H      0.668360   -3.405964    0.000000
  H     -1.178021   -3.521832    0.000000
  C     -0.373799   -1.553914    0.000000
  H     -1.359534   -1.092276    0.000000
  C      0.784567   -0.677687    0.000000
  H      1.750287   -1.182403    0.000000
  C      0.784567    0.677687    0.000000
  H      1.750287    1.182403    0.000000
  C     -0.373799    1.553914    0.000000
  H     -1.359534    1.092276    0.000000
  C     -0.291860    2.894522    0.000000
  H      0.668360    3.405964    0.000000
  H     -1.178021    3.521832    0.000000

----------------------------
CARTESIAN COORDINATES (A.U.)
----------------------------
  NO LB      ZA    FRAG     MASS         X           Y           Z
   0 C     6.0000    0    12.011   -0.551535   -5.469853    0.000000
   1 H     1.0000    0     1.008    1.263017   -6.436339    0.000000
   2 H     1.0000    0     1.008   -2.226137   -6.655298    0.000000
   3 C     6.0000    0    12.011   -0.706377   -2.936473    0.000000
   4 H     1.0000    0     1.008   -2.569147   -2.064103    0.000000
   5 C     6.0000    0    12.011    1.482616   -1.280643    0.000000
   6 H     1.0000    0     1.008    3.307563   -2.234418    0.000000
   7 C     6.0000    0    12.011    1.482616    1.280643    0.000000
   8 H     1.0000    0     1.008    3.307563    2.234418    0.000000
   9 C     6.0000    0    12.011   -0.706377    2.936473    0.000000
  10 H     1.0000    0     1.008   -2.569147    2.064103    0.000000
  11 C     6.0000    0    12.011   -0.551535    5.469853    0.000000
  12 H     1.0000    0     1.008    1.263017    6.436339    0.000000
  13 H     1.0000    0     1.008   -2.226137    6.655298    0.000000

--------------------------------
INTERNAL COORDINATES (ANGSTROEM)
--------------------------------
 C      0   0   0     0.000000000000     0.00000000     0.00000000
 H      1   0   0     1.087931168794     0.00000000     0.00000000
 H      1   2   0     1.085725453054   116.66433414     0.00000000
 C      1   2   3     1.343109154408   121.53874444   180.00000085
 H      4   1   2     1.088477752202   118.59217616   180.00000085
 C      4   1   2     1.452440798884   123.60749679     0.00000000
 H      6   4   1     1.089657762525   115.30189263     0.00000000
 C      6   4   1     1.355374400000   127.10511396   180.00000000
 H      8   6   4     1.089657673899   117.59300430   180.00000000
 C      8   6   4     1.452440878637   127.10510312     0.00000000
 H     10   8   6     1.088477752202   117.80032943     0.00000000
 C     10   8   6     1.343109154408   123.60749441   180.00000000
 H     12  10   8     1.087931168794   121.53874444     0.00000000
 H     12  10   8     1.085725453054   121.79692142   180.00000000

---------------------------
INTERNAL COORDINATES (A.U.)
---------------------------
 C      0   0   0     0.000000000000     0.00000000     0.00000000
 H      1   0   0     2.055891961577     0.00000000     0.00000000
 H      1   2   0     2.051723762900   116.66433414     0.00000000
 C      1   2   3     2.538108469795   121.53874444   180.00000085
 H      4   1   2     2.056924854527   118.59217616   180.00000085
 C      4   1   2     2.744715335625   123.60749679     0.00000000
 H      6   4   1     2.059154750874   115.30189263     0.00000000
 C      6   4   1     2.561286424928   127.10511396   180.00000000
 H      8   6   4     2.059154583395   117.59300430   180.00000000
 C      8   6   4     2.744715486337   127.10510312     0.00000000
 H     10   8   6     2.056924854527   117.80032943     0.00000000
 C     10   8   6     2.538108469795   123.60749441   180.00000000
 H     12  10   8     2.055891961577   121.53874444     0.00000000
 H     12  10   8     2.051723762900   121.79692142   180.00000000

---------------------
BASIS SET INFORMATION
---------------------
There are 2 groups of distinct atoms

 Group   1 Type C   : 8s4p1d contracted to 4s2p1d pattern {5111/31/1}
 Group   2 Type H   : 4s contracted to 2s pattern {31}

Atom   0C    basis set group =>   1
Atom   1H    basis set group =>   2
Atom   2H    basis set group =>   2
Atom   3C    basis set group =>   1
Atom   4H    basis set group =>   2
Atom   5C    basis set group =>   1
Atom   6H    basis set group =>   2
Atom   7C    basis set group =>   1
Atom   8H    basis set group =>   2
Atom   9C    basis set group =>   1
Atom  10H    basis set group =>   2
Atom  11C    basis set group =>   1
Atom  12H    basis set group =>   2
Atom  13H    basis set group =>   2
---------------------------------
AUXILIARY/J BASIS SET INFORMATION
---------------------------------
There are 2 groups of distinct atoms

 Group   1 Type C   : 12s5p4d2f1g contracted to 6s4p3d1f1g pattern {711111/2111/211/2/1}
 Group   2 Type H   : 5s2p1d contracted to 3s1p1d pattern {311/2/1}

Atom   0C    basis set group =>   1
Atom   1H    basis set group =>   2
Atom   2H    basis set group =>   2
Atom   3C    basis set group =>   1
Atom   4H    basis set group =>   2
Atom   5C    basis set group =>   1
Atom   6H    basis set group =>   2
Atom   7C    basis set group =>   1
Atom   8H    basis set group =>   2
Atom   9C    basis set group =>   1
Atom  10H    basis set group =>   2
Atom  11C    basis set group =>   1
Atom  12H    basis set group =>   2
Atom  13H    basis set group =>   2


           ************************************************************
           *        Program running with 4 parallel MPI-processes     *
           *              working on a common directory               *
           ************************************************************
------------------------------------------------------------------------------
                           ORCA GTO INTEGRAL CALCULATION
                           -- RI-GTO INTEGRALS CHOSEN --
------------------------------------------------------------------------------
------------------------------------------------------------------------------
                   ___                                                        
                  /   \      - P O W E R E D   B Y -                         
                 /     \                                                     
                 |  |  |   _    _      __       _____    __    __             
                 |  |  |  | |  | |    /  \     |  _  \  |  |  /  |          
                  \  \/   | |  | |   /    \    | | | |  |  | /  /          
                 / \  \   | |__| |  /  /\  \   | |_| |  |  |/  /          
                |  |  |   |  __  | /  /__\  \  |    /   |      \           
                |  |  |   | |  | | |   __   |  |    \   |  |\   \          
                \     /   | |  | | |  |  |  |  | |\  \  |  | \   \       
                 \___/    |_|  |_| |__|  |__|  |_| \__\ |__|  \__/        
                                                                              
                      - O R C A' S   B I G   F R I E N D -                    
                                      &                                       
                       - I N T E G R A L  F E E D E R -                       
                                                                              
 v1 FN, 2020, v2 2021                                                         
------------------------------------------------------------------------------


Reading SHARK input file pbeh-3c.SHARKINP.tmp ... ok
----------------------
SHARK INTEGRAL PACKAGE
----------------------

Number of atoms                             ...     14
Number of basis functions                   ...    106
Number of shells                            ...     58
Maximum angular momentum                    ...      2
Integral batch strategy                     ... SHARK/LIBINT Hybrid
RI-J (if used) integral strategy            ... SPLIT-RIJ (Revised 2003 algorithm where possible)
Printlevel                                  ...      1
Contraction scheme used                     ... SEGMENTED contraction
Coulomb Range Separation                    ... NOT USED
Exchange Range Separation                   ... NOT USED
Finite Nucleus Model                        ... NOT USED
Auxiliary Coulomb fitting basis             ... AVAILABLE
   # of basis functions in Aux-J            ...    382
   # of shells in Aux-J                     ...    130
   Maximum angular momentum in Aux-J        ...      4
Auxiliary J/K fitting basis                 ... NOT available
Auxiliary Correlation fitting basis         ... NOT available
Auxiliary 'external' fitting basis          ... NOT available
Integral threshold                          ...     2.500000e-11
Primitive cut-off                           ...     2.500000e-12
Primitive pair pre-selection threshold      ...     2.500000e-12

Calculating pre-screening integrals         ... done (  0.1 sec) Dimension = 58
Organizing shell pair data                  ... done (  0.2 sec)
Shell pair information
Total number of shell pairs                 ...      1711
Shell pairs after pre-screening             ...      1541
Total number of primitive shell pairs       ...      6207
Primitive shell pairs kept                  ...      4061
          la=0 lb=0:    702 shell pairs
          la=1 lb=0:    462 shell pairs
          la=1 lb=1:     77 shell pairs
          la=2 lb=0:    210 shell pairs
          la=2 lb=1:     70 shell pairs
          la=2 lb=2:     20 shell pairs

Calculating one electron integrals          ... done (  0.0 sec)
Calculating RI/J V-Matrix + Cholesky decomp.... done (  0.7 sec)
Calculating Nuclear repulsion               ... done (  0.0 sec) ENN=    196.236231300452 Eh

SHARK setup successfully completed in   2.2 seconds

Maximum memory used throughout the entire GTOINT-calculation: 10.2 MB


           ************************************************************
           *        Program running with 4 parallel MPI-processes     *
           *              working on a common directory               *
           ************************************************************
-------------------------------------------------------------------------------
                                 ORCA SCF
-------------------------------------------------------------------------------

------------
SCF SETTINGS
------------
Hamiltonian:
 Density Functional     Method          .... DFT(GTOs)
 Exchange Functional    Exchange        .... PBE
   PBE kappa parameter   XKappa         ....  1.024500
   PBE mue parameter    XMuePBE         ....  0.123457
 Correlation Functional Correlation     .... PBE
   PBE beta parameter  CBetaPBE         ....  0.030000
 LDA part of GGA corr.  LDAOpt          .... PW91-LDA
 Gradients option       PostSCFGGA      .... off
 Hybrid DFT is turned on
   Fraction HF Exchange ScalHFX         ....  0.420000
   Scaling of DF-GGA-X  ScalDFX         ....  0.580000
   Scaling of DF-GGA-C  ScalDFC         ....  1.000000
   Scaling of DF-LDA-C  ScalLDAC        ....  1.000000
   Perturbative correction              ....  0.000000
   Density functional embedding theory  .... OFF
 RI-approximation to the Coulomb term is turned on
   Number of AuxJ basis functions       .... 382
   RIJ-ON(X) (HFX calculated with O(N)) .... on
   Number of AuxJ basis functions       .... 382
   RIJ-COSX (HFX calculated with COS-X)).... on


General Settings:
 Integral files         IntName         .... pbeh-3c
 Hartree-Fock type      HFTyp           .... RHF
 Total Charge           Charge          ....    0
 Multiplicity           Mult            ....    1
 Number of Electrons    NEL             ....   44
 Basis Dimension        Dim             ....  106
 Nuclear Repulsion      ENuc            ....    196.2362313005 Eh

Convergence Acceleration:
 DIIS                   CNVDIIS         .... on
   Start iteration      DIISMaxIt       ....    12
   Startup error        DIISStart       ....  0.200000
   # of expansion vecs  DIISMaxEq       ....     5
   Bias factor          DIISBfac        ....   1.050
   Max. coefficient     DIISMaxC        ....  10.000
 Trust-Rad. Augm. Hess. CNVTRAH         .... auto
   Auto Start mean grad. ratio tolernc. ....  1.125000
   Auto Start start iteration           ....    20
   Auto Start num. interpolation iter.  ....    10
   Max. Number of Micro iterations      ....    16
   Max. Number of Macro iterations      .... Maxiter - #DIIS iter
   Number of Davidson start vectors     ....     2
   Converg. threshold I  (grad. norm)   ....   1.000e-05
   Converg. threshold II (energy diff.) ....   1.000e-08
   Grad. Scal. Fac. for Micro threshold ....   0.100
   Minimum threshold for Micro iter.    ....   0.010
   NR start threshold (gradient norm)   ....   0.001
   Initial trust radius                 ....   0.400
   Minimum AH scaling param. (alpha)    ....   1.000
   Maximum AH scaling param. (alpha)    .... 1000.000
   Orbital update algorithm             .... Taylor
   White noise on init. David. guess    .... on
   Maximum white noise                  ....   0.010
   Quad. conv. algorithm                .... NR
   COSX micro iterations for RIJONX calc.... off
 SOSCF                  CNVSOSCF        .... on
   Start iteration      SOSCFMaxIt      ....   150
   Startup grad/error   SOSCFStart      ....  0.003300
 Level Shifting         CNVShift        .... on
   Level shift para.    LevelShift      ....    0.2500
   Turn off err/grad.   ShiftErr        ....    0.0010
 Zerner damping         CNVZerner       .... off
 Static damping         CNVDamp         .... on
   Fraction old density DampFac         ....    0.7000
   Max. Damping (<1)    DampMax         ....    0.9800
   Min. Damping (>=0)   DampMin         ....    0.0000
   Turn off err/grad.   DampErr         ....    0.1000
 Fernandez-Rico         CNVRico         .... off

SCF Procedure:
 Maximum # iterations   MaxIter         ....   125
 SCF integral mode      SCFMode         .... Direct
   Integral package                     .... SHARK and LIBINT hybrid scheme
 Reset frequency        DirectResetFreq ....    20
 Integral Threshold     Thresh          ....  2.500e-11 Eh
 Primitive CutOff       TCut            ....  2.500e-12 Eh

Convergence Tolerance:
 Convergence Check Mode ConvCheckMode   .... Total+1el-Energy
 Convergence forced     ConvForced      .... 0
 Energy Change          TolE            ....  1.000e-08 Eh
 1-El. energy change                    ....  1.000e-05 Eh
 Orbital Gradient       TolG            ....  1.000e-05
 Orbital Rotation angle TolX            ....  1.000e-05
 DIIS Error             TolErr          ....  5.000e-07


Diagonalization of the overlap matrix:
Smallest eigenvalue                        ... 1.548e-03
Time for diagonalization                   ...    0.002 sec
Threshold for overlap eigenvalues          ... 1.000e-08
Number of eigenvalues below threshold      ... 0
Time for construction of square roots      ...    0.296 sec
Total time needed                          ...    0.422 sec

--------------------------------
INITIAL GUESS: MINIMAL BASIS EHT
--------------------------------
The minimal basis has 38 functions
EHT matrix was diagonalized
Basis set overlap was calculated now projecting the orbitals
Using GuessMode=FMatrix for the initial guess
C*T matrix was formed
Effective Fockian was calculated
Effective Fockian was diagonalized
Initial density was built
                      ------------------
                      INITIAL GUESS DONE
                      ------------------
-------------------
DFT GRID GENERATION
-------------------

General Integration Accuracy     IntAcc      ... 4.959
Radial Grid Type                 RadialGrid  ... OptM3 with GC (2021)
Angular Grid (max. ang.)         AngularGrid ... 6 (Lebedev-590)
Angular grid pruning method      GridPruning ... 4 (adaptive)
Weight generation scheme         WeightScheme... Becke
Basis function cutoff            BFCut       ... 1.0000e-11
Integration weight cutoff        WCut        ... 1.0000e-14
Angular grids for H and He will be reduced by one unit
Partially contracted basis set               ... off
Rotationally invariant grid construction     ... off

Total number of grid points                  ...   156552
Total number of batches                      ...     2452
Average number of points per batch           ...       63
Average number of grid points per atom       ...    11182
Time for grid setup =    3.079 sec

--------------------
COSX GRID GENERATION
--------------------

GRIDX 1
-------
General Integration Accuracy     IntAcc      ... 4.020
Radial Grid Type                 RadialGrid  ... OptM3 with GC (2021)
Angular Grid (max. ang.)         AngularGrid ... 2 (Lebedev-110)
Angular grid pruning method      GridPruning ... 4 (adaptive)
Weight generation scheme         WeightScheme... Becke
Basis function cutoff            BFCut       ... 1.0000e-11
Integration weight cutoff        WCut        ... 1.0000e-14
Angular grids for H and He will be reduced by one unit
Partially contracted basis set               ... on
Rotationally invariant grid construction     ... off

Total number of grid points                  ...    17080
Total number of batches                      ...      276
Average number of points per batch           ...       61
Average number of grid points per atom       ...     1220
UseSFitting                                  ... on

GRIDX 2
-------
General Integration Accuracy     IntAcc      ... 4.338
Radial Grid Type                 RadialGrid  ... OptM3 with GC (2021)
Angular Grid (max. ang.)         AngularGrid ... 3 (Lebedev-194)
Angular grid pruning method      GridPruning ... 4 (adaptive)
Weight generation scheme         WeightScheme... Becke
Basis function cutoff            BFCut       ... 1.0000e-11
Integration weight cutoff        WCut        ... 1.0000e-14
Angular grids for H and He will be reduced by one unit
Partially contracted basis set               ... on
Rotationally invariant grid construction     ... off

Total number of grid points                  ...    37484
Total number of batches                      ...      592
Average number of points per batch           ...       63
Average number of grid points per atom       ...     2677
UseSFitting                                  ... on

GRIDX 3
-------
General Integration Accuracy     IntAcc      ... 4.871
Radial Grid Type                 RadialGrid  ... OptM3 with GC (2021)
Angular Grid (max. ang.)         AngularGrid ... 4 (Lebedev-302)
Angular grid pruning method      GridPruning ... 4 (adaptive)
Weight generation scheme         WeightScheme... Becke
Basis function cutoff            BFCut       ... 1.0000e-11
Integration weight cutoff        WCut        ... 1.0000e-14
Angular grids for H and He will be reduced by one unit
Partially contracted basis set               ... on
Rotationally invariant grid construction     ... off

Total number of grid points                  ...    73098
Total number of batches                      ...     1150
Average number of points per batch           ...       63
Average number of grid points per atom       ...     5221
UseSFitting                                  ... on

Time for X-Grid setup             =    4.204 sec

--------------
SCF ITERATIONS
--------------
ITER       Energy         Delta-E        Max-DP      RMS-DP      [F,P]     Damp
               ***  Starting incremental Fock matrix formation  ***
  0   -232.2948656150   0.000000000000 0.07416291  0.00384531  0.4059478 0.7000
  1   -232.4597421281  -0.164876513033 0.05342773  0.00285823  0.2870755 0.7000
  2   -232.5789726502  -0.119230522148 0.03809243  0.00211889  0.2018876 0.7000
                               ***Turning on DIIS***
  3   -232.6643775876  -0.085404937393 0.02743147  0.00156888  0.1418571 0.7000
  4   -232.7252656686  -0.060888080962 0.07100628  0.00411306  0.0995957 0.0000
  5   -232.8718272853  -0.146561616742 0.00609204  0.00027292  0.0058949 0.0000
                      *** Initiating the SOSCF procedure ***
                           *** Shutting down DIIS ***
                      *** Re-Reading the Fockian *** 
                      *** Removing any level shift *** 
ITER      Energy       Delta-E        Grad      Rot      Max-DP    RMS-DP
  6   -232.87206544  -0.0002381547  0.001724  0.001724  0.002248  0.000088
               *** Restarting incremental Fock matrix formation ***
  7   -232.87208310  -0.0000176587  0.000538  0.001255  0.001657  0.000053
  8   -232.87208448  -0.0000013789  0.000572  0.000987  0.000719  0.000026
  9   -232.87208767  -0.0000031894  0.000049  0.000088  0.000117  0.000005
 10   -232.87208770  -0.0000000300  0.000011  0.000020  0.000027  0.000001
 11   -232.87208770  -0.0000000029  0.000006  0.000011  0.000013  0.000001
                  ***Gradient check signals convergence***
              ***Rediagonalizing the Fockian in SOSCF/NRSCF***

               *****************************************************
               *                     SUCCESS                       *
               *           SCF CONVERGED AFTER  12 CYCLES          *
               *****************************************************

Old exchange energy                            =    -14.204111170 Eh
New exchange energy                            =    -14.204118365 Eh
Exchange energy change after final integration =     -0.000007194 Eh
Total energy after final integration           =   -232.872094893 Eh
Final COS-X integration done in                =     2.406 sec

----------------
TOTAL SCF ENERGY
----------------

Total Energy       :         -232.87209489 Eh           -6336.77186 eV

Components:
Nuclear Repulsion  :          196.23623130 Eh            5339.85933 eV
Electronic Energy  :         -429.10832619 Eh          -11676.63118 eV
One Electron Energy:         -700.50169658 Eh          -19061.62024 eV
Two Electron Energy:          271.39337038 Eh            7384.98905 eV
Max COSX asymmetry :            0.00000042 Eh               0.00001 eV

Virial components:
Potential Energy   :         -463.71283601 Eh          -12618.26777 eV
Kinetic Energy     :          230.84074111 Eh            6281.49591 eV
Virial Ratio       :            2.00879981


DFT components:
N(Alpha)           :       22.000000674634 electrons
N(Beta)            :       22.000000674634 electrons
N(Total)           :       44.000001349269 electrons
E(X)               :      -18.848259830001 Eh       
E(C)               :       -1.858035037923 Eh       
E(XC)              :      -20.706294867924 Eh       
DFET-embed. en.    :        0.000000000000 Eh       

---------------
SCF CONVERGENCE
---------------

  Last Energy change         ...    1.2557e-09  Tolerance :   1.0000e-08
  Last MAX-Density change    ...    8.3288e-16  Tolerance :   1.0000e-07
  Last RMS-Density change    ...    4.0847e-17  Tolerance :   5.0000e-09
  Last Orbital Gradient      ...    1.5200e-06  Tolerance :   1.0000e-05
  Last Orbital Rotation      ...    1.7392e-06  Tolerance :   1.0000e-05

             **** THE GBW FILE WAS UPDATED (pbeh-3c.gbw) ****
             **** DENSITY pbeh-3c.scfp WAS UPDATED ****
             **** ENERGY FILE WAS UPDATED (pbeh-3c.en.tmp) ****
             **** THE GBW FILE WAS UPDATED (pbeh-3c.gbw) ****
             **** DENSITY pbeh-3c.scfp WAS UPDATED ****
----------------
ORBITAL ENERGIES
----------------

  NO   OCC          E(Eh)            E(eV) 
   0   2.0000     -10.455264      -284.5022 
   1   2.0000     -10.455245      -284.5017 
   2   2.0000     -10.454599      -284.4841 
   3   2.0000     -10.453843      -284.4635 
   4   2.0000     -10.445300      -284.2311 
   5   2.0000     -10.445288      -284.2307 
   6   2.0000      -0.916456       -24.9380 
   7   2.0000      -0.870902       -23.6984 
   8   2.0000      -0.809402       -22.0250 
   9   2.0000      -0.696686       -18.9578 
  10   2.0000      -0.656924       -17.8758 
  11   2.0000      -0.600352       -16.3364 
  12   2.0000      -0.557456       -15.1692 
  13   2.0000      -0.524162       -14.2632 
  14   2.0000      -0.490550       -13.3485 
  15   2.0000      -0.462192       -12.5769 
  16   2.0000      -0.443017       -12.0551 
  17   2.0000      -0.428356       -11.6562 
  18   2.0000      -0.393916       -10.7190 
  19   2.0000      -0.388750       -10.5784 
  20   2.0000      -0.335826        -9.1383 
  21   2.0000      -0.252389        -6.8679 
  22   0.0000      -0.027841        -0.7576 
  23   0.0000       0.053495         1.4557 
  24   0.0000       0.140914         3.8345 
  25   0.0000       0.144084         3.9207 
  26   0.0000       0.166103         4.5199 
  27   0.0000       0.174421         4.7462 
  28   0.0000       0.186074         5.0633 
  29   0.0000       0.215401         5.8614 
  30   0.0000       0.231030         6.2866 
  31   0.0000       0.243798         6.6341 
  32   0.0000       0.286361         7.7923 
  33   0.0000       0.310689         8.4543 
  34   0.0000       0.347878         9.4662 
  35   0.0000       0.350831         9.5466 
  36   0.0000       0.406722        11.0675 
  37   0.0000       0.458132        12.4664 
  38   0.0000       0.489826        13.3288 
  39   0.0000       0.503098        13.6900 
  40   0.0000       0.511404        13.9160 
  41   0.0000       0.547075        14.8867 
  42   0.0000       0.593370        16.1464 
  43   0.0000       0.595763        16.2115 
  44   0.0000       0.628179        17.0936 
  45   0.0000       0.630754        17.1637 
  46   0.0000       0.645299        17.5595 
  47   0.0000       0.674724        18.3602 
  48   0.0000       0.676191        18.4001 
  49   0.0000       0.689359        18.7584 
  50   0.0000       0.714980        19.4556 
  51   0.0000       0.736537        20.0422 
  52   0.0000       0.883624        24.0446 
  53   0.0000       0.899192        24.4682 
  54   0.0000       0.919215        25.0131 
  55   0.0000       0.956465        26.0267 
  56   0.0000       0.972376        26.4597 
  57   0.0000       0.983423        26.7603 
  58   0.0000       1.018950        27.7270 
  59   0.0000       1.038374        28.2556 
  60   0.0000       1.067385        29.0450 
  61   0.0000       1.075601        29.2686 
  62   0.0000       1.085345        29.5337 
  63   0.0000       1.088413        29.6172 
  64   0.0000       1.116899        30.3924 
  65   0.0000       1.175632        31.9906 
  66   0.0000       1.202993        32.7351 
  67   0.0000       1.222525        33.2666 
  68   0.0000       1.295902        35.2633 
  69   0.0000       1.348789        36.7024 
  70   0.0000       1.461116        39.7590 
  71   0.0000       1.463481        39.8234 
  72   0.0000       1.464822        39.8598 
  73   0.0000       1.583127        43.0791 
  74   0.0000       1.608536        43.7705 
  75   0.0000       1.747507        47.5521 
  76   0.0000       1.795214        48.8503 
  77   0.0000       1.831263        49.8312 
  78   0.0000       1.883923        51.2642 
  79   0.0000       1.960070        53.3362 
  80   0.0000       2.006698        54.6050 
  81   0.0000       2.039205        55.4896 
  82   0.0000       2.125975        57.8507 
  83   0.0000       2.128106        57.9087 
  84   0.0000       2.129969        57.9594 
  85   0.0000       2.158915        58.7471 
  86   0.0000       2.211778        60.1855 
  87   0.0000       2.303744        62.6881 
  88   0.0000       2.323081        63.2142 
  89   0.0000       2.466797        67.1250 
  90   0.0000       2.467978        67.1571 
  91   0.0000       2.479469        67.4698 
  92   0.0000       2.566778        69.8456 
  93   0.0000       2.597623        70.6849 
  94   0.0000       2.617016        71.2126 
  95   0.0000       2.780031        75.6485 
  96   0.0000       2.834330        77.1260 
  97   0.0000       2.924518        79.5802 
  98   0.0000       3.058199        83.2178 
  99   0.0000       3.213525        87.4445 
 100   0.0000      13.266085       360.9885 
 101   0.0000      13.471435       366.5764 
 102   0.0000      13.639955       371.1621 
 103   0.0000      14.030315       381.7843 
 104   0.0000      14.122424       384.2907 
 105   0.0000      14.297933       389.0665 

                    ********************************
                    * MULLIKEN POPULATION ANALYSIS *
                    ********************************

-----------------------
MULLIKEN ATOMIC CHARGES
-----------------------
   0 C :   -0.490805
   1 H :    0.217577
   2 H :    0.223445
   3 C :   -0.161195
   4 H :    0.216113
   5 C :   -0.220493
   6 H :    0.215358
   7 C :   -0.220493
   8 H :    0.215358
   9 C :   -0.161195
  10 H :    0.216113
  11 C :   -0.490804
  12 H :    0.217577
  13 H :    0.223444
Sum of atomic charges:   -0.0000000

--------------------------------
MULLIKEN REDUCED ORBITAL CHARGES
--------------------------------
  0 C s       :     3.338953  s :     3.338953
      pz      :     1.008574  p :     3.119705
      px      :     1.117645
      py      :     0.993486
      dz2     :     0.004099  d :     0.032147
      dxz     :     0.000032
      dyz     :     0.005304
      dx2y2   :     0.007976
      dxy     :     0.014736
  1 H s       :     0.782423  s :     0.782423
  2 H s       :     0.776555  s :     0.776555
  3 C s       :     3.218129  s :     3.218129
      pz      :     0.973651  p :     2.902238
      px      :     0.994661
      py      :     0.933927
      dz2     :     0.003724  d :     0.040827
      dxz     :     0.002062
      dyz     :     0.008076
      dx2y2   :     0.011539
      dxy     :     0.015427
  4 H s       :     0.783887  s :     0.783887
  5 C s       :     3.248064  s :     3.248064
      pz      :     0.992617  p :     2.932623
      px      :     0.997229
      py      :     0.942776
      dz2     :     0.003821  d :     0.039806
      dxz     :     0.001940
      dyz     :     0.007744
      dx2y2   :     0.011228
      dxy     :     0.015072
  6 H s       :     0.784642  s :     0.784642
  7 C s       :     3.248064  s :     3.248064
      pz      :     0.992617  p :     2.932623
      px      :     0.997229
      py      :     0.942776
      dz2     :     0.003821  d :     0.039806
      dxz     :     0.001940
      dyz     :     0.007744
      dx2y2   :     0.011228
      dxy     :     0.015072
  8 H s       :     0.784642  s :     0.784642
  9 C s       :     3.218129  s :     3.218129
      pz      :     0.973651  p :     2.902239
      px      :     0.994661
      py      :     0.933927
      dz2     :     0.003724  d :     0.040827
      dxz     :     0.002062
      dyz     :     0.008076
      dx2y2   :     0.011539
      dxy     :     0.015427
 10 H s       :     0.783887  s :     0.783887
 11 C s       :     3.338953  s :     3.338953
      pz      :     1.008574  p :     3.119704
      px      :     1.117645
      py      :     0.993486
      dz2     :     0.004099  d :     0.032147
      dxz     :     0.000032
      dyz     :     0.005304
      dx2y2   :     0.007976
      dxy     :     0.014736
 12 H s       :     0.782423  s :     0.782423
 13 H s       :     0.776556  s :     0.776556


                     *******************************
                     * LOEWDIN POPULATION ANALYSIS *
                     *******************************

----------------------
LOEWDIN ATOMIC CHARGES
----------------------
   0 C :   -0.254693
   1 H :    0.131601
   2 H :    0.135366
   3 C :   -0.142022
   4 H :    0.131815
   5 C :   -0.139095
   6 H :    0.137029
   7 C :   -0.139095
   8 H :    0.137028
   9 C :   -0.142022
  10 H :    0.131815
  11 C :   -0.254693
  12 H :    0.131601
  13 H :    0.135366

-------------------------------
LOEWDIN REDUCED ORBITAL CHARGES
-------------------------------
  0 C s       :     2.968239  s :     2.968239
      pz      :     1.007492  p :     3.221593
      px      :     1.102375
      py      :     1.111725
      dz2     :     0.005546  d :     0.064861
      dxz     :     0.000048
      dyz     :     0.008948
      dx2y2   :     0.019135
      dxy     :     0.031183
  1 H s       :     0.868399  s :     0.868399
  2 H s       :     0.864634  s :     0.864634
  3 C s       :     2.903387  s :     2.903387
      pz      :     0.962918  p :     3.147307
      px      :     1.080122
      py      :     1.104267
      dz2     :     0.006187  d :     0.091328
      dxz     :     0.004054
      dyz     :     0.015405
      dx2y2   :     0.029304
      dxy     :     0.036378
  4 H s       :     0.868185  s :     0.868185
  5 C s       :     2.900424  s :     2.900424
      pz      :     0.982715  p :     3.149448
      px      :     1.076076
      py      :     1.090657
      dz2     :     0.006204  d :     0.089224
      dxz     :     0.003867
      dyz     :     0.014552
      dx2y2   :     0.028154
      dxy     :     0.036447
  6 H s       :     0.862971  s :     0.862971
  7 C s       :     2.900424  s :     2.900424
      pz      :     0.982715  p :     3.149448
      px      :     1.076076
      py      :     1.090657
      dz2     :     0.006204  d :     0.089224
      dxz     :     0.003867
      dyz     :     0.014552
      dx2y2   :     0.028154
      dxy     :     0.036447
  8 H s       :     0.862972  s :     0.862972
  9 C s       :     2.903387  s :     2.903387
      pz      :     0.962918  p :     3.147307
      px      :     1.080122
      py      :     1.104267
      dz2     :     0.006187  d :     0.091328
      dxz     :     0.004054
      dyz     :     0.015405
      dx2y2   :     0.029304
      dxy     :     0.036378
 10 H s       :     0.868185  s :     0.868185
 11 C s       :     2.968239  s :     2.968239
      pz      :     1.007492  p :     3.221593
      px      :     1.102375
      py      :     1.111725
      dz2     :     0.005546  d :     0.064861
      dxz     :     0.000048
      dyz     :     0.008948
      dx2y2   :     0.019135
      dxy     :     0.031183
 12 H s       :     0.868399  s :     0.868399
 13 H s       :     0.864634  s :     0.864634


                      *****************************
                      * MAYER POPULATION ANALYSIS *
                      *****************************

  NA   - Mulliken gross atomic population
  ZA   - Total nuclear charge
  QA   - Mulliken gross atomic charge
  VA   - Mayer's total valence
  BVA  - Mayer's bonded valence
  FA   - Mayer's free valence

  ATOM       NA         ZA         QA         VA         BVA        FA
  0 C      6.4908     6.0000    -0.4908     3.7966     3.7966     0.0000
  1 H      0.7824     1.0000     0.2176     0.9214     0.9214     0.0000
  2 H      0.7766     1.0000     0.2234     0.9211     0.9211     0.0000
  3 C      6.1612     6.0000    -0.1612     3.7968     3.7968     0.0000
  4 H      0.7839     1.0000     0.2161     0.9190     0.9190    -0.0000
  5 C      6.2205     6.0000    -0.2205     3.8287     3.8287    -0.0000
  6 H      0.7846     1.0000     0.2154     0.9162     0.9162    -0.0000
  7 C      6.2205     6.0000    -0.2205     3.8287     3.8287    -0.0000
  8 H      0.7846     1.0000     0.2154     0.9162     0.9162    -0.0000
  9 C      6.1612     6.0000    -0.1612     3.7968     3.7968     0.0000
 10 H      0.7839     1.0000     0.2161     0.9190     0.9190    -0.0000
 11 C      6.4908     6.0000    -0.4908     3.7966     3.7966    -0.0000
 12 H      0.7824     1.0000     0.2176     0.9214     0.9214    -0.0000
 13 H      0.7766     1.0000     0.2234     0.9211     0.9211    -0.0000

  Mayer bond orders larger than 0.100000
B(  0-C ,  1-H ) :   0.9296 B(  0-C ,  2-H ) :   0.9283 B(  0-C ,  3-C ) :   1.8235 
B(  0-C ,  7-C ) :   0.1065 B(  3-C ,  4-H ) :   0.9157 B(  3-C ,  5-C ) :   1.1104 
B(  5-C ,  6-H ) :   0.9199 B(  5-C ,  7-C ) :   1.7316 B(  5-C , 11-C ) :   0.1065 
B(  7-C ,  8-H ) :   0.9199 B(  7-C ,  9-C ) :   1.1104 B(  9-C , 10-H ) :   0.9157 
B(  9-C , 11-C ) :   1.8235 B( 11-C , 12-H ) :   0.9296 B( 11-C , 13-H ) :   0.9283 


-------
TIMINGS
-------

Total SCF time: 0 days 0 hours 1 min 27 sec 

Total time                  ....      87.759 sec
Sum of individual times     ....      80.243 sec  ( 91.4%)

Fock matrix formation       ....      65.165 sec  ( 74.3%)
  Split-RI-J                ....       8.868 sec  ( 13.6% of F)
  Chain of spheres X        ....      19.865 sec  ( 30.5% of F)
  XC integration            ....      19.318 sec  ( 29.6% of F)
    Basis function eval.    ....       2.536 sec  ( 13.1% of XC)
    Density eval.           ....       1.419 sec  (  7.3% of XC)
    XC-Functional eval.     ....       1.318 sec  (  6.8% of XC)
    XC-Potential eval.      ....       0.826 sec  (  4.3% of XC)
Diagonalization             ....       1.421 sec  (  1.6%)
Density matrix formation    ....       0.152 sec  (  0.2%)
Population analysis         ....       0.352 sec  (  0.4%)
Initial guess               ....       0.068 sec  (  0.1%)
Orbital Transformation      ....       0.000 sec  (  0.0%)
Orbital Orthonormalization  ....       0.000 sec  (  0.0%)
DIIS solution               ....       3.046 sec  (  3.5%)
SOSCF solution              ....       2.756 sec  (  3.1%)
Grid generation             ....       7.283 sec  (  8.3%)

Maximum memory used throughout the entire SCF-calculation: 51.6 MB


-------------------------------------------------------------------------------
                          DFT DISPERSION CORRECTION                            
                                                                               
                              DFTD3 V3.1  Rev 1                                
                          USING Becke-Johnson damping                          
-------------------------------------------------------------------------------
The PBEh-3c composite method is recognized
Using three-body term ABC
Active option DFTDOPT                   ...         4   

molecular C6(AA) [au] = 1969.432108 


            DFT-D V3
 parameters
 s6 scaling factor         :     1.0000 
 a1 scaling factor         :     0.4860 
 s8 scaling factor         :     0.0000 
 a2 scaling factor         :     4.5000 
 Damping factor alpha9(ATM):    16.0000 
 ad hoc parameters k1-k3   :    16.0000     1.3333    -4.0000 

 Edisp/kcal,au: -3.793589431767  -0.006045468927 
 E6   /kcal   :  -3.787840313 
 E8   /kcal   :  -0.000000000 
 E6(ABC)      :  -0.005749119 
 % E8         :   0.000000000 
 % E6(ABC)    :   0.151548253 

-------------------------   ----------------
Dispersion correction           -0.006045469
-------------------------   ----------------

------------------   -----------------
gCP correction             0.016305414
------------------   -----------------

-------------------------   --------------------
FINAL SINGLE POINT ENERGY      -232.861834948346
-------------------------   --------------------


                            ***************************************
                            *     ORCA property calculations      *
                            ***************************************

                                    ---------------------
                                    Active property flags
                                    ---------------------
   (+) Dipole Moment


------------------------------------------------------------------------------
                       ORCA ELECTRIC PROPERTIES CALCULATION
------------------------------------------------------------------------------

Dipole Moment Calculation                       ... on
Quadrupole Moment Calculation                   ... off
Polarizability Calculation                      ... off
GBWName                                         ... pbeh-3c.gbw
Electron density                                ... pbeh-3c.scfp
The origin for moment calculation is the CENTER OF MASS  = ( 0.061710,  0.000000  0.000000)

-------------
DIPOLE MOMENT
-------------
                                X             Y             Z
Electronic contribution:      0.45288      -0.00000       0.00000
Nuclear contribution   :     -0.46821      -0.00000       0.00000
                        -----------------------------------------
Total Dipole Moment    :     -0.01533      -0.00000       0.00000
                        -----------------------------------------
Magnitude (a.u.)       :      0.01533
Magnitude (Debye)      :      0.03896



--------------------
Rotational spectrum 
--------------------
 
Rotational constants in cm-1:     0.500162     0.052043     0.047138 
Rotational constants in MHz : 14994.471708  1560.221882  1413.176435 

 Dipole components along the rotational axes: 
x,y,z [a.u.] :     0.000000     0.015327     0.000000 
x,y,z [Debye]:     0.000000     0.038958     0.000000 

 

Timings for individual modules:

Sum of individual times         ...       92.004 sec (=   1.533 min)
GTO integral calculation        ...        3.453 sec (=   0.058 min)   3.8 %
SCF iterations                  ...       88.551 sec (=   1.476 min)  96.2 %
                             ****ORCA TERMINATED NORMALLY****
TOTAL RUN TIME: 0 days 0 hours 1 minutes 37 seconds 505 msec
