
                                 *****************
                                 * O   R   C   A *
                                 *****************

                                            #,                                       
                                            ###                                      
                                            ####                                     
                                            #####                                    
                                            ######                                   
                                           ########,                                 
                                     ,,################,,,,,                         
                               ,,#################################,,                 
                          ,,##########################################,,             
                       ,#########################################, ''#####,          
                    ,#############################################,,   '####,        
                  ,##################################################,,,,####,       
                ,###########''''           ''''###############################       
              ,#####''   ,,,,##########,,,,          '''####'''          '####       
            ,##' ,,,,###########################,,,                        '##       
           ' ,,###''''                  '''############,,,                           
         ,,##''                                '''############,,,,        ,,,,,,###''
      ,#''                                            '''#######################'''  
     '                                                          ''''####''''         
             ,#######,   #######,   ,#######,      ##                                
            ,#'     '#,  ##    ##  ,#'     '#,    #''#        ######   ,####,        
            ##       ##  ##   ,#'  ##            #'  '#       #        #'  '#        
            ##       ##  #######   ##           ,######,      #####,   #    #        
            '#,     ,#'  ##    ##  '#,     ,#' ,#      #,         ##   #,  ,#        
             '#######'   ##     ##  '#######'  #'      '#     #####' # '####'        



                  #######################################################
                  #                        -***-                        #
                  #          Department of theory and spectroscopy      #
                  #    Directorship and core code : Frank Neese         #
                  #        Max Planck Institute fuer Kohlenforschung    #
                  #                Kaiser Wilhelm Platz 1               #
                  #                 D-45470 Muelheim/Ruhr               #
                  #                      Germany                        #
                  #                                                     #
                  #                  All rights reserved                #
                  #                        -***-                        #
                  #######################################################


                         Program Version 5.0.3 -  RELEASE  -


 With contributions from (in alphabetic order):
   Daniel Aravena         : Magnetic Suceptibility
   Michael Atanasov       : Ab Initio Ligand Field Theory (pilot matlab implementation)
   Alexander A. Auer      : GIAO ZORA, VPT2 properties, NMR spectrum
   Ute Becker             : Parallelization
   Giovanni Bistoni       : ED, misc. LED, open-shell LED, HFLD
   Martin Brehm           : Molecular dynamics
   Dmytro Bykov           : SCF Hessian
   Vijay G. Chilkuri      : MRCI spin determinant printing, contributions to CSF-ICE
   Dipayan Datta          : RHF DLPNO-CCSD density
   Achintya Kumar Dutta   : EOM-CC, STEOM-CC
   Dmitry Ganyushin       : Spin-Orbit,Spin-Spin,Magnetic field MRCI
   Miquel Garcia          : C-PCM and meta-GGA Hessian, CC/C-PCM, Gaussian charge scheme
   Yang Guo               : DLPNO-NEVPT2, F12-NEVPT2, CIM, IAO-localization
   Andreas Hansen         : Spin unrestricted coupled pair/coupled cluster methods
   Benjamin Helmich-Paris : MC-RPA, TRAH-SCF, COSX integrals
   Lee Huntington         : MR-EOM, pCC
   Robert Izsak           : Overlap fitted RIJCOSX, COSX-SCS-MP3, EOM
   Marcus Kettner         : VPT2
   Christian Kollmar      : KDIIS, OOCD, Brueckner-CCSD(T), CCSD density, CASPT2, CASPT2-K
   Simone Kossmann        : Meta GGA functionals, TD-DFT gradient, OOMP2, MP2 Hessian
   Martin Krupicka        : Initial AUTO-CI
   Lucas Lang             : DCDCAS
   Marvin Lechner         : AUTO-CI (C++ implementation), FIC-MRCC
   Dagmar Lenk            : GEPOL surface, SMD
   Dimitrios Liakos       : Extrapolation schemes; Compound Job, initial MDCI parallelization
   Dimitrios Manganas     : Further ROCIS development; embedding schemes
   Dimitrios Pantazis     : SARC Basis sets
   Anastasios Papadopoulos: AUTO-CI, single reference methods and gradients
   Taras Petrenko         : DFT Hessian,TD-DFT gradient, ASA, ECA, R-Raman, ABS, FL, XAS/XES, NRVS
   Peter Pinski           : DLPNO-MP2, DLPNO-MP2 Gradient
   Christoph Reimann      : Effective Core Potentials
   Marius Retegan         : Local ZFS, SOC
   Christoph Riplinger    : Optimizer, TS searches, QM/MM, DLPNO-CCSD(T), (RO)-DLPNO pert. Triples
   Tobias Risthaus        : Range-separated hybrids, TD-DFT gradient, RPA, STAB
   Michael Roemelt        : Original ROCIS implementation
   Masaaki Saitow         : Open-shell DLPNO-CCSD energy and density
   Barbara Sandhoefer     : DKH picture change effects
   Avijit Sen             : IP-ROCIS
   Kantharuban Sivalingam : CASSCF convergence, NEVPT2, FIC-MRCI
   Bernardo de Souza      : ESD, SOC TD-DFT
   Georgi Stoychev        : AutoAux, RI-MP2 NMR, DLPNO-MP2 response
   Willem Van den Heuvel  : Paramagnetic NMR
   Boris Wezisla          : Elementary symmetry handling
   Frank Wennmohs         : Technical directorship


 We gratefully acknowledge several colleagues who have allowed us to
 interface, adapt or use parts of their codes:
   Stefan Grimme, W. Hujo, H. Kruse, P. Pracht,  : VdW corrections, initial TS optimization,
                  C. Bannwarth, S. Ehlert          DFT functionals, gCP, sTDA/sTD-DF
   Ed Valeev, F. Pavosevic, A. Kumar             : LibInt (2-el integral package), F12 methods
   Garnet Chan, S. Sharma, J. Yang, R. Olivares  : DMRG
   Ulf Ekstrom                                   : XCFun DFT Library
   Mihaly Kallay                                 : mrcc  (arbitrary order and MRCC methods)
   Jiri Pittner, Ondrej Demel                    : Mk-CCSD
   Frank Weinhold                                : gennbo (NPA and NBO analysis)
   Christopher J. Cramer and Donald G. Truhlar   : smd solvation model
   Lars Goerigk                                  : TD-DFT with DH, B97 family of functionals
   V. Asgeirsson, H. Jonsson                     : NEB implementation
   FAccTs GmbH                                   : IRC, NEB, NEB-TS, DLPNO-Multilevel, CI-OPT
                                                   MM, QMMM, 2- and 3-layer-ONIOM, Crystal-QMMM,
                                                   LR-CPCM, SF, NACMEs, symmetry and pop. for TD-DFT,
                                                   nearIR, NL-DFT gradient (VV10), updates on ESD,
                                                   ML-optimized integration grids
   S Lehtola, MJT Oliveira, MAL Marques          : LibXC Library
   Liviu Ungur et al                             : ANISO software


 Your calculation uses the libint2 library for the computation of 2-el integrals
 For citations please refer to: http://libint.valeyev.net

 Your ORCA version has been built with support for libXC version: 5.1.0
 For citations please refer to: https://tddft.org/programs/libxc/

 This ORCA versions uses:
   CBLAS   interface :  Fast vector & matrix operations
   LAPACKE interface :  Fast linear algebra routines
   SCALAPACK package :  Parallel linear algebra routines
   Shared memory     :  Shared parallel matrices
   BLAS/LAPACK       :  OpenBLAS 0.3.15  USE64BITINT DYNAMIC_ARCH NO_AFFINITY Haswell SINGLE_THREADED
        Core in use  :  Haswell
   Copyright (c) 2011-2014, The OpenBLAS Project




***************************************
The coordinates will be read from file: nh3_3.xyz
***************************************


Your calculation utilizes the geometrical counterpoise correction gCP
Please cite in your paper:
H.Kruse, S. Grimme J.Chem.Phys., 136, (2012), 154101 
   

Your calculation utilizes the atom-pairwise dispersion correction
with the Becke-Johnson damping scheme (D3BJ)
Cite in your paper:
S.Grimme, S.Ehrlich, L.Goerigk, J Comput Chem, (2011), 32, 1456–1465 
S.Grimme, J.Antony, S.Ehrlich and H.Krieg, J.Chem.Phys., 132, (2010), 154104 
   

Your calculation employs the composite approach PBEh-3c.
Please cite in your paper:
S. Grimme, J. G. Brandenburg, C. Bannwarth, A. Hansen J.Chem.Phys., 143, (2015), 054107 
   

================================================================================

----- Orbital basis set information -----
Your calculation utilizes the basis: def2-mSVP

----- AuxJ basis set information -----
Your calculation utilizes the auxiliary basis: def2/J
   F. Weigend, Phys. Chem. Chem. Phys. 8, 1057 (2006).

================================================================================
                                        WARNINGS
                       Please study these warnings very carefully!
================================================================================


INFO   : the flag for use of the SHARK integral package has been found!

================================================================================
                                       INPUT FILE
================================================================================
NAME = pbeh-3c.inp
|  1> ! PBEh-3c def2/J TightSCF DefGrid3
|  2> 
|  3> %maxcore 60000
|  4> 
|  5> %pal
|  6> nprocs 4
|  7> end
|  8> 
|  9> *xyzfile 0 1 nh3_3.xyz
| 10> 
| 11>                          ****END OF INPUT****
================================================================================

                       ****************************
                       * Single Point Calculation *
                       ****************************

---------------------------------
CARTESIAN COORDINATES (ANGSTROEM)
---------------------------------
  H     -1.368356   -0.180977   -0.013169
  H      0.842949   -1.094909    0.003968
  H      0.528298    1.276672    0.008017
  H     -1.941415   -1.484031   -0.832875
  H      2.256561   -0.944858    0.826735
  H     -0.321706    2.423720    0.820266
  N     -1.414869   -1.200455   -0.014850
  N      1.748040   -0.623591    0.011230
  N     -0.333168    1.823765    0.003717
  H      2.265911   -0.938111   -0.801018
  H     -0.309348    2.430495   -0.807547
  H     -1.952921   -1.486037    0.794944

----------------------------
CARTESIAN COORDINATES (A.U.)
----------------------------
  NO LB      ZA    FRAG     MASS         X           Y           Z
   0 H     1.0000    0     1.008   -2.585818   -0.341997   -0.024886
   1 H     1.0000    0     1.008    1.592943   -2.069078    0.007498
   2 H     1.0000    0     1.008    0.998339    2.412560    0.015150
   3 H     1.0000    0     1.008   -3.668742   -2.804412   -1.573905
   4 H     1.0000    0     1.008    4.264282   -1.785523    1.562303
   5 H     1.0000    0     1.008   -0.607936    4.580167    1.550078
   6 N     7.0000    0    14.007   -2.673715   -2.268531   -0.028062
   7 N     7.0000    0    14.007    3.303317   -1.178416    0.021222
   8 N     7.0000    0    14.007   -0.629596    3.446416    0.007024
   9 H     1.0000    0     1.008    4.281951   -1.772773   -1.513704
  10 H     1.0000    0     1.008   -0.584583    4.592970   -1.526042
  11 H     1.0000    0     1.008   -3.690486   -2.808203    1.502226

--------------------------------
INTERNAL COORDINATES (ANGSTROEM)
--------------------------------
 H      0   0   0     0.000000000000     0.00000000     0.00000000
 H      1   0   0     2.392787937346     0.00000000     0.00000000
 H      1   2   0     2.392171644898    59.99686324     0.00000000
 H      1   2   3     1.642639292809    91.31721456   150.41531413
 H      2   1   3     1.642485701051   139.82440214    49.82654500
 H      3   1   2     1.642551052620    91.12342561   209.81402771
 N      4   1   2     1.013326588476    36.28227924    52.44809804
 N      5   2   1     1.013338131473    36.28641979   266.20501400
 N      6   3   1     1.013325893072    36.28509262   307.60655929
 H      8   5   2     1.013340854608   106.87023636   244.49238998
 H      9   6   3     1.013329995311   106.87960685   244.46421670
 H      7   4   1     1.013322847816   106.87885458   115.53177186

---------------------------
INTERNAL COORDINATES (A.U.)
---------------------------
 H      0   0   0     0.000000000000     0.00000000     0.00000000
 H      1   0   0     4.521713898135     0.00000000     0.00000000
 H      1   2   0     4.520549274189    59.99686324     0.00000000
 H      1   2   3     3.104138400228    91.31721456   150.41531413
 H      2   1   3     3.103848153869   139.82440214    49.82654500
 H      3   1   2     3.103971650435    91.12342561   209.81402771
 N      4   1   2     1.914909736440    36.28227924    52.44809804
 N      5   2   1     1.914931549543    36.28641979   266.20501400
 N      6   3   1     1.914908422316    36.28509262   307.60655929
 H      8   5   2     1.914936695522   106.87023636   244.49238998
 H      9   6   3     1.914916174426   106.87960685   244.46421670
 H      7   4   1     1.914902667617   106.87885458   115.53177186

---------------------
BASIS SET INFORMATION
---------------------
There are 2 groups of distinct atoms

 Group   1 Type H   : 4s contracted to 2s pattern {31}
 Group   2 Type N   : 8s4p1d contracted to 4s2p1d pattern {5111/31/1}

Atom   0H    basis set group =>   1
Atom   1H    basis set group =>   1
Atom   2H    basis set group =>   1
Atom   3H    basis set group =>   1
Atom   4H    basis set group =>   1
Atom   5H    basis set group =>   1
Atom   6N    basis set group =>   2
Atom   7N    basis set group =>   2
Atom   8N    basis set group =>   2
Atom   9H    basis set group =>   1
Atom  10H    basis set group =>   1
Atom  11H    basis set group =>   1
---------------------------------
AUXILIARY/J BASIS SET INFORMATION
---------------------------------
There are 2 groups of distinct atoms

 Group   1 Type H   : 5s2p1d contracted to 3s1p1d pattern {311/2/1}
 Group   2 Type N   : 12s5p4d2f1g contracted to 6s4p3d1f1g pattern {711111/2111/211/2/1}

Atom   0H    basis set group =>   1
Atom   1H    basis set group =>   1
Atom   2H    basis set group =>   1
Atom   3H    basis set group =>   1
Atom   4H    basis set group =>   1
Atom   5H    basis set group =>   1
Atom   6N    basis set group =>   2
Atom   7N    basis set group =>   2
Atom   8N    basis set group =>   2
Atom   9H    basis set group =>   1
Atom  10H    basis set group =>   1
Atom  11H    basis set group =>   1


           ************************************************************
           *        Program running with 4 parallel MPI-processes     *
           *              working on a common directory               *
           ************************************************************
------------------------------------------------------------------------------
                           ORCA GTO INTEGRAL CALCULATION
                           -- RI-GTO INTEGRALS CHOSEN --
------------------------------------------------------------------------------
------------------------------------------------------------------------------
                   ___                                                        
                  /   \      - P O W E R E D   B Y -                         
                 /     \                                                     
                 |  |  |   _    _      __       _____    __    __             
                 |  |  |  | |  | |    /  \     |  _  \  |  |  /  |          
                  \  \/   | |  | |   /    \    | | | |  |  | /  /          
                 / \  \   | |__| |  /  /\  \   | |_| |  |  |/  /          
                |  |  |   |  __  | /  /__\  \  |    /   |      \           
                |  |  |   | |  | | |   __   |  |    \   |  |\   \          
                \     /   | |  | | |  |  |  |  | |\  \  |  | \   \       
                 \___/    |_|  |_| |__|  |__|  |_| \__\ |__|  \__/        
                                                                              
                      - O R C A' S   B I G   F R I E N D -                    
                                      &                                       
                       - I N T E G R A L  F E E D E R -                       
                                                                              
 v1 FN, 2020, v2 2021                                                         
------------------------------------------------------------------------------


Reading SHARK input file pbeh-3c.SHARKINP.tmp ... ok
----------------------
SHARK INTEGRAL PACKAGE
----------------------

Number of atoms                             ...     12
Number of basis functions                   ...     63
Number of shells                            ...     39
Maximum angular momentum                    ...      2
Integral batch strategy                     ... SHARK/LIBINT Hybrid
RI-J (if used) integral strategy            ... SPLIT-RIJ (Revised 2003 algorithm where possible)
Printlevel                                  ...      1
Contraction scheme used                     ... SEGMENTED contraction
Coulomb Range Separation                    ... NOT USED
Exchange Range Separation                   ... NOT USED
Finite Nucleus Model                        ... NOT USED
Auxiliary Coulomb fitting basis             ... AVAILABLE
   # of basis functions in Aux-J            ...    246
   # of shells in Aux-J                     ...     90
   Maximum angular momentum in Aux-J        ...      4
Auxiliary J/K fitting basis                 ... NOT available
Auxiliary Correlation fitting basis         ... NOT available
Auxiliary 'external' fitting basis          ... NOT available
Integral threshold                          ...     2.500000e-11
Primitive cut-off                           ...     2.500000e-12
Primitive pair pre-selection threshold      ...     2.500000e-12

Calculating pre-screening integrals         ... done (  0.0 sec) Dimension = 39
Organizing shell pair data                  ... done (  0.3 sec)
Shell pair information
Total number of shell pairs                 ...       780
Shell pairs after pre-screening             ...       732
Total number of primitive shell pairs       ...      2916
Primitive shell pairs kept                  ...      1989
          la=0 lb=0:    423 shell pairs
          la=1 lb=0:    174 shell pairs
          la=1 lb=1:     21 shell pairs
          la=2 lb=0:     90 shell pairs
          la=2 lb=1:     18 shell pairs
          la=2 lb=2:      6 shell pairs

Calculating one electron integrals          ... done (  0.0 sec)
Calculating RI/J V-Matrix + Cholesky decomp.... done (  0.4 sec)
Calculating Nuclear repulsion               ... done (  0.0 sec) ENN=     84.044215562332 Eh

SHARK setup successfully completed in   1.9 seconds

Maximum memory used throughout the entire GTOINT-calculation: 9.4 MB


           ************************************************************
           *        Program running with 4 parallel MPI-processes     *
           *              working on a common directory               *
           ************************************************************
-------------------------------------------------------------------------------
                                 ORCA SCF
-------------------------------------------------------------------------------

------------
SCF SETTINGS
------------
Hamiltonian:
 Density Functional     Method          .... DFT(GTOs)
 Exchange Functional    Exchange        .... PBE
   PBE kappa parameter   XKappa         ....  1.024500
   PBE mue parameter    XMuePBE         ....  0.123457
 Correlation Functional Correlation     .... PBE
   PBE beta parameter  CBetaPBE         ....  0.030000
 LDA part of GGA corr.  LDAOpt          .... PW91-LDA
 Gradients option       PostSCFGGA      .... off
 Hybrid DFT is turned on
   Fraction HF Exchange ScalHFX         ....  0.420000
   Scaling of DF-GGA-X  ScalDFX         ....  0.580000
   Scaling of DF-GGA-C  ScalDFC         ....  1.000000
   Scaling of DF-LDA-C  ScalLDAC        ....  1.000000
   Perturbative correction              ....  0.000000
   Density functional embedding theory  .... OFF
 RI-approximation to the Coulomb term is turned on
   Number of AuxJ basis functions       .... 246
   RIJ-ON(X) (HFX calculated with O(N)) .... on
   Number of AuxJ basis functions       .... 246
   RIJ-COSX (HFX calculated with COS-X)).... on


General Settings:
 Integral files         IntName         .... pbeh-3c
 Hartree-Fock type      HFTyp           .... RHF
 Total Charge           Charge          ....    0
 Multiplicity           Mult            ....    1
 Number of Electrons    NEL             ....   30
 Basis Dimension        Dim             ....   63
 Nuclear Repulsion      ENuc            ....     84.0442155623 Eh

Convergence Acceleration:
 DIIS                   CNVDIIS         .... on
   Start iteration      DIISMaxIt       ....    12
   Startup error        DIISStart       ....  0.200000
   # of expansion vecs  DIISMaxEq       ....     5
   Bias factor          DIISBfac        ....   1.050
   Max. coefficient     DIISMaxC        ....  10.000
 Trust-Rad. Augm. Hess. CNVTRAH         .... auto
   Auto Start mean grad. ratio tolernc. ....  1.125000
   Auto Start start iteration           ....    20
   Auto Start num. interpolation iter.  ....    10
   Max. Number of Micro iterations      ....    16
   Max. Number of Macro iterations      .... Maxiter - #DIIS iter
   Number of Davidson start vectors     ....     2
   Converg. threshold I  (grad. norm)   ....   1.000e-05
   Converg. threshold II (energy diff.) ....   1.000e-08
   Grad. Scal. Fac. for Micro threshold ....   0.100
   Minimum threshold for Micro iter.    ....   0.010
   NR start threshold (gradient norm)   ....   0.001
   Initial trust radius                 ....   0.400
   Minimum AH scaling param. (alpha)    ....   1.000
   Maximum AH scaling param. (alpha)    .... 1000.000
   Orbital update algorithm             .... Taylor
   White noise on init. David. guess    .... on
   Maximum white noise                  ....   0.010
   Quad. conv. algorithm                .... NR
   COSX micro iterations for RIJONX calc.... off
 SOSCF                  CNVSOSCF        .... on
   Start iteration      SOSCFMaxIt      ....   150
   Startup grad/error   SOSCFStart      ....  0.003300
 Level Shifting         CNVShift        .... on
   Level shift para.    LevelShift      ....    0.2500
   Turn off err/grad.   ShiftErr        ....    0.0010
 Zerner damping         CNVZerner       .... off
 Static damping         CNVDamp         .... on
   Fraction old density DampFac         ....    0.7000
   Max. Damping (<1)    DampMax         ....    0.9800
   Min. Damping (>=0)   DampMin         ....    0.0000
   Turn off err/grad.   DampErr         ....    0.1000
 Fernandez-Rico         CNVRico         .... off

SCF Procedure:
 Maximum # iterations   MaxIter         ....   125
 SCF integral mode      SCFMode         .... Direct
   Integral package                     .... SHARK and LIBINT hybrid scheme
 Reset frequency        DirectResetFreq ....    20
 Integral Threshold     Thresh          ....  2.500e-11 Eh
 Primitive CutOff       TCut            ....  2.500e-12 Eh

Convergence Tolerance:
 Convergence Check Mode ConvCheckMode   .... Total+1el-Energy
 Convergence forced     ConvForced      .... 0
 Energy Change          TolE            ....  1.000e-08 Eh
 1-El. energy change                    ....  1.000e-05 Eh
 Orbital Gradient       TolG            ....  1.000e-05
 Orbital Rotation angle TolX            ....  1.000e-05
 DIIS Error             TolErr          ....  5.000e-07


Diagonalization of the overlap matrix:
Smallest eigenvalue                        ... 3.409e-02
Time for diagonalization                   ...    0.001 sec
Threshold for overlap eigenvalues          ... 1.000e-08
Number of eigenvalues below threshold      ... 0
Time for construction of square roots      ...    0.247 sec
Total time needed                          ...    0.248 sec

--------------------------------
INITIAL GUESS: MINIMAL BASIS EHT
--------------------------------
The minimal basis has 24 functions
EHT matrix was diagonalized
Basis set overlap was calculated now projecting the orbitals
Using GuessMode=FMatrix for the initial guess
C*T matrix was formed
Effective Fockian was calculated
Effective Fockian was diagonalized
Initial density was built
                      ------------------
                      INITIAL GUESS DONE
                      ------------------
-------------------
DFT GRID GENERATION
-------------------

General Integration Accuracy     IntAcc      ... 4.959
Radial Grid Type                 RadialGrid  ... OptM3 with GC (2021)
Angular Grid (max. ang.)         AngularGrid ... 6 (Lebedev-590)
Angular grid pruning method      GridPruning ... 4 (adaptive)
Weight generation scheme         WeightScheme... Becke
Basis function cutoff            BFCut       ... 1.0000e-11
Integration weight cutoff        WCut        ... 1.0000e-14
Angular grids for H and He will be reduced by one unit
Partially contracted basis set               ... off
Rotationally invariant grid construction     ... off

Total number of grid points                  ...   123588
Total number of batches                      ...     1936
Average number of points per batch           ...       63
Average number of grid points per atom       ...    10299
Time for grid setup =    1.932 sec

--------------------
COSX GRID GENERATION
--------------------

GRIDX 1
-------
General Integration Accuracy     IntAcc      ... 4.020
Radial Grid Type                 RadialGrid  ... OptM3 with GC (2021)
Angular Grid (max. ang.)         AngularGrid ... 2 (Lebedev-110)
Angular grid pruning method      GridPruning ... 4 (adaptive)
Weight generation scheme         WeightScheme... Becke
Basis function cutoff            BFCut       ... 1.0000e-11
Integration weight cutoff        WCut        ... 1.0000e-14
Angular grids for H and He will be reduced by one unit
Partially contracted basis set               ... on
Rotationally invariant grid construction     ... off

Total number of grid points                  ...    12614
Total number of batches                      ...      204
Average number of points per batch           ...       61
Average number of grid points per atom       ...     1051
UseSFitting                                  ... on

GRIDX 2
-------
General Integration Accuracy     IntAcc      ... 4.338
Radial Grid Type                 RadialGrid  ... OptM3 with GC (2021)
Angular Grid (max. ang.)         AngularGrid ... 3 (Lebedev-194)
Angular grid pruning method      GridPruning ... 4 (adaptive)
Weight generation scheme         WeightScheme... Becke
Basis function cutoff            BFCut       ... 1.0000e-11
Integration weight cutoff        WCut        ... 1.0000e-14
Angular grids for H and He will be reduced by one unit
Partially contracted basis set               ... on
Rotationally invariant grid construction     ... off

Total number of grid points                  ...    27570
Total number of batches                      ...      436
Average number of points per batch           ...       63
Average number of grid points per atom       ...     2298
UseSFitting                                  ... on

GRIDX 3
-------
General Integration Accuracy     IntAcc      ... 4.871
Radial Grid Type                 RadialGrid  ... OptM3 with GC (2021)
Angular Grid (max. ang.)         AngularGrid ... 4 (Lebedev-302)
Angular grid pruning method      GridPruning ... 4 (adaptive)
Weight generation scheme         WeightScheme... Becke
Basis function cutoff            BFCut       ... 1.0000e-11
Integration weight cutoff        WCut        ... 1.0000e-14
Angular grids for H and He will be reduced by one unit
Partially contracted basis set               ... on
Rotationally invariant grid construction     ... off

Total number of grid points                  ...    56663
Total number of batches                      ...      892
Average number of points per batch           ...       63
Average number of grid points per atom       ...     4722
UseSFitting                                  ... on

Time for X-Grid setup             =    2.535 sec

--------------
SCF ITERATIONS
--------------
ITER       Energy         Delta-E        Max-DP      RMS-DP      [F,P]     Damp
               ***  Starting incremental Fock matrix formation  ***
  0   -168.8336549414   0.000000000000 0.15180756  0.00631666  0.3703732 0.7000
  1   -168.9946586257  -0.161003684355 0.09685011  0.00418295  0.2175710 0.7000
                               ***Turning on DIIS***
  2   -169.0893960190  -0.094737393242 0.05932691  0.00272380  0.1450026 0.7000
  3   -169.1538076684  -0.064411649428 0.03498419  0.00191728  0.1002151 0.7000
  4   -169.1997460920  -0.045938423630 0.09456321  0.00519139  0.0705815 0.0000
  5   -169.3122232718  -0.112477179781 0.01208019  0.00070468  0.0118237 0.0000
  6   -169.3125995821  -0.000376310286 0.00353983  0.00026583  0.0034034 0.0000
                      *** Initiating the SOSCF procedure ***
                           *** Shutting down DIIS ***
                      *** Re-Reading the Fockian *** 
                      *** Removing any level shift *** 
ITER      Energy       Delta-E        Grad      Rot      Max-DP    RMS-DP
  7   -169.31268429  -0.0000847047  0.001004  0.001004  0.004643  0.000279
               *** Restarting incremental Fock matrix formation ***
  8   -169.31269495  -0.0000106659  0.000109  0.000251  0.000478  0.000027
  9   -169.31269520  -0.0000002510  0.000043  0.000138  0.000191  0.000014
 10   -169.31269524  -0.0000000342  0.000024  0.000037  0.000061  0.000004
                 **** Energy Check signals convergence ****
              ***Rediagonalizing the Fockian in SOSCF/NRSCF***

               *****************************************************
               *                     SUCCESS                       *
               *           SCF CONVERGED AFTER  11 CYCLES          *
               *****************************************************

Old exchange energy                            =     -9.669266795 Eh
New exchange energy                            =     -9.669271488 Eh
Exchange energy change after final integration =     -0.000004692 Eh
Total energy after final integration           =   -169.312699940 Eh
Final COS-X integration done in                =     0.814 sec

----------------
TOTAL SCF ENERGY
----------------

Total Energy       :         -169.31269994 Eh           -4607.23279 eV

Components:
Nuclear Repulsion  :           84.04421556 Eh            2286.95937 eV
Electronic Energy  :         -253.35691550 Eh           -6894.19216 eV
One Electron Energy:         -396.01485436 Eh          -10776.11203 eV
Two Electron Energy:          142.65793886 Eh            3881.91987 eV
Max COSX asymmetry :            0.00000032 Eh               0.00001 eV

Virial components:
Potential Energy   :         -337.43459741 Eh           -9182.06220 eV
Kinetic Energy     :          168.12189747 Eh            4574.82941 eV
Virial Ratio       :            2.00708297


DFT components:
N(Alpha)           :       14.999999417761 electrons
N(Beta)            :       14.999999417761 electrons
N(Total)           :       29.999998835522 electrons
E(X)               :      -12.844290043568 Eh       
E(C)               :       -1.271495183954 Eh       
E(XC)              :      -14.115785227522 Eh       
DFET-embed. en.    :        0.000000000000 Eh       

---------------
SCF CONVERGENCE
---------------

  Last Energy change         ...   -9.9698e-09  Tolerance :   1.0000e-08
  Last MAX-Density change    ...    9.0054e-16  Tolerance :   1.0000e-07
  Last RMS-Density change    ...    4.3559e-17  Tolerance :   5.0000e-09
  Last Orbital Gradient      ...    1.7173e-06  Tolerance :   1.0000e-05
  Last Orbital Rotation      ...    1.2557e-06  Tolerance :   1.0000e-05

             **** THE GBW FILE WAS UPDATED (pbeh-3c.gbw) ****
             **** DENSITY pbeh-3c.scfp WAS UPDATED ****
             **** ENERGY FILE WAS UPDATED (pbeh-3c.en.tmp) ****
             **** THE GBW FILE WAS UPDATED (pbeh-3c.gbw) ****
             **** DENSITY pbeh-3c.scfp WAS UPDATED ****
----------------
ORBITAL ENERGIES
----------------

  NO   OCC          E(Eh)            E(eV) 
   0   2.0000     -14.582461      -396.8089 
   1   2.0000     -14.582413      -396.8076 
   2   2.0000     -14.582231      -396.8027 
   3   2.0000      -0.923561       -25.1314 
   4   2.0000      -0.914982       -24.8979 
   5   2.0000      -0.914845       -24.8942 
   6   2.0000      -0.511022       -13.9056 
   7   2.0000      -0.500659       -13.6236 
   8   2.0000      -0.497647       -13.5417 
   9   2.0000      -0.497536       -13.5386 
  10   2.0000      -0.484952       -13.1962 
  11   2.0000      -0.484856       -13.1936 
  12   2.0000      -0.300520        -8.1776 
  13   2.0000      -0.300418        -8.1748 
  14   2.0000      -0.288120        -7.8401 
  15   0.0000       0.138738         3.7752 
  16   0.0000       0.175426         4.7736 
  17   0.0000       0.175505         4.7757 
  18   0.0000       0.229044         6.2326 
  19   0.0000       0.237467         6.4618 
  20   0.0000       0.237552         6.4641 
  21   0.0000       0.295131         8.0309 
  22   0.0000       0.297403         8.0928 
  23   0.0000       0.297759         8.1024 
  24   0.0000       0.709746        19.3132 
  25   0.0000       0.733061        19.9476 
  26   0.0000       0.795899        21.6575 
  27   0.0000       0.795984        21.6598 
  28   0.0000       0.804104        21.8808 
  29   0.0000       0.804369        21.8880 
  30   0.0000       0.876301        23.8454 
  31   0.0000       0.957438        26.0532 
  32   0.0000       0.957796        26.0630 
  33   0.0000       1.020890        27.7798 
  34   0.0000       1.042921        28.3793 
  35   0.0000       1.054812        28.7029 
  36   0.0000       1.055075        28.7100 
  37   0.0000       1.071337        29.1526 
  38   0.0000       1.071435        29.1552 
  39   0.0000       1.096383        29.8341 
  40   0.0000       1.161675        31.6108 
  41   0.0000       1.161955        31.6184 
  42   0.0000       1.486571        40.4517 
  43   0.0000       1.487191        40.4685 
  44   0.0000       1.653669        44.9986 
  45   0.0000       1.751267        47.6544 
  46   0.0000       1.751345        47.6565 
  47   0.0000       1.751558        47.6623 
  48   0.0000       1.786995        48.6266 
  49   0.0000       1.787217        48.6326 
  50   0.0000       1.809707        49.2446 
  51   0.0000       2.052650        55.8554 
  52   0.0000       2.112859        57.4938 
  53   0.0000       2.113507        57.5115 
  54   0.0000       2.497241        67.9534 
  55   0.0000       2.509508        68.2872 
  56   0.0000       2.526482        68.7491 
  57   0.0000       2.526626        68.7530 
  58   0.0000       2.534976        68.9802 
  59   0.0000       2.535138        68.9846 
  60   0.0000      19.025236       517.7030 
  61   0.0000      19.025490       517.7099 
  62   0.0000      19.168047       521.5891 

                    ********************************
                    * MULLIKEN POPULATION ANALYSIS *
                    ********************************

-----------------------
MULLIKEN ATOMIC CHARGES
-----------------------
   0 H :    0.371756
   1 H :    0.371569
   2 H :    0.371707
   3 H :    0.311835
   4 H :    0.311964
   5 H :    0.311963
   6 N :   -0.995643
   7 N :   -0.995410
   8 N :   -0.995471
   9 H :    0.311943
  10 H :    0.311931
  11 H :    0.311856
Sum of atomic charges:   -0.0000000

--------------------------------
MULLIKEN REDUCED ORBITAL CHARGES
--------------------------------
  0 H s       :     0.628244  s :     0.628244
  1 H s       :     0.628431  s :     0.628431
  2 H s       :     0.628293  s :     0.628293
  3 H s       :     0.688165  s :     0.688165
  4 H s       :     0.688036  s :     0.688036
  5 H s       :     0.688037  s :     0.688037
  6 N s       :     3.673557  s :     3.673557
      pz      :     1.209173  p :     4.291307
      px      :     1.693916
      py      :     1.388219
      dz2     :     0.004154  d :     0.030779
      dxz     :     0.014331
      dyz     :     0.000739
      dx2y2   :     0.009572
      dxy     :     0.001983
  7 N s       :     3.673573  s :     3.673573
      pz      :     1.209287  p :     4.291045
      px      :     1.281070
      py      :     1.800687
      dz2     :     0.004151  d :     0.030791
      dxz     :     0.007657
      dyz     :     0.007421
      dx2y2   :     0.001071
      dxy     :     0.010491
  8 N s       :     3.673552  s :     3.673552
      pz      :     1.209308  p :     4.291140
      px      :     1.646263
      py      :     1.435570
      dz2     :     0.004153  d :     0.030779
      dxz     :     0.000621
      dyz     :     0.014450
      dx2y2   :     0.006740
      dxy     :     0.004815
  9 H s       :     0.688057  s :     0.688057
 10 H s       :     0.688069  s :     0.688069
 11 H s       :     0.688144  s :     0.688144


                     *******************************
                     * LOEWDIN POPULATION ANALYSIS *
                     *******************************

----------------------
LOEWDIN ATOMIC CHARGES
----------------------
   0 H :    0.234784
   1 H :    0.234831
   2 H :    0.234839
   3 H :    0.214627
   4 H :    0.214697
   5 H :    0.214702
   6 N :   -0.664370
   7 N :   -0.664082
   8 N :   -0.664063
   9 H :    0.214700
  10 H :    0.214681
  11 H :    0.214653

-------------------------------
LOEWDIN REDUCED ORBITAL CHARGES
-------------------------------
  0 H s       :     0.765216  s :     0.765216
  1 H s       :     0.765169  s :     0.765169
  2 H s       :     0.765161  s :     0.765161
  3 H s       :     0.785373  s :     0.785373
  4 H s       :     0.785303  s :     0.785303
  5 H s       :     0.785298  s :     0.785298
  6 N s       :     3.311879  s :     3.311879
      pz      :     1.230049  p :     4.308669
      px      :     1.699893
      py      :     1.378728
      dz2     :     0.007266  d :     0.043822
      dxz     :     0.019504
      dyz     :     0.002681
      dx2y2   :     0.012259
      dxy     :     0.002113
  7 N s       :     3.311926  s :     3.311926
      pz      :     1.230122  p :     4.308320
      px      :     1.276105
      py      :     1.802093
      dz2     :     0.007262  d :     0.043836
      dxz     :     0.013187
      dyz     :     0.009006
      dx2y2   :     0.001664
      dxy     :     0.012718
  8 N s       :     3.311866  s :     3.311866
      pz      :     1.230138  p :     4.308374
      px      :     1.639978
      py      :     1.438258
      dz2     :     0.007265  d :     0.043823
      dxz     :     0.000603
      dyz     :     0.021582
      dx2y2   :     0.007695
      dxy     :     0.006679
  9 H s       :     0.785300  s :     0.785300
 10 H s       :     0.785319  s :     0.785319
 11 H s       :     0.785347  s :     0.785347


                      *****************************
                      * MAYER POPULATION ANALYSIS *
                      *****************************

  NA   - Mulliken gross atomic population
  ZA   - Total nuclear charge
  QA   - Mulliken gross atomic charge
  VA   - Mayer's total valence
  BVA  - Mayer's bonded valence
  FA   - Mayer's free valence

  ATOM       NA         ZA         QA         VA         BVA        FA
  0 H      0.6282     1.0000     0.3718     0.8613     0.8613    -0.0000
  1 H      0.6284     1.0000     0.3716     0.8614     0.8614    -0.0000
  2 H      0.6283     1.0000     0.3717     0.8613     0.8613    -0.0000
  3 H      0.6882     1.0000     0.3118     0.8720     0.8720    -0.0000
  4 H      0.6880     1.0000     0.3120     0.8719     0.8719    -0.0000
  5 H      0.6880     1.0000     0.3120     0.8719     0.8719    -0.0000
  6 N      7.9956     7.0000    -0.9956     2.6456     2.6456    -0.0000
  7 N      7.9954     7.0000    -0.9954     2.6460     2.6460    -0.0000
  8 N      7.9955     7.0000    -0.9955     2.6461     2.6461    -0.0000
  9 H      0.6881     1.0000     0.3119     0.8719     0.8719    -0.0000
 10 H      0.6881     1.0000     0.3119     0.8719     0.8719     0.0000
 11 H      0.6881     1.0000     0.3119     0.8720     0.8720     0.0000

  Mayer bond orders larger than 0.100000
B(  0-H ,  6-N ) :   0.7959 B(  1-H ,  7-N ) :   0.7963 B(  2-H ,  8-N ) :   0.7961 
B(  3-H ,  6-N ) :   0.8813 B(  4-H ,  7-N ) :   0.8812 B(  5-H ,  8-N ) :   0.8812 
B(  6-N , 11-H ) :   0.8813 B(  7-N ,  9-H ) :   0.8813 B(  8-N , 10-H ) :   0.8812 


-------
TIMINGS
-------

Total SCF time: 0 days 0 hours 0 min 44 sec 

Total time                  ....      44.156 sec
Sum of individual times     ....      38.520 sec  ( 87.2%)

Fock matrix formation       ....      31.221 sec  ( 70.7%)
  Split-RI-J                ....       4.444 sec  ( 14.2% of F)
  Chain of spheres X        ....       6.334 sec  ( 20.3% of F)
  XC integration            ....       9.708 sec  ( 31.1% of F)
    Basis function eval.    ....       0.974 sec  ( 10.0% of XC)
    Density eval.           ....       0.522 sec  (  5.4% of XC)
    XC-Functional eval.     ....       0.802 sec  (  8.3% of XC)
    XC-Potential eval.      ....       0.205 sec  (  2.1% of XC)
Diagonalization             ....       0.262 sec  (  0.6%)
Density matrix formation    ....       0.059 sec  (  0.1%)
Population analysis         ....       0.828 sec  (  1.9%)
Initial guess               ....       0.004 sec  (  0.0%)
Orbital Transformation      ....       0.000 sec  (  0.0%)
Orbital Orthonormalization  ....       0.000 sec  (  0.0%)
DIIS solution               ....       1.210 sec  (  2.7%)
SOSCF solution              ....       0.469 sec  (  1.1%)
Grid generation             ....       4.466 sec  ( 10.1%)

Maximum memory used throughout the entire SCF-calculation: 48.0 MB


-------------------------------------------------------------------------------
                          DFT DISPERSION CORRECTION                            
                                                                               
                              DFTD3 V3.1  Rev 1                                
                          USING Becke-Johnson damping                          
-------------------------------------------------------------------------------
The PBEh-3c composite method is recognized
Using three-body term ABC
Active option DFTDOPT                   ...         4   

molecular C6(AA) [au] = 761.888748 


            DFT-D V3
 parameters
 s6 scaling factor         :     1.0000 
 a1 scaling factor         :     0.4860 
 s8 scaling factor         :     0.0000 
 a2 scaling factor         :     4.5000 
 Damping factor alpha9(ATM):    16.0000 
 ad hoc parameters k1-k3   :    16.0000     1.3333    -4.0000 

 Edisp/kcal,au: -1.887686511017  -0.003008219617 
 E6   /kcal   :  -1.898830221 
 E8   /kcal   :  -0.000000000 
 E6(ABC)      :   0.011143710 
 % E8         :   0.000000000 
 % E6(ABC)    :  -0.590336913 

-------------------------   ----------------
Dispersion correction           -0.003008220
-------------------------   ----------------

------------------   -----------------
gCP correction             0.007228643
------------------   -----------------

-------------------------   --------------------
FINAL SINGLE POINT ENERGY      -169.308479517186
-------------------------   --------------------


                            ***************************************
                            *     ORCA property calculations      *
                            ***************************************

                                    ---------------------
                                    Active property flags
                                    ---------------------
   (+) Dipole Moment


------------------------------------------------------------------------------
                       ORCA ELECTRIC PROPERTIES CALCULATION
------------------------------------------------------------------------------

Dipole Moment Calculation                       ... on
Quadrupole Moment Calculation                   ... off
Polarizability Calculation                      ... off
GBWName                                         ... pbeh-3c.gbw
Electron density                                ... pbeh-3c.scfp
The origin for moment calculation is the CENTER OF MASS  = ( 0.000001, -0.000072  0.000025)

-------------
DIPOLE MOMENT
-------------
                                X             Y             Z
Electronic contribution:      0.00097       0.00064       0.00019
Nuclear contribution   :     -0.00003       0.00216      -0.00075
                        -----------------------------------------
Total Dipole Moment    :      0.00094       0.00280      -0.00056
                        -----------------------------------------
Magnitude (a.u.)       :      0.00301
Magnitude (Debye)      :      0.00765



--------------------
Rotational spectrum 
--------------------
 
Rotational constants in cm-1:     0.173394     0.172997     0.090315 
Rotational constants in MHz :  5198.206908  5186.318633  2707.582234 

 Dipole components along the rotational axes: 
x,y,z [a.u.] :     0.001018    -0.002773    -0.000574 
x,y,z [Debye]:     0.002587    -0.007047    -0.001458 

 

Timings for individual modules:

Sum of individual times         ...       47.608 sec (=   0.793 min)
GTO integral calculation        ...        2.603 sec (=   0.043 min)   5.5 %
SCF iterations                  ...       45.005 sec (=   0.750 min)  94.5 %
                             ****ORCA TERMINATED NORMALLY****
TOTAL RUN TIME: 0 days 0 hours 0 minutes 57 seconds 32 msec
