
                                 *****************
                                 * O   R   C   A *
                                 *****************

                                            #,                                       
                                            ###                                      
                                            ####                                     
                                            #####                                    
                                            ######                                   
                                           ########,                                 
                                     ,,################,,,,,                         
                               ,,#################################,,                 
                          ,,##########################################,,             
                       ,#########################################, ''#####,          
                    ,#############################################,,   '####,        
                  ,##################################################,,,,####,       
                ,###########''''           ''''###############################       
              ,#####''   ,,,,##########,,,,          '''####'''          '####       
            ,##' ,,,,###########################,,,                        '##       
           ' ,,###''''                  '''############,,,                           
         ,,##''                                '''############,,,,        ,,,,,,###''
      ,#''                                            '''#######################'''  
     '                                                          ''''####''''         
             ,#######,   #######,   ,#######,      ##                                
            ,#'     '#,  ##    ##  ,#'     '#,    #''#        ######   ,####,        
            ##       ##  ##   ,#'  ##            #'  '#       #        #'  '#        
            ##       ##  #######   ##           ,######,      #####,   #    #        
            '#,     ,#'  ##    ##  '#,     ,#' ,#      #,         ##   #,  ,#        
             '#######'   ##     ##  '#######'  #'      '#     #####' # '####'        



                  #######################################################
                  #                        -***-                        #
                  #          Department of theory and spectroscopy      #
                  #    Directorship and core code : Frank Neese         #
                  #        Max Planck Institute fuer Kohlenforschung    #
                  #                Kaiser Wilhelm Platz 1               #
                  #                 D-45470 Muelheim/Ruhr               #
                  #                      Germany                        #
                  #                                                     #
                  #                  All rights reserved                #
                  #                        -***-                        #
                  #######################################################


                         Program Version 5.0.3 -  RELEASE  -


 With contributions from (in alphabetic order):
   Daniel Aravena         : Magnetic Suceptibility
   Michael Atanasov       : Ab Initio Ligand Field Theory (pilot matlab implementation)
   Alexander A. Auer      : GIAO ZORA, VPT2 properties, NMR spectrum
   Ute Becker             : Parallelization
   Giovanni Bistoni       : ED, misc. LED, open-shell LED, HFLD
   Martin Brehm           : Molecular dynamics
   Dmytro Bykov           : SCF Hessian
   Vijay G. Chilkuri      : MRCI spin determinant printing, contributions to CSF-ICE
   Dipayan Datta          : RHF DLPNO-CCSD density
   Achintya Kumar Dutta   : EOM-CC, STEOM-CC
   Dmitry Ganyushin       : Spin-Orbit,Spin-Spin,Magnetic field MRCI
   Miquel Garcia          : C-PCM and meta-GGA Hessian, CC/C-PCM, Gaussian charge scheme
   Yang Guo               : DLPNO-NEVPT2, F12-NEVPT2, CIM, IAO-localization
   Andreas Hansen         : Spin unrestricted coupled pair/coupled cluster methods
   Benjamin Helmich-Paris : MC-RPA, TRAH-SCF, COSX integrals
   Lee Huntington         : MR-EOM, pCC
   Robert Izsak           : Overlap fitted RIJCOSX, COSX-SCS-MP3, EOM
   Marcus Kettner         : VPT2
   Christian Kollmar      : KDIIS, OOCD, Brueckner-CCSD(T), CCSD density, CASPT2, CASPT2-K
   Simone Kossmann        : Meta GGA functionals, TD-DFT gradient, OOMP2, MP2 Hessian
   Martin Krupicka        : Initial AUTO-CI
   Lucas Lang             : DCDCAS
   Marvin Lechner         : AUTO-CI (C++ implementation), FIC-MRCC
   Dagmar Lenk            : GEPOL surface, SMD
   Dimitrios Liakos       : Extrapolation schemes; Compound Job, initial MDCI parallelization
   Dimitrios Manganas     : Further ROCIS development; embedding schemes
   Dimitrios Pantazis     : SARC Basis sets
   Anastasios Papadopoulos: AUTO-CI, single reference methods and gradients
   Taras Petrenko         : DFT Hessian,TD-DFT gradient, ASA, ECA, R-Raman, ABS, FL, XAS/XES, NRVS
   Peter Pinski           : DLPNO-MP2, DLPNO-MP2 Gradient
   Christoph Reimann      : Effective Core Potentials
   Marius Retegan         : Local ZFS, SOC
   Christoph Riplinger    : Optimizer, TS searches, QM/MM, DLPNO-CCSD(T), (RO)-DLPNO pert. Triples
   Tobias Risthaus        : Range-separated hybrids, TD-DFT gradient, RPA, STAB
   Michael Roemelt        : Original ROCIS implementation
   Masaaki Saitow         : Open-shell DLPNO-CCSD energy and density
   Barbara Sandhoefer     : DKH picture change effects
   Avijit Sen             : IP-ROCIS
   Kantharuban Sivalingam : CASSCF convergence, NEVPT2, FIC-MRCI
   Bernardo de Souza      : ESD, SOC TD-DFT
   Georgi Stoychev        : AutoAux, RI-MP2 NMR, DLPNO-MP2 response
   Willem Van den Heuvel  : Paramagnetic NMR
   Boris Wezisla          : Elementary symmetry handling
   Frank Wennmohs         : Technical directorship


 We gratefully acknowledge several colleagues who have allowed us to
 interface, adapt or use parts of their codes:
   Stefan Grimme, W. Hujo, H. Kruse, P. Pracht,  : VdW corrections, initial TS optimization,
                  C. Bannwarth, S. Ehlert          DFT functionals, gCP, sTDA/sTD-DF
   Ed Valeev, F. Pavosevic, A. Kumar             : LibInt (2-el integral package), F12 methods
   Garnet Chan, S. Sharma, J. Yang, R. Olivares  : DMRG
   Ulf Ekstrom                                   : XCFun DFT Library
   Mihaly Kallay                                 : mrcc  (arbitrary order and MRCC methods)
   Jiri Pittner, Ondrej Demel                    : Mk-CCSD
   Frank Weinhold                                : gennbo (NPA and NBO analysis)
   Christopher J. Cramer and Donald G. Truhlar   : smd solvation model
   Lars Goerigk                                  : TD-DFT with DH, B97 family of functionals
   V. Asgeirsson, H. Jonsson                     : NEB implementation
   FAccTs GmbH                                   : IRC, NEB, NEB-TS, DLPNO-Multilevel, CI-OPT
                                                   MM, QMMM, 2- and 3-layer-ONIOM, Crystal-QMMM,
                                                   LR-CPCM, SF, NACMEs, symmetry and pop. for TD-DFT,
                                                   nearIR, NL-DFT gradient (VV10), updates on ESD,
                                                   ML-optimized integration grids
   S Lehtola, MJT Oliveira, MAL Marques          : LibXC Library
   Liviu Ungur et al                             : ANISO software


 Your calculation uses the libint2 library for the computation of 2-el integrals
 For citations please refer to: http://libint.valeyev.net

 Your ORCA version has been built with support for libXC version: 5.1.0
 For citations please refer to: https://tddft.org/programs/libxc/

 This ORCA versions uses:
   CBLAS   interface :  Fast vector & matrix operations
   LAPACKE interface :  Fast linear algebra routines
   SCALAPACK package :  Parallel linear algebra routines
   Shared memory     :  Shared parallel matrices
   BLAS/LAPACK       :  OpenBLAS 0.3.15  USE64BITINT DYNAMIC_ARCH NO_AFFINITY Haswell SINGLE_THREADED
        Core in use  :  Haswell
   Copyright (c) 2011-2014, The OpenBLAS Project




***************************************
The coordinates will be read from file: 4N.xyz
***************************************


Your calculation utilizes the geometrical counterpoise correction gCP
Please cite in your paper:
H.Kruse, S. Grimme J.Chem.Phys., 136, (2012), 154101 
   

Your calculation utilizes the atom-pairwise dispersion correction
with the Becke-Johnson damping scheme (D3BJ)
Cite in your paper:
S.Grimme, S.Ehrlich, L.Goerigk, J Comput Chem, (2011), 32, 1456–1465 
S.Grimme, J.Antony, S.Ehrlich and H.Krieg, J.Chem.Phys., 132, (2010), 154104 
   

Your calculation employs the composite approach PBEh-3c.
Please cite in your paper:
S. Grimme, J. G. Brandenburg, C. Bannwarth, A. Hansen J.Chem.Phys., 143, (2015), 054107 
   

================================================================================

----- Orbital basis set information -----
Your calculation utilizes the basis: def2-mSVP

----- AuxJ basis set information -----
Your calculation utilizes the auxiliary basis: def2/J
   F. Weigend, Phys. Chem. Chem. Phys. 8, 1057 (2006).

================================================================================
                                        WARNINGS
                       Please study these warnings very carefully!
================================================================================


INFO   : the flag for use of the SHARK integral package has been found!

================================================================================
                                       INPUT FILE
================================================================================
NAME = pbeh-3c.inp
|  1> ! PBEh-3c def2/J TightSCF DefGrid3
|  2> 
|  3> %maxcore 60000
|  4> 
|  5> %pal
|  6> nprocs 4
|  7> end
|  8> 
|  9> *xyzfile 0 1 4N.xyz
| 10> 
| 11>                          ****END OF INPUT****
================================================================================

                       ****************************
                       * Single Point Calculation *
                       ****************************

---------------------------------
CARTESIAN COORDINATES (ANGSTROEM)
---------------------------------
  C     -0.001122   -0.246004   -0.122512
  C      0.102878    0.554343    2.001375
  C      0.104620   -0.790559    2.079882
  N      0.041142   -1.247768    0.781969
  N      0.037893    0.856017    0.658830
  H      0.141519    1.300025    2.779498
  H      0.144621   -1.440234    2.939659
  C      0.020816   -2.639475    0.410506
  C      0.019363    2.194482    0.126058
  H      0.923064   -3.151181    0.748469
  H     -0.847660   -3.147749    0.831829
  H     -0.030349   -2.695589   -0.673397
  H     -0.835096    2.757533    0.504391
  H      0.932772    2.734111    0.380661
  H     -0.057404    2.123241   -0.956501
  N     -0.187455    0.511531   -3.323325
  H     -0.131174    0.107324   -2.390092
  H     -0.999221    1.113113   -3.338213
  H      0.620793    1.106842   -3.439084

----------------------------
CARTESIAN COORDINATES (A.U.)
----------------------------
  NO LB      ZA    FRAG     MASS         X           Y           Z
   0 C     6.0000    0    12.011   -0.002120   -0.464881   -0.231513
   1 C     6.0000    0    12.011    0.194410    1.047556    3.782050
   2 C     6.0000    0    12.011    0.197703   -1.493940    3.930407
   3 N     7.0000    0    14.007    0.077747   -2.357940    1.477707
   4 N     7.0000    0    14.007    0.071608    1.617637    1.245008
   5 H     1.0000    0     1.008    0.267433    2.456691    5.252491
   6 H     1.0000    0     1.008    0.273293   -2.721648    5.555150
   7 C     6.0000    0    12.011    0.039337   -4.987885    0.775743
   8 C     6.0000    0    12.011    0.036590    4.146970    0.238216
   9 H     1.0000    0     1.008    1.744338   -5.954869    1.414401
  10 H     1.0000    0     1.008   -1.601845   -5.948384    1.571928
  11 H     1.0000    0     1.008   -0.057352   -5.093924   -1.272536
  12 H     1.0000    0     1.008   -1.578103    5.210982    0.953161
  13 H     1.0000    0     1.008    1.762685    5.166720    0.719345
  14 H     1.0000    0     1.008   -0.108477    4.012343   -1.807525
  15 N     7.0000    0    14.007   -0.354240    0.966653   -6.280174
  16 H     1.0000    0     1.008   -0.247883    0.202812   -4.516620
  17 H     1.0000    0     1.008   -1.888253    2.103478   -6.308309
  18 H     1.0000    0     1.008    1.173130    2.091627   -6.498928

--------------------------------
INTERNAL COORDINATES (ANGSTROEM)
--------------------------------
 C      0   0   0     0.000000000000     0.00000000     0.00000000
 C      1   0   0     2.272061878330     0.00000000     0.00000000
 C      2   1   0     1.347192141545    72.71506678     0.00000000
 N      1   2   3     1.350333860926    68.51587707     0.00000000
 N      1   2   3     1.351468342860    34.00407154   179.96368416
 H      2   1   3     1.078429735711   156.88021107   180.02058689
 H      3   2   1     1.078376085132   130.38664832   180.04252445
 C      4   1   2     1.440571461080   122.92491049   179.98826898
 C      5   1   2     1.440721293942   122.91431323   179.71055084
 H      8   4   1     1.090922801412   111.19816358   119.45497970
 H      8   4   1     1.090920161600   111.20798984   240.71418544
 H      8   4   1     1.086559683041   107.92571783     0.08582178
 H      9   5   1     1.090991290805   111.17992401   120.93407711
 H      9   5   1     1.091026678083   111.24997220   242.15427170
 H      9   5   1     1.087613454662   107.94663566     1.56755908
 N     15   9   5     2.866422607846   149.53082084   357.71144830
 H     16  15   9     1.018565073015    57.59458398     1.46025484
 H     16  15   9     1.010487516728    73.37369637   125.04309300
 H     16  15   9     1.010475885028    74.15982970   238.58874004

---------------------------
INTERNAL COORDINATES (A.U.)
---------------------------
 C      0   0   0     0.000000000000     0.00000000     0.00000000
 C      1   0   0     4.293574709367     0.00000000     0.00000000
 C      2   1   0     2.545824197291    72.71506678     0.00000000
 N      1   2   3     2.551761186511    68.51587707     0.00000000
 N      1   2   3     2.553905046669    34.00407154   179.96368416
 H      2   1   3     2.037936855171   156.88021107   180.02058689
 H      3   2   1     2.037835470270   130.38664832   180.04252445
 C      4   1   2     2.722285537783   122.92491049   179.98826898
 C      5   1   2     2.722568680859   122.91431323   179.71055084
 H      8   4   1     2.061545327919   111.19816358   119.45497970
 H      8   4   1     2.061540339398   111.20798984   240.71418544
 H      8   4   1     2.053300229107   107.92571783     0.08582178
 H      9   5   1     2.061674754115   111.17992401   120.93407711
 H      9   5   1     2.061741626378   111.24997220   242.15427170
 H      9   5   1     2.055291568880   107.94663566     1.56755908
 N     15   9   5     5.416753712910   149.53082084   357.71144830
 H     16  15   9     1.924809037575    57.59458398     1.46025484
 H     16  15   9     1.909544668362    73.37369637   125.04309300
 H     16  15   9     1.909522687635    74.15982970   238.58874004

---------------------
BASIS SET INFORMATION
---------------------
There are 3 groups of distinct atoms

 Group   1 Type C   : 8s4p1d contracted to 4s2p1d pattern {5111/31/1}
 Group   2 Type N   : 8s4p1d contracted to 4s2p1d pattern {5111/31/1}
 Group   3 Type H   : 4s contracted to 2s pattern {31}

Atom   0C    basis set group =>   1
Atom   1C    basis set group =>   1
Atom   2C    basis set group =>   1
Atom   3N    basis set group =>   2
Atom   4N    basis set group =>   2
Atom   5H    basis set group =>   3
Atom   6H    basis set group =>   3
Atom   7C    basis set group =>   1
Atom   8C    basis set group =>   1
Atom   9H    basis set group =>   3
Atom  10H    basis set group =>   3
Atom  11H    basis set group =>   3
Atom  12H    basis set group =>   3
Atom  13H    basis set group =>   3
Atom  14H    basis set group =>   3
Atom  15N    basis set group =>   2
Atom  16H    basis set group =>   3
Atom  17H    basis set group =>   3
Atom  18H    basis set group =>   3
---------------------------------
AUXILIARY/J BASIS SET INFORMATION
---------------------------------
There are 3 groups of distinct atoms

 Group   1 Type C   : 12s5p4d2f1g contracted to 6s4p3d1f1g pattern {711111/2111/211/2/1}
 Group   2 Type N   : 12s5p4d2f1g contracted to 6s4p3d1f1g pattern {711111/2111/211/2/1}
 Group   3 Type H   : 5s2p1d contracted to 3s1p1d pattern {311/2/1}

Atom   0C    basis set group =>   1
Atom   1C    basis set group =>   1
Atom   2C    basis set group =>   1
Atom   3N    basis set group =>   2
Atom   4N    basis set group =>   2
Atom   5H    basis set group =>   3
Atom   6H    basis set group =>   3
Atom   7C    basis set group =>   1
Atom   8C    basis set group =>   1
Atom   9H    basis set group =>   3
Atom  10H    basis set group =>   3
Atom  11H    basis set group =>   3
Atom  12H    basis set group =>   3
Atom  13H    basis set group =>   3
Atom  14H    basis set group =>   3
Atom  15N    basis set group =>   2
Atom  16H    basis set group =>   3
Atom  17H    basis set group =>   3
Atom  18H    basis set group =>   3


           ************************************************************
           *        Program running with 4 parallel MPI-processes     *
           *              working on a common directory               *
           ************************************************************
------------------------------------------------------------------------------
                           ORCA GTO INTEGRAL CALCULATION
                           -- RI-GTO INTEGRALS CHOSEN --
------------------------------------------------------------------------------
------------------------------------------------------------------------------
                   ___                                                        
                  /   \      - P O W E R E D   B Y -                         
                 /     \                                                     
                 |  |  |   _    _      __       _____    __    __             
                 |  |  |  | |  | |    /  \     |  _  \  |  |  /  |          
                  \  \/   | |  | |   /    \    | | | |  |  | /  /          
                 / \  \   | |__| |  /  /\  \   | |_| |  |  |/  /          
                |  |  |   |  __  | /  /__\  \  |    /   |      \           
                |  |  |   | |  | | |   __   |  |    \   |  |\   \          
                \     /   | |  | | |  |  |  |  | |\  \  |  | \   \       
                 \___/    |_|  |_| |__|  |__|  |_| \__\ |__|  \__/        
                                                                              
                      - O R C A' S   B I G   F R I E N D -                    
                                      &                                       
                       - I N T E G R A L  F E E D E R -                       
                                                                              
 v1 FN, 2020, v2 2021                                                         
------------------------------------------------------------------------------


Reading SHARK input file pbeh-3c.SHARKINP.tmp ... ok
----------------------
SHARK INTEGRAL PACKAGE
----------------------

Number of atoms                             ...     19
Number of basis functions                   ...    142
Number of shells                            ...     78
Maximum angular momentum                    ...      2
Integral batch strategy                     ... SHARK/LIBINT Hybrid
RI-J (if used) integral strategy            ... SPLIT-RIJ (Revised 2003 algorithm where possible)
Printlevel                                  ...      1
Contraction scheme used                     ... SEGMENTED contraction
Coulomb Range Separation                    ... NOT USED
Exchange Range Separation                   ... NOT USED
Finite Nucleus Model                        ... NOT USED
Auxiliary Coulomb fitting basis             ... AVAILABLE
   # of basis functions in Aux-J            ...    513
   # of shells in Aux-J                     ...    175
   Maximum angular momentum in Aux-J        ...      4
Auxiliary J/K fitting basis                 ... NOT available
Auxiliary Correlation fitting basis         ... NOT available
Auxiliary 'external' fitting basis          ... NOT available
Integral threshold                          ...     2.500000e-11
Primitive cut-off                           ...     2.500000e-12
Primitive pair pre-selection threshold      ...     2.500000e-12

Calculating pre-screening integrals         ... done (  0.1 sec) Dimension = 78
Organizing shell pair data                  ... done (  0.2 sec)
Shell pair information
Total number of shell pairs                 ...      3081
Shell pairs after pre-screening             ...      2695
Total number of primitive shell pairs       ...     11163
Primitive shell pairs kept                  ...      6802
          la=0 lb=0:   1223 shell pairs
          la=1 lb=0:    809 shell pairs
          la=1 lb=1:    134 shell pairs
          la=2 lb=0:    373 shell pairs
          la=2 lb=1:    123 shell pairs
          la=2 lb=2:     33 shell pairs

Calculating one electron integrals          ... done (  0.0 sec)
Calculating RI/J V-Matrix + Cholesky decomp.... done (  0.8 sec)
Calculating Nuclear repulsion               ... done (  0.0 sec) ENN=    372.806940284285 Eh

SHARK setup successfully completed in   1.8 seconds

Maximum memory used throughout the entire GTOINT-calculation: 11.3 MB


           ************************************************************
           *        Program running with 4 parallel MPI-processes     *
           *              working on a common directory               *
           ************************************************************
-------------------------------------------------------------------------------
                                 ORCA SCF
-------------------------------------------------------------------------------

------------
SCF SETTINGS
------------
Hamiltonian:
 Density Functional     Method          .... DFT(GTOs)
 Exchange Functional    Exchange        .... PBE
   PBE kappa parameter   XKappa         ....  1.024500
   PBE mue parameter    XMuePBE         ....  0.123457
 Correlation Functional Correlation     .... PBE
   PBE beta parameter  CBetaPBE         ....  0.030000
 LDA part of GGA corr.  LDAOpt          .... PW91-LDA
 Gradients option       PostSCFGGA      .... off
 Hybrid DFT is turned on
   Fraction HF Exchange ScalHFX         ....  0.420000
   Scaling of DF-GGA-X  ScalDFX         ....  0.580000
   Scaling of DF-GGA-C  ScalDFC         ....  1.000000
   Scaling of DF-LDA-C  ScalLDAC        ....  1.000000
   Perturbative correction              ....  0.000000
   Density functional embedding theory  .... OFF
 RI-approximation to the Coulomb term is turned on
   Number of AuxJ basis functions       .... 513
   RIJ-ON(X) (HFX calculated with O(N)) .... on
   Number of AuxJ basis functions       .... 513
   RIJ-COSX (HFX calculated with COS-X)).... on


General Settings:
 Integral files         IntName         .... pbeh-3c
 Hartree-Fock type      HFTyp           .... RHF
 Total Charge           Charge          ....    0
 Multiplicity           Mult            ....    1
 Number of Electrons    NEL             ....   62
 Basis Dimension        Dim             ....  142
 Nuclear Repulsion      ENuc            ....    372.8069402843 Eh

Convergence Acceleration:
 DIIS                   CNVDIIS         .... on
   Start iteration      DIISMaxIt       ....    12
   Startup error        DIISStart       ....  0.200000
   # of expansion vecs  DIISMaxEq       ....     5
   Bias factor          DIISBfac        ....   1.050
   Max. coefficient     DIISMaxC        ....  10.000
 Trust-Rad. Augm. Hess. CNVTRAH         .... auto
   Auto Start mean grad. ratio tolernc. ....  1.125000
   Auto Start start iteration           ....    20
   Auto Start num. interpolation iter.  ....    10
   Max. Number of Micro iterations      ....    16
   Max. Number of Macro iterations      .... Maxiter - #DIIS iter
   Number of Davidson start vectors     ....     2
   Converg. threshold I  (grad. norm)   ....   1.000e-05
   Converg. threshold II (energy diff.) ....   1.000e-08
   Grad. Scal. Fac. for Micro threshold ....   0.100
   Minimum threshold for Micro iter.    ....   0.010
   NR start threshold (gradient norm)   ....   0.001
   Initial trust radius                 ....   0.400
   Minimum AH scaling param. (alpha)    ....   1.000
   Maximum AH scaling param. (alpha)    .... 1000.000
   Orbital update algorithm             .... Taylor
   White noise on init. David. guess    .... on
   Maximum white noise                  ....   0.010
   Quad. conv. algorithm                .... NR
   COSX micro iterations for RIJONX calc.... off
 SOSCF                  CNVSOSCF        .... on
   Start iteration      SOSCFMaxIt      ....   150
   Startup grad/error   SOSCFStart      ....  0.003300
 Level Shifting         CNVShift        .... on
   Level shift para.    LevelShift      ....    0.2500
   Turn off err/grad.   ShiftErr        ....    0.0010
 Zerner damping         CNVZerner       .... off
 Static damping         CNVDamp         .... on
   Fraction old density DampFac         ....    0.7000
   Max. Damping (<1)    DampMax         ....    0.9800
   Min. Damping (>=0)   DampMin         ....    0.0000
   Turn off err/grad.   DampErr         ....    0.1000
 Fernandez-Rico         CNVRico         .... off

SCF Procedure:
 Maximum # iterations   MaxIter         ....   125
 SCF integral mode      SCFMode         .... Direct
   Integral package                     .... SHARK and LIBINT hybrid scheme
 Reset frequency        DirectResetFreq ....    20
 Integral Threshold     Thresh          ....  2.500e-11 Eh
 Primitive CutOff       TCut            ....  2.500e-12 Eh

Convergence Tolerance:
 Convergence Check Mode ConvCheckMode   .... Total+1el-Energy
 Convergence forced     ConvForced      .... 0
 Energy Change          TolE            ....  1.000e-08 Eh
 1-El. energy change                    ....  1.000e-05 Eh
 Orbital Gradient       TolG            ....  1.000e-05
 Orbital Rotation angle TolX            ....  1.000e-05
 DIIS Error             TolErr          ....  5.000e-07


Diagonalization of the overlap matrix:
Smallest eigenvalue                        ... 1.405e-03
Time for diagonalization                   ...    0.012 sec
Threshold for overlap eigenvalues          ... 1.000e-08
Number of eigenvalues below threshold      ... 0
Time for construction of square roots      ...    0.022 sec
Total time needed                          ...    0.034 sec

--------------------------------
INITIAL GUESS: MINIMAL BASIS EHT
--------------------------------
The minimal basis has 51 functions
EHT matrix was diagonalized
Basis set overlap was calculated now projecting the orbitals
Using GuessMode=FMatrix for the initial guess
C*T matrix was formed
Effective Fockian was calculated
Effective Fockian was diagonalized
Initial density was built
                      ------------------
                      INITIAL GUESS DONE
                      ------------------
-------------------
DFT GRID GENERATION
-------------------

General Integration Accuracy     IntAcc      ... 4.959
Radial Grid Type                 RadialGrid  ... OptM3 with GC (2021)
Angular Grid (max. ang.)         AngularGrid ... 6 (Lebedev-590)
Angular grid pruning method      GridPruning ... 4 (adaptive)
Weight generation scheme         WeightScheme... Becke
Basis function cutoff            BFCut       ... 1.0000e-11
Integration weight cutoff        WCut        ... 1.0000e-14
Angular grids for H and He will be reduced by one unit
Partially contracted basis set               ... off
Rotationally invariant grid construction     ... off

Total number of grid points                  ...   210706
Total number of batches                      ...     3300
Average number of points per batch           ...       63
Average number of grid points per atom       ...    11090
Time for grid setup =    3.504 sec

--------------------
COSX GRID GENERATION
--------------------

GRIDX 1
-------
General Integration Accuracy     IntAcc      ... 4.020
Radial Grid Type                 RadialGrid  ... OptM3 with GC (2021)
Angular Grid (max. ang.)         AngularGrid ... 2 (Lebedev-110)
Angular grid pruning method      GridPruning ... 4 (adaptive)
Weight generation scheme         WeightScheme... Becke
Basis function cutoff            BFCut       ... 1.0000e-11
Integration weight cutoff        WCut        ... 1.0000e-14
Angular grids for H and He will be reduced by one unit
Partially contracted basis set               ... on
Rotationally invariant grid construction     ... off

Total number of grid points                  ...    22796
Total number of batches                      ...      367
Average number of points per batch           ...       62
Average number of grid points per atom       ...     1200
UseSFitting                                  ... on

GRIDX 2
-------
General Integration Accuracy     IntAcc      ... 4.338
Radial Grid Type                 RadialGrid  ... OptM3 with GC (2021)
Angular Grid (max. ang.)         AngularGrid ... 3 (Lebedev-194)
Angular grid pruning method      GridPruning ... 4 (adaptive)
Weight generation scheme         WeightScheme... Becke
Basis function cutoff            BFCut       ... 1.0000e-11
Integration weight cutoff        WCut        ... 1.0000e-14
Angular grids for H and He will be reduced by one unit
Partially contracted basis set               ... on
Rotationally invariant grid construction     ... off

Total number of grid points                  ...    49880
Total number of batches                      ...      789
Average number of points per batch           ...       63
Average number of grid points per atom       ...     2625
UseSFitting                                  ... on

GRIDX 3
-------
General Integration Accuracy     IntAcc      ... 4.871
Radial Grid Type                 RadialGrid  ... OptM3 with GC (2021)
Angular Grid (max. ang.)         AngularGrid ... 4 (Lebedev-302)
Angular grid pruning method      GridPruning ... 4 (adaptive)
Weight generation scheme         WeightScheme... Becke
Basis function cutoff            BFCut       ... 1.0000e-11
Integration weight cutoff        WCut        ... 1.0000e-14
Angular grids for H and He will be reduced by one unit
Partially contracted basis set               ... on
Rotationally invariant grid construction     ... off

Total number of grid points                  ...    97176
Total number of batches                      ...     1528
Average number of points per batch           ...       63
Average number of grid points per atom       ...     5115
UseSFitting                                  ... on

Time for X-Grid setup             =    2.944 sec

--------------
SCF ITERATIONS
--------------
ITER       Energy         Delta-E        Max-DP      RMS-DP      [F,P]     Damp
               ***  Starting incremental Fock matrix formation  ***
  0   -359.6818068378   0.000000000000 0.12506152  0.00438908  0.4025524 0.7000
  1   -359.9617839685  -0.279977130648 0.09099999  0.00310256  0.2870406 0.7000
  2   -360.1455061746  -0.183722206126 0.06001998  0.00211525  0.2033727 0.7000
                               ***Turning on DIIS***
  3   -360.2732329437  -0.127726769092 0.04006792  0.00147364  0.1444204 0.7000
  4   -360.3639414567  -0.090708513004 0.02769028  0.00110403  0.1022599 0.7000
  5   -360.4283772641  -0.064435807434 0.07593104  0.00278300  0.0715654 0.0000
  6   -360.5825525543  -0.154175290126 0.01130858  0.00021597  0.0037451 0.0000
                      *** Initiating the SOSCF procedure ***
                           *** Shutting down DIIS ***
                      *** Re-Reading the Fockian *** 
                      *** Removing any level shift *** 
ITER      Energy       Delta-E        Grad      Rot      Max-DP    RMS-DP
  7   -360.58269761  -0.0001450531  0.000945  0.000945  0.002905  0.000086
               *** Restarting incremental Fock matrix formation ***
  8   -360.58276734  -0.0000697289  0.000658  0.001552  0.003502  0.000083
  9   -360.58277701  -0.0000096723  0.000312  0.001134  0.001708  0.000043
 10   -360.58277791  -0.0000009008  0.000221  0.000424  0.000593  0.000016
 11   -360.58277864  -0.0000007268  0.000023  0.000037  0.000096  0.000002
 12   -360.58277864   0.0000000006  0.000030  0.000017  0.000040  0.000001
                  ***Gradient check signals convergence***
              ***Rediagonalizing the Fockian in SOSCF/NRSCF***

               *****************************************************
               *                     SUCCESS                       *
               *           SCF CONVERGED AFTER  13 CYCLES          *
               *****************************************************

Old exchange energy                            =    -20.858113023 Eh
New exchange energy                            =    -20.858119584 Eh
Exchange energy change after final integration =     -0.000006561 Eh
Total energy after final integration           =   -360.582785207 Eh
Final COS-X integration done in                =     4.664 sec

----------------
TOTAL SCF ENERGY
----------------

Total Energy       :         -360.58278521 Eh           -9811.95642 eV

Components:
Nuclear Repulsion  :          372.80694028 Eh           10144.59259 eV
Electronic Energy  :         -733.38972549 Eh          -19956.54900 eV
One Electron Energy:        -1225.89299224 Eh          -33358.24422 eV
Two Electron Energy:          492.50326675 Eh           13401.69522 eV
Max COSX asymmetry :            0.00000065 Eh               0.00002 eV

Virial components:
Potential Energy   :         -718.54452225 Eh          -19552.59048 eV
Kinetic Energy     :          357.96173704 Eh            9740.63407 eV
Virial Ratio       :            2.00732215


DFT components:
N(Alpha)           :       30.999996782450 electrons
N(Beta)            :       30.999996782450 electrons
N(Total)           :       61.999993564901 electrons
E(X)               :      -27.712492525019 Eh       
E(C)               :       -2.685186850004 Eh       
E(XC)              :      -30.397679375023 Eh       
DFET-embed. en.    :        0.000000000000 Eh       

---------------
SCF CONVERGENCE
---------------

  Last Energy change         ...   -1.0425e-08  Tolerance :   1.0000e-08
  Last MAX-Density change    ...    1.2212e-15  Tolerance :   1.0000e-07
  Last RMS-Density change    ...    3.4394e-17  Tolerance :   5.0000e-09
  Last Orbital Gradient      ...    1.0039e-06  Tolerance :   1.0000e-05
  Last Orbital Rotation      ...    2.7751e-06  Tolerance :   1.0000e-05

             **** THE GBW FILE WAS UPDATED (pbeh-3c.gbw) ****
             **** DENSITY pbeh-3c.scfp WAS UPDATED ****
             **** ENERGY FILE WAS UPDATED (pbeh-3c.en.tmp) ****
             **** THE GBW FILE WAS UPDATED (pbeh-3c.gbw) ****
             **** DENSITY pbeh-3c.scfp WAS UPDATED ****
----------------
ORBITAL ENERGIES
----------------

  NO   OCC          E(Eh)            E(eV) 
   0   2.0000     -14.688140      -399.6846 
   1   2.0000     -14.687769      -399.6745 
   2   2.0000     -14.559748      -396.1909 
   3   2.0000     -10.473646      -285.0024 
   4   2.0000     -10.472791      -284.9791 
   5   2.0000     -10.472754      -284.9781 
   6   2.0000     -10.470810      -284.9252 
   7   2.0000     -10.449711      -284.3511 
   8   2.0000      -1.140235       -31.0274 
   9   2.0000      -1.021080       -27.7850 
  10   2.0000      -0.899206       -24.4686 
  11   2.0000      -0.870499       -23.6875 
  12   2.0000      -0.817787       -22.2531 
  13   2.0000      -0.771492       -20.9934 
  14   2.0000      -0.676829       -18.4175 
  15   2.0000      -0.645724       -17.5710 
  16   2.0000      -0.596988       -16.2449 
  17   2.0000      -0.542644       -14.7661 
  18   2.0000      -0.523067       -14.2334 
  19   2.0000      -0.507521       -13.8103 
  20   2.0000      -0.499518       -13.5926 
  21   2.0000      -0.497487       -13.5373 
  22   2.0000      -0.479824       -13.0567 
  23   2.0000      -0.473526       -12.8853 
  24   2.0000      -0.451159       -12.2767 
  25   2.0000      -0.440897       -11.9974 
  26   2.0000      -0.437750       -11.9118 
  27   2.0000      -0.324054        -8.8180 
  28   2.0000      -0.281912        -7.6712 
  29   2.0000      -0.273620        -7.4456 
  30   2.0000      -0.257340        -7.0026 
  31   0.0000       0.058947         1.6040 
  32   0.0000       0.080829         2.1995 
  33   0.0000       0.141883         3.8608 
  34   0.0000       0.151769         4.1299 
  35   0.0000       0.169855         4.6220 
  36   0.0000       0.171463         4.6657 
  37   0.0000       0.193206         5.2574 
  38   0.0000       0.204061         5.5528 
  39   0.0000       0.207129         5.6363 
  40   0.0000       0.212870         5.7925 
  41   0.0000       0.220846         6.0095 
  42   0.0000       0.230306         6.2669 
  43   0.0000       0.231549         6.3008 
  44   0.0000       0.251923         6.8552 
  45   0.0000       0.253538         6.8991 
  46   0.0000       0.305354         8.3091 
  47   0.0000       0.320291         8.7156 
  48   0.0000       0.369991        10.0680 
  49   0.0000       0.417481        11.3602 
  50   0.0000       0.453532        12.3412 
  51   0.0000       0.480918        13.0864 
  52   0.0000       0.496157        13.5011 
  53   0.0000       0.504073        13.7165 
  54   0.0000       0.518953        14.1214 
  55   0.0000       0.553385        15.0584 
  56   0.0000       0.558274        15.1914 
  57   0.0000       0.592209        16.1148 
  58   0.0000       0.613620        16.6974 
  59   0.0000       0.635149        17.2833 
  60   0.0000       0.644536        17.5387 
  61   0.0000       0.675522        18.3819 
  62   0.0000       0.705076        19.1861 
  63   0.0000       0.725319        19.7369 
  64   0.0000       0.770675        20.9711 
  65   0.0000       0.786788        21.4096 
  66   0.0000       0.800095        21.7717 
  67   0.0000       0.805874        21.9290 
  68   0.0000       0.830399        22.5963 
  69   0.0000       0.895222        24.3602 
  70   0.0000       0.903923        24.5970 
  71   0.0000       0.917785        24.9742 
  72   0.0000       0.930942        25.3322 
  73   0.0000       0.970837        26.4178 
  74   0.0000       0.987773        26.8787 
  75   0.0000       1.007227        27.4080 
  76   0.0000       1.011953        27.5366 
  77   0.0000       1.012725        27.5576 
  78   0.0000       1.026692        27.9377 
  79   0.0000       1.043888        28.4056 
  80   0.0000       1.050485        28.5852 
  81   0.0000       1.083706        29.4891 
  82   0.0000       1.086461        29.5641 
  83   0.0000       1.098981        29.9048 
  84   0.0000       1.180530        32.1239 
  85   0.0000       1.210602        32.9422 
  86   0.0000       1.234333        33.5879 
  87   0.0000       1.268481        34.5171 
  88   0.0000       1.279545        34.8182 
  89   0.0000       1.342832        36.5403 
  90   0.0000       1.363098        37.0918 
  91   0.0000       1.409064        38.3426 
  92   0.0000       1.417741        38.5787 
  93   0.0000       1.499151        40.7940 
  94   0.0000       1.574891        42.8550 
  95   0.0000       1.594310        43.3834 
  96   0.0000       1.612882        43.8887 
  97   0.0000       1.665239        45.3135 
  98   0.0000       1.695838        46.1461 
  99   0.0000       1.772765        48.2394 
 100   0.0000       1.776806        48.3494 
 101   0.0000       1.844985        50.2046 
 102   0.0000       1.936433        52.6930 
 103   0.0000       1.979582        53.8672 
 104   0.0000       2.007933        54.6386 
 105   0.0000       2.024278        55.0834 
 106   0.0000       2.028688        55.2034 
 107   0.0000       2.085243        56.7423 
 108   0.0000       2.096159        57.0394 
 109   0.0000       2.111145        57.4472 
 110   0.0000       2.119581        57.6767 
 111   0.0000       2.173985        59.1572 
 112   0.0000       2.205985        60.0279 
 113   0.0000       2.251527        61.2672 
 114   0.0000       2.251941        61.2784 
 115   0.0000       2.300528        62.6006 
 116   0.0000       2.310419        62.8697 
 117   0.0000       2.321815        63.1798 
 118   0.0000       2.356141        64.1139 
 119   0.0000       2.401466        65.3472 
 120   0.0000       2.430233        66.1300 
 121   0.0000       2.524734        68.7015 
 122   0.0000       2.541099        69.1468 
 123   0.0000       2.544099        69.2284 
 124   0.0000       2.544876        69.2496 
 125   0.0000       2.579034        70.1791 
 126   0.0000       2.642101        71.8952 
 127   0.0000       2.682638        72.9983 
 128   0.0000       2.805893        76.3522 
 129   0.0000       2.882198        78.4286 
 130   0.0000       2.893129        78.7260 
 131   0.0000       3.080787        83.8325 
 132   0.0000       3.162773        86.0634 
 133   0.0000       3.252165        88.4959 
 134   0.0000      13.505950       367.5156 
 135   0.0000      13.708593       373.0298 
 136   0.0000      13.768688       374.6650 
 137   0.0000      13.863856       377.2547 
 138   0.0000      14.117520       384.1572 
 139   0.0000      19.116653       520.1906 
 140   0.0000      19.285410       524.7827 
 141   0.0000      19.442160       529.0481 

                    ********************************
                    * MULLIKEN POPULATION ANALYSIS *
                    ********************************

-----------------------
MULLIKEN ATOMIC CHARGES
-----------------------
   0 C :    0.103809
   1 C :   -0.081010
   2 C :   -0.087926
   3 N :   -0.412703
   4 N :   -0.409261
   5 H :    0.245580
   6 H :    0.245924
   7 C :   -0.497372
   8 C :   -0.494970
   9 H :    0.223985
  10 H :    0.224062
  11 H :    0.267345
  12 H :    0.223775
  13 H :    0.224470
  14 H :    0.248557
  15 N :   -0.994751
  16 H :    0.380503
  17 H :    0.294930
  18 H :    0.295052
Sum of atomic charges:    0.0000000

--------------------------------
MULLIKEN REDUCED ORBITAL CHARGES
--------------------------------
  0 C s       :     3.440386  s :     3.440386
      pz      :     1.094383  p :     2.384224
      px      :     0.662566
      py      :     0.627275
      dz2     :     0.008514  d :     0.071581
      dxz     :     0.009821
      dyz     :     0.033297
      dx2y2   :     0.007871
      dxy     :     0.012078
  1 C s       :     3.149664  s :     3.149664
      pz      :     0.813219  p :     2.876823
      px      :     1.081765
      py      :     0.981839
      dz2     :     0.016740  d :     0.054523
      dxz     :     0.008388
      dyz     :     0.015921
      dx2y2   :     0.006001
      dxy     :     0.007473
  2 C s       :     3.154136  s :     3.154136
      pz      :     0.844192  p :     2.879221
      px      :     1.080502
      py      :     0.954527
      dz2     :     0.015937  d :     0.054568
      dxz     :     0.007538
      dyz     :     0.017182
      dx2y2   :     0.005574
      dxy     :     0.008338
  3 N s       :     3.520693  s :     3.520693
      pz      :     1.146551  p :     3.839985
      px      :     1.524689
      py      :     1.168745
      dz2     :     0.013875  d :     0.052025
      dxz     :     0.008765
      dyz     :     0.014262
      dx2y2   :     0.008238
      dxy     :     0.006885
  4 N s       :     3.514956  s :     3.514956
      pz      :     1.144712  p :     3.842326
      px      :     1.526073
      py      :     1.171541
      dz2     :     0.014064  d :     0.051980
      dxz     :     0.008751
      dyz     :     0.014466
      dx2y2   :     0.007819
      dxy     :     0.006879
  5 H s       :     0.754420  s :     0.754420
  6 H s       :     0.754076  s :     0.754076
  7 C s       :     3.342566  s :     3.342566
      pz      :     1.168244  p :     3.104171
      px      :     1.125675
      py      :     0.810251
      dz2     :     0.012302  d :     0.050636
      dxz     :     0.004277
      dyz     :     0.006981
      dx2y2   :     0.011762
      dxy     :     0.015314
  8 C s       :     3.342086  s :     3.342086
      pz      :     1.134806  p :     3.102242
      px      :     1.127827
      py      :     0.839609
      dz2     :     0.012398  d :     0.050642
      dxz     :     0.003454
      dyz     :     0.008412
      dx2y2   :     0.010174
      dxy     :     0.016204
  9 H s       :     0.776015  s :     0.776015
 10 H s       :     0.775938  s :     0.775938
 11 H s       :     0.732655  s :     0.732655
 12 H s       :     0.776225  s :     0.776225
 13 H s       :     0.775530  s :     0.775530
 14 H s       :     0.751443  s :     0.751443
 15 N s       :     3.671019  s :     3.671019
      pz      :     1.604648  p :     4.291736
      px      :     1.192592
      py      :     1.494495
      dz2     :     0.013737  d :     0.031996
      dxz     :     0.000009
      dyz     :     0.002712
      dx2y2   :    -0.000083
      dxy     :     0.015620
 16 H s       :     0.619497  s :     0.619497
 17 H s       :     0.705070  s :     0.705070
 18 H s       :     0.704948  s :     0.704948


                     *******************************
                     * LOEWDIN POPULATION ANALYSIS *
                     *******************************

----------------------
LOEWDIN ATOMIC CHARGES
----------------------
   0 C :   -0.210655
   1 C :   -0.128163
   2 C :   -0.126489
   3 N :   -0.044645
   4 N :   -0.046505
   5 H :    0.141686
   6 H :    0.141865
   7 C :   -0.244620
   8 C :   -0.246766
   9 H :    0.125536
  10 H :    0.125558
  11 H :    0.154110
  12 H :    0.125281
  13 H :    0.125374
  14 H :    0.145661
  15 N :   -0.675805
  16 H :    0.224928
  17 H :    0.206775
  18 H :    0.206875

-------------------------------
LOEWDIN REDUCED ORBITAL CHARGES
-------------------------------
  0 C s       :     3.156985  s :     3.156985
      pz      :     1.358204  p :     2.903448
      px      :     0.722081
      py      :     0.823162
      dz2     :     0.015376  d :     0.150222
      dxz     :     0.014001
      dyz     :     0.070235
      dx2y2   :     0.023592
      dxy     :     0.027018
  1 C s       :     2.887625  s :     2.887625
      pz      :     0.958311  p :     3.118058
      px      :     1.077072
      py      :     1.082676
      dz2     :     0.040560  d :     0.122480
      dxz     :     0.017166
      dyz     :     0.036285
      dx2y2   :     0.013897
      dxy     :     0.014572
  2 C s       :     2.887571  s :     2.887571
      pz      :     0.970401  p :     3.116448
      px      :     1.075953
      py      :     1.070094
      dz2     :     0.037941  d :     0.122471
      dxz     :     0.014937
      dyz     :     0.039178
      dx2y2   :     0.013605
      dxy     :     0.016810
  3 N s       :     3.050436  s :     3.050436
      pz      :     1.211290  p :     3.866772
      px      :     1.453094
      py      :     1.202388
      dz2     :     0.037949  d :     0.127437
      dxz     :     0.018916
      dyz     :     0.040073
      dx2y2   :     0.017510
      dxy     :     0.012989
  4 N s       :     3.051448  s :     3.051448
      pz      :     1.204660  p :     3.867638
      px      :     1.454810
      py      :     1.208168
      dz2     :     0.037932  d :     0.127419
      dxz     :     0.018873
      dyz     :     0.040589
      dx2y2   :     0.016998
      dxy     :     0.013027
  5 H s       :     0.858314  s :     0.858314
  6 H s       :     0.858135  s :     0.858135
  7 C s       :     2.937600  s :     2.937600
      pz      :     1.146607  p :     3.209938
      px      :     1.136211
      py      :     0.927120
      dz2     :     0.022095  d :     0.097081
      dxz     :     0.006338
      dyz     :     0.014699
      dx2y2   :     0.023426
      dxy     :     0.030524
  8 C s       :     2.937869  s :     2.937869
      pz      :     1.128950  p :     3.211811
      px      :     1.136871
      py      :     0.945990
      dz2     :     0.022494  d :     0.097086
      dxz     :     0.005114
      dyz     :     0.017443
      dx2y2   :     0.020169
      dxy     :     0.031866
  9 H s       :     0.874464  s :     0.874464
 10 H s       :     0.874442  s :     0.874442
 11 H s       :     0.845890  s :     0.845890
 12 H s       :     0.874719  s :     0.874719
 13 H s       :     0.874626  s :     0.874626
 14 H s       :     0.854339  s :     0.854339
 15 N s       :     3.313049  s :     3.313049
      pz      :     1.579857  p :     4.317275
      px      :     1.221310
      py      :     1.516108
      dz2     :     0.017936  d :     0.045481
      dxz     :     0.000267
      dyz     :     0.003708
      dx2y2   :     0.000688
      dxy     :     0.022882
 16 H s       :     0.775072  s :     0.775072
 17 H s       :     0.793225  s :     0.793225
 18 H s       :     0.793125  s :     0.793125


                      *****************************
                      * MAYER POPULATION ANALYSIS *
                      *****************************

  NA   - Mulliken gross atomic population
  ZA   - Total nuclear charge
  QA   - Mulliken gross atomic charge
  VA   - Mayer's total valence
  BVA  - Mayer's bonded valence
  FA   - Mayer's free valence

  ATOM       NA         ZA         QA         VA         BVA        FA
  0 C      5.8962     6.0000     0.1038     2.7101     2.7101    -0.0000
  1 C      6.0810     6.0000    -0.0810     3.7621     3.7621    -0.0000
  2 C      6.0879     6.0000    -0.0879     3.7724     3.7724    -0.0000
  3 N      7.4127     7.0000    -0.4127     3.3437     3.3437    -0.0000
  4 N      7.4093     7.0000    -0.4093     3.3559     3.3559    -0.0000
  5 H      0.7544     1.0000     0.2456     0.9033     0.9033    -0.0000
  6 H      0.7541     1.0000     0.2459     0.9034     0.9034    -0.0000
  7 C      6.4974     6.0000    -0.4974     3.6764     3.6764     0.0000
  8 C      6.4950     6.0000    -0.4950     3.6704     3.6704     0.0000
  9 H      0.7760     1.0000     0.2240     0.9055     0.9055    -0.0000
 10 H      0.7759     1.0000     0.2241     0.9054     0.9054     0.0000
 11 H      0.7327     1.0000     0.2673     0.9080     0.9080     0.0000
 12 H      0.7762     1.0000     0.2238     0.9057     0.9057     0.0000
 13 H      0.7755     1.0000     0.2245     0.9051     0.9051    -0.0000
 14 H      0.7514     1.0000     0.2486     0.9312     0.9312    -0.0000
 15 N      7.9948     7.0000    -0.9948     2.6071     2.6071     0.0000
 16 H      0.6195     1.0000     0.3805     0.8717     0.8717     0.0000
 17 H      0.7051     1.0000     0.2949     0.8811     0.8811     0.0000
 18 H      0.7049     1.0000     0.2951     0.8810     0.8810     0.0000

  Mayer bond orders larger than 0.100000
B(  0-C ,  3-N ) :   1.2161 B(  0-C ,  4-N ) :   1.2341 B(  0-C , 16-H ) :   0.1036 
B(  1-C ,  2-C ) :   1.6896 B(  1-C ,  4-N ) :   1.0932 B(  1-C ,  5-H ) :   0.9032 
B(  2-C ,  3-N ) :   1.1020 B(  2-C ,  6-H ) :   0.9030 B(  3-N ,  7-C ) :   0.9449 
B(  4-N ,  8-C ) :   0.9453 B(  7-C ,  9-H ) :   0.9159 B(  7-C , 10-H ) :   0.9158 
B(  7-C , 11-H ) :   0.9093 B(  8-C , 12-H ) :   0.9159 B(  8-C , 13-H ) :   0.9154 
B(  8-C , 14-H ) :   0.9020 B( 15-N , 16-H ) :   0.7721 B( 15-N , 17-H ) :   0.8903 
B( 15-N , 18-H ) :   0.8903 

-------
TIMINGS
-------

Total SCF time: 0 days 0 hours 1 min 5 sec 

Total time                  ....      65.049 sec
Sum of individual times     ....      62.468 sec  ( 96.0%)

Fock matrix formation       ....      52.828 sec  ( 81.2%)
  Split-RI-J                ....       4.775 sec  (  9.0% of F)
  Chain of spheres X        ....      27.812 sec  ( 52.6% of F)
  XC integration            ....      14.136 sec  ( 26.8% of F)
    Basis function eval.    ....       3.330 sec  ( 23.6% of XC)
    Density eval.           ....       1.844 sec  ( 13.0% of XC)
    XC-Functional eval.     ....       1.341 sec  (  9.5% of XC)
    XC-Potential eval.      ....       1.143 sec  (  8.1% of XC)
Diagonalization             ....       1.049 sec  (  1.6%)
Density matrix formation    ....       0.033 sec  (  0.1%)
Population analysis         ....       0.116 sec  (  0.2%)
Initial guess               ....       0.089 sec  (  0.1%)
Orbital Transformation      ....       0.000 sec  (  0.0%)
Orbital Orthonormalization  ....       0.000 sec  (  0.0%)
DIIS solution               ....       1.219 sec  (  1.9%)
SOSCF solution              ....       0.687 sec  (  1.1%)
Grid generation             ....       6.448 sec  (  9.9%)

Maximum memory used throughout the entire SCF-calculation: 56.7 MB


-------------------------------------------------------------------------------
                          DFT DISPERSION CORRECTION                            
                                                                               
                              DFTD3 V3.1  Rev 1                                
                          USING Becke-Johnson damping                          
-------------------------------------------------------------------------------
The PBEh-3c composite method is recognized
Using three-body term ABC
Active option DFTDOPT                   ...         4   

molecular C6(AA) [au] = 2997.963064 


            DFT-D V3
 parameters
 s6 scaling factor         :     1.0000 
 a1 scaling factor         :     0.4860 
 s8 scaling factor         :     0.0000 
 a2 scaling factor         :     4.5000 
 Damping factor alpha9(ATM):    16.0000 
 ad hoc parameters k1-k3   :    16.0000     1.3333    -4.0000 

 Edisp/kcal,au: -5.508600972300  -0.008778513492 
 E6   /kcal   :  -5.522709909 
 E8   /kcal   :  -0.000000000 
 E6(ABC)      :   0.014108936 
 % E8         :   0.000000000 
 % E6(ABC)    :  -0.256125584 

-------------------------   ----------------
Dispersion correction           -0.008778513
-------------------------   ----------------

------------------   -----------------
gCP correction             0.026872226
------------------   -----------------

-------------------------   --------------------
FINAL SINGLE POINT ENERGY      -360.564691494629
-------------------------   --------------------


                            ***************************************
                            *     ORCA property calculations      *
                            ***************************************

                                    ---------------------
                                    Active property flags
                                    ---------------------
   (+) Dipole Moment


------------------------------------------------------------------------------
                       ORCA ELECTRIC PROPERTIES CALCULATION
------------------------------------------------------------------------------

Dipole Moment Calculation                       ... on
Quadrupole Moment Calculation                   ... off
Polarizability Calculation                      ... off
GBWName                                         ... pbeh-3c.gbw
Electron density                                ... pbeh-3c.scfp
The origin for moment calculation is the CENTER OF MASS  = ( 0.021767, -0.144365  0.417323)

-------------
DIPOLE MOMENT
-------------
                                X             Y             Z
Electronic contribution:      0.34585      -1.13512       6.47564
Nuclear contribution   :     -0.24925       1.54782      -4.74430
                        -----------------------------------------
Total Dipole Moment    :      0.09659       0.41270       1.73134
                        -----------------------------------------
Magnitude (a.u.)       :      1.78247
Magnitude (Debye)      :      4.53068



--------------------
Rotational spectrum 
--------------------
 
Rotational constants in cm-1:     0.077589     0.048266     0.030236 
Rotational constants in MHz :  2326.066616  1446.989013   906.456681 

 Dipole components along the rotational axes: 
x,y,z [a.u.] :     1.337127     1.178684    -0.001242 
x,y,z [Debye]:     3.398706     2.995976    -0.003157 

 

Timings for individual modules:

Sum of individual times         ...       67.705 sec (=   1.128 min)
GTO integral calculation        ...        2.176 sec (=   0.036 min)   3.2 %
SCF iterations                  ...       65.529 sec (=   1.092 min)  96.8 %
                             ****ORCA TERMINATED NORMALLY****
TOTAL RUN TIME: 0 days 0 hours 1 minutes 8 seconds 680 msec
