
                                 *****************
                                 * O   R   C   A *
                                 *****************

                                            #,                                       
                                            ###                                      
                                            ####                                     
                                            #####                                    
                                            ######                                   
                                           ########,                                 
                                     ,,################,,,,,                         
                               ,,#################################,,                 
                          ,,##########################################,,             
                       ,#########################################, ''#####,          
                    ,#############################################,,   '####,        
                  ,##################################################,,,,####,       
                ,###########''''           ''''###############################       
              ,#####''   ,,,,##########,,,,          '''####'''          '####       
            ,##' ,,,,###########################,,,                        '##       
           ' ,,###''''                  '''############,,,                           
         ,,##''                                '''############,,,,        ,,,,,,###''
      ,#''                                            '''#######################'''  
     '                                                          ''''####''''         
             ,#######,   #######,   ,#######,      ##                                
            ,#'     '#,  ##    ##  ,#'     '#,    #''#        ######   ,####,        
            ##       ##  ##   ,#'  ##            #'  '#       #        #'  '#        
            ##       ##  #######   ##           ,######,      #####,   #    #        
            '#,     ,#'  ##    ##  '#,     ,#' ,#      #,         ##   #,  ,#        
             '#######'   ##     ##  '#######'  #'      '#     #####' # '####'        



                  #######################################################
                  #                        -***-                        #
                  #          Department of theory and spectroscopy      #
                  #    Directorship and core code : Frank Neese         #
                  #        Max Planck Institute fuer Kohlenforschung    #
                  #                Kaiser Wilhelm Platz 1               #
                  #                 D-45470 Muelheim/Ruhr               #
                  #                      Germany                        #
                  #                                                     #
                  #                  All rights reserved                #
                  #                        -***-                        #
                  #######################################################


                         Program Version 5.0.3 -  RELEASE  -


 With contributions from (in alphabetic order):
   Daniel Aravena         : Magnetic Suceptibility
   Michael Atanasov       : Ab Initio Ligand Field Theory (pilot matlab implementation)
   Alexander A. Auer      : GIAO ZORA, VPT2 properties, NMR spectrum
   Ute Becker             : Parallelization
   Giovanni Bistoni       : ED, misc. LED, open-shell LED, HFLD
   Martin Brehm           : Molecular dynamics
   Dmytro Bykov           : SCF Hessian
   Vijay G. Chilkuri      : MRCI spin determinant printing, contributions to CSF-ICE
   Dipayan Datta          : RHF DLPNO-CCSD density
   Achintya Kumar Dutta   : EOM-CC, STEOM-CC
   Dmitry Ganyushin       : Spin-Orbit,Spin-Spin,Magnetic field MRCI
   Miquel Garcia          : C-PCM and meta-GGA Hessian, CC/C-PCM, Gaussian charge scheme
   Yang Guo               : DLPNO-NEVPT2, F12-NEVPT2, CIM, IAO-localization
   Andreas Hansen         : Spin unrestricted coupled pair/coupled cluster methods
   Benjamin Helmich-Paris : MC-RPA, TRAH-SCF, COSX integrals
   Lee Huntington         : MR-EOM, pCC
   Robert Izsak           : Overlap fitted RIJCOSX, COSX-SCS-MP3, EOM
   Marcus Kettner         : VPT2
   Christian Kollmar      : KDIIS, OOCD, Brueckner-CCSD(T), CCSD density, CASPT2, CASPT2-K
   Simone Kossmann        : Meta GGA functionals, TD-DFT gradient, OOMP2, MP2 Hessian
   Martin Krupicka        : Initial AUTO-CI
   Lucas Lang             : DCDCAS
   Marvin Lechner         : AUTO-CI (C++ implementation), FIC-MRCC
   Dagmar Lenk            : GEPOL surface, SMD
   Dimitrios Liakos       : Extrapolation schemes; Compound Job, initial MDCI parallelization
   Dimitrios Manganas     : Further ROCIS development; embedding schemes
   Dimitrios Pantazis     : SARC Basis sets
   Anastasios Papadopoulos: AUTO-CI, single reference methods and gradients
   Taras Petrenko         : DFT Hessian,TD-DFT gradient, ASA, ECA, R-Raman, ABS, FL, XAS/XES, NRVS
   Peter Pinski           : DLPNO-MP2, DLPNO-MP2 Gradient
   Christoph Reimann      : Effective Core Potentials
   Marius Retegan         : Local ZFS, SOC
   Christoph Riplinger    : Optimizer, TS searches, QM/MM, DLPNO-CCSD(T), (RO)-DLPNO pert. Triples
   Tobias Risthaus        : Range-separated hybrids, TD-DFT gradient, RPA, STAB
   Michael Roemelt        : Original ROCIS implementation
   Masaaki Saitow         : Open-shell DLPNO-CCSD energy and density
   Barbara Sandhoefer     : DKH picture change effects
   Avijit Sen             : IP-ROCIS
   Kantharuban Sivalingam : CASSCF convergence, NEVPT2, FIC-MRCI
   Bernardo de Souza      : ESD, SOC TD-DFT
   Georgi Stoychev        : AutoAux, RI-MP2 NMR, DLPNO-MP2 response
   Willem Van den Heuvel  : Paramagnetic NMR
   Boris Wezisla          : Elementary symmetry handling
   Frank Wennmohs         : Technical directorship


 We gratefully acknowledge several colleagues who have allowed us to
 interface, adapt or use parts of their codes:
   Stefan Grimme, W. Hujo, H. Kruse, P. Pracht,  : VdW corrections, initial TS optimization,
                  C. Bannwarth, S. Ehlert          DFT functionals, gCP, sTDA/sTD-DF
   Ed Valeev, F. Pavosevic, A. Kumar             : LibInt (2-el integral package), F12 methods
   Garnet Chan, S. Sharma, J. Yang, R. Olivares  : DMRG
   Ulf Ekstrom                                   : XCFun DFT Library
   Mihaly Kallay                                 : mrcc  (arbitrary order and MRCC methods)
   Jiri Pittner, Ondrej Demel                    : Mk-CCSD
   Frank Weinhold                                : gennbo (NPA and NBO analysis)
   Christopher J. Cramer and Donald G. Truhlar   : smd solvation model
   Lars Goerigk                                  : TD-DFT with DH, B97 family of functionals
   V. Asgeirsson, H. Jonsson                     : NEB implementation
   FAccTs GmbH                                   : IRC, NEB, NEB-TS, DLPNO-Multilevel, CI-OPT
                                                   MM, QMMM, 2- and 3-layer-ONIOM, Crystal-QMMM,
                                                   LR-CPCM, SF, NACMEs, symmetry and pop. for TD-DFT,
                                                   nearIR, NL-DFT gradient (VV10), updates on ESD,
                                                   ML-optimized integration grids
   S Lehtola, MJT Oliveira, MAL Marques          : LibXC Library
   Liviu Ungur et al                             : ANISO software


 Your calculation uses the libint2 library for the computation of 2-el integrals
 For citations please refer to: http://libint.valeyev.net

 Your ORCA version has been built with support for libXC version: 5.1.0
 For citations please refer to: https://tddft.org/programs/libxc/

 This ORCA versions uses:
   CBLAS   interface :  Fast vector & matrix operations
   LAPACKE interface :  Fast linear algebra routines
   SCALAPACK package :  Parallel linear algebra routines
   Shared memory     :  Shared parallel matrices
   BLAS/LAPACK       :  OpenBLAS 0.3.15  USE64BITINT DYNAMIC_ARCH NO_AFFINITY Haswell SINGLE_THREADED
        Core in use  :  Haswell
   Copyright (c) 2011-2014, The OpenBLAS Project




***************************************
The coordinates will be read from file: 21.xyz
***************************************


Your calculation utilizes the geometrical counterpoise correction gCP
Please cite in your paper:
H.Kruse, S. Grimme J.Chem.Phys., 136, (2012), 154101 
   

Your calculation utilizes the atom-pairwise dispersion correction
with the Becke-Johnson damping scheme (D3BJ)
Cite in your paper:
S.Grimme, S.Ehrlich, L.Goerigk, J Comput Chem, (2011), 32, 1456–1465 
S.Grimme, J.Antony, S.Ehrlich and H.Krieg, J.Chem.Phys., 132, (2010), 154104 
   

Your calculation employs the composite approach PBEh-3c.
Please cite in your paper:
S. Grimme, J. G. Brandenburg, C. Bannwarth, A. Hansen J.Chem.Phys., 143, (2015), 054107 
   

================================================================================

----- Orbital basis set information -----
Your calculation utilizes the basis: def2-mSVP

----- AuxJ basis set information -----
Your calculation utilizes the auxiliary basis: def2/J
   F. Weigend, Phys. Chem. Chem. Phys. 8, 1057 (2006).

================================================================================
                                        WARNINGS
                       Please study these warnings very carefully!
================================================================================


INFO   : the flag for use of the SHARK integral package has been found!

================================================================================
                                       INPUT FILE
================================================================================
NAME = pbeh-3c.inp
|  1> ! PBEh-3c def2/J TightSCF DefGrid3
|  2> 
|  3> %maxcore 60000
|  4> 
|  5> %pal
|  6> nprocs 4
|  7> end
|  8> 
|  9> *xyzfile 0 1 21.xyz
| 10> 
| 11>                          ****END OF INPUT****
================================================================================

                       ****************************
                       * Single Point Calculation *
                       ****************************

---------------------------------
CARTESIAN COORDINATES (ANGSTROEM)
---------------------------------
  Na    -1.155163    2.739209    1.341528
  H     -1.442978   -1.794941   -0.126125
  O     -0.401409    2.511957   -0.740465
  H      1.549110    1.293540    1.664041
  Mg     0.655754   -2.338419    0.228744
  H      1.698328   -1.699415   -3.206224
  Al     0.384957    0.908174   -0.555689
  H     -1.443639   -0.480513   -1.638768
  H      2.279437   -1.739894   -0.593872
  Mg    -0.754341   -0.369993    1.634349
  O      0.675806    1.105307    1.292039
  Cl    -2.222445    0.888818    2.927271
  Al     1.386333   -0.920013   -1.852387
  H     -0.627030    2.800934   -1.633693
  H      0.214596   -2.005311    1.965027
  B     -0.797318   -0.899439   -0.705777

----------------------------
CARTESIAN COORDINATES (A.U.)
----------------------------
  NO LB      ZA    FRAG     MASS         X           Y           Z
   0 Na   11.0000    0    22.990   -2.182941    5.176354    2.535121
   1 H     1.0000    0     1.008   -2.726832   -3.391947   -0.238342
   2 O     8.0000    0    15.999   -0.758554    4.746910   -1.399276
   3 H     1.0000    0     1.008    2.927393    2.444436    3.144582
   4 Mg   12.0000    0    24.305    1.239196   -4.418972    0.432264
   5 H     1.0000    0     1.008    3.209376   -3.211429   -6.058885
   6 Al   13.0000    0    26.982    0.727463    1.716200   -1.050100
   7 H     1.0000    0     1.008   -2.728081   -0.908038   -3.096823
   8 H     1.0000    0     1.008    4.307511   -3.287923   -1.122255
   9 Mg   12.0000    0    24.305   -1.425497   -0.699186    3.088471
  10 O     8.0000    0    15.999    1.277088    2.088727    2.441600
  11 Cl   17.0000    0    35.453   -4.199812    1.679623    5.531740
  12 Al   13.0000    0    26.982    2.619790   -1.738572   -3.500504
  13 H     1.0000    0     1.008   -1.184915    5.292999   -3.087232
  14 H     1.0000    0     1.008    0.405528   -3.789489    3.713364
  15 B     5.0000    0    10.810   -1.506712   -1.699693   -1.333726

--------------------------------
INTERNAL COORDINATES (ANGSTROEM)
--------------------------------
 Na     0   0   0     0.000000000000     0.00000000     0.00000000
 H      1   0   0     4.774448411171     0.00000000     0.00000000
 O      1   2   0     2.225867293025    68.64950976     0.00000000
 H      1   2   3     3.083352654876    68.88502735   277.66450763
 Mg     2   1   3     2.196810354916    97.33643372    80.58027293
 H      5   2   1     3.646134315633    94.45254578   264.42808874
 Al     3   1   2     1.795726323904    98.23463552   323.18941316
 H      2   1   3     2.003948392109    66.99239829   335.68879376
 H      5   2   1     1.916057024076   131.52468303   293.86467997
 Mg     2   1   3     2.367269704780    35.13673244   132.30922940
 O      4   1   2     0.967717360439    42.22625374     5.50316515
 Cl    10   2   1     2.326280855529   123.74269331    66.28890702
 Al     6   5   2     1.593010877691    39.56550213    79.93184167
 H      3   1   2     0.965540507881   139.07993311   115.31630172
 H      5   2   1     1.822158117912    82.95790141    63.69090344
 B      8   2   1     1.209835271264    35.96229215    61.63778604

---------------------------
INTERNAL COORDINATES (A.U.)
---------------------------
 Na     0   0   0     0.000000000000     0.00000000     0.00000000
 H      1   0   0     9.022399937649     0.00000000     0.00000000
 O      1   2   0     4.206279594270    68.64950976     0.00000000
 H      1   2   3     5.826692092015    68.88502735   277.66450763
 Mg     2   1   3     4.151369938953    97.33643372    80.58027293
 H      5   2   1     6.890195304039    94.45254578   264.42808874
 Al     3   1   2     3.393430963653    98.23463552   323.18941316
 H      2   1   3     3.786913647598    66.99239829   335.68879376
 H      5   2   1     3.620823032480   131.52468303   293.86467997
 Mg     2   1   3     4.473491427163    35.13673244   132.30922940
 O      4   1   2     1.828720786271    42.22625374     5.50316515
 Cl    10   2   1     4.396033727535   123.74269331    66.28890702
 Al     6   5   2     3.010354287194    39.56550213    79.93184167
 H      3   1   2     1.824607131102   139.07993311   115.31630172
 H      5   2   1     3.443379815554    82.95790141    63.69090344
 B      8   2   1     2.286257329848    35.96229215    61.63778604

---------------------
BASIS SET INFORMATION
---------------------
There are 7 groups of distinct atoms

 Group   1 Type Na  : 10s6p1d contracted to 4s2p1d pattern {5311/51/1}
 Group   2 Type H   : 4s contracted to 2s pattern {31}
 Group   3 Type O   : 8s4p1d contracted to 4s2p1d pattern {5111/31/1}
 Group   4 Type Mg  : 10s7p1d contracted to 4s3p1d pattern {5311/511/1}
 Group   5 Type Al  : 10s7p1d contracted to 4s3p1d pattern {5311/511/1}
 Group   6 Type Cl  : 10s7p1d contracted to 4s3p1d pattern {5311/511/1}
 Group   7 Type B   : 8s4p1d contracted to 4s2p1d pattern {5111/31/1}

Atom   0Na   basis set group =>   1
Atom   1H    basis set group =>   2
Atom   2O    basis set group =>   3
Atom   3H    basis set group =>   2
Atom   4Mg   basis set group =>   4
Atom   5H    basis set group =>   2
Atom   6Al   basis set group =>   5
Atom   7H    basis set group =>   2
Atom   8H    basis set group =>   2
Atom   9Mg   basis set group =>   4
Atom  10O    basis set group =>   3
Atom  11Cl   basis set group =>   6
Atom  12Al   basis set group =>   5
Atom  13H    basis set group =>   2
Atom  14H    basis set group =>   2
Atom  15B    basis set group =>   7
---------------------------------
AUXILIARY/J BASIS SET INFORMATION
---------------------------------
There are 7 groups of distinct atoms

 Group   1 Type Na  : 14s5p5d2f1g contracted to 8s4p4d1f1g pattern {71111111/2111/2111/2/1}
 Group   2 Type H   : 5s2p1d contracted to 3s1p1d pattern {311/2/1}
 Group   3 Type O   : 12s5p4d2f1g contracted to 6s4p3d1f1g pattern {711111/2111/211/2/1}
 Group   4 Type Mg  : 14s5p5d2f1g contracted to 8s4p4d1f1g pattern {71111111/2111/2111/2/1}
 Group   5 Type Al  : 14s5p5d2f1g contracted to 8s4p3d1f1g pattern {71111111/2111/311/2/1}
 Group   6 Type Cl  : 14s5p5d2f1g contracted to 8s4p3d1f1g pattern {71111111/2111/311/2/1}
 Group   7 Type B   : 12s5p4d2f1g contracted to 6s4p3d1f1g pattern {711111/2111/211/2/1}

Atom   0Na   basis set group =>   1
Atom   1H    basis set group =>   2
Atom   2O    basis set group =>   3
Atom   3H    basis set group =>   2
Atom   4Mg   basis set group =>   4
Atom   5H    basis set group =>   2
Atom   6Al   basis set group =>   5
Atom   7H    basis set group =>   2
Atom   8H    basis set group =>   2
Atom   9Mg   basis set group =>   4
Atom  10O    basis set group =>   3
Atom  11Cl   basis set group =>   6
Atom  12Al   basis set group =>   5
Atom  13H    basis set group =>   2
Atom  14H    basis set group =>   2
Atom  15B    basis set group =>   7


           ************************************************************
           *        Program running with 4 parallel MPI-processes     *
           *              working on a common directory               *
           ************************************************************
------------------------------------------------------------------------------
                           ORCA GTO INTEGRAL CALCULATION
                           -- RI-GTO INTEGRALS CHOSEN --
------------------------------------------------------------------------------
------------------------------------------------------------------------------
                   ___                                                        
                  /   \      - P O W E R E D   B Y -                         
                 /     \                                                     
                 |  |  |   _    _      __       _____    __    __             
                 |  |  |  | |  | |    /  \     |  _  \  |  |  /  |          
                  \  \/   | |  | |   /    \    | | | |  |  | /  /          
                 / \  \   | |__| |  /  /\  \   | |_| |  |  |/  /          
                |  |  |   |  __  | /  /__\  \  |    /   |      \           
                |  |  |   | |  | | |   __   |  |    \   |  |\   \          
                \     /   | |  | | |  |  |  |  | |\  \  |  | \   \       
                 \___/    |_|  |_| |__|  |__|  |_| \__\ |__|  \__/        
                                                                              
                      - O R C A' S   B I G   F R I E N D -                    
                                      &                                       
                       - I N T E G R A L  F E E D E R -                       
                                                                              
 v1 FN, 2020, v2 2021                                                         
------------------------------------------------------------------------------


Reading SHARK input file pbeh-3c.SHARKINP.tmp ... ok
----------------------
SHARK INTEGRAL PACKAGE
----------------------

Number of atoms                             ...     16
Number of basis functions                   ...    164
Number of shells                            ...     82
Maximum angular momentum                    ...      2
Integral batch strategy                     ... SHARK/LIBINT Hybrid
RI-J (if used) integral strategy            ... SPLIT-RIJ (Revised 2003 algorithm where possible)
Printlevel                                  ...      1
Contraction scheme used                     ... SEGMENTED contraction
Coulomb Range Separation                    ... NOT USED
Exchange Range Separation                   ... NOT USED
Finite Nucleus Model                        ... NOT USED
Auxiliary Coulomb fitting basis             ... AVAILABLE
   # of basis functions in Aux-J            ...    545
   # of shells in Aux-J                     ...    185
   Maximum angular momentum in Aux-J        ...      4
Auxiliary J/K fitting basis                 ... NOT available
Auxiliary Correlation fitting basis         ... NOT available
Auxiliary 'external' fitting basis          ... NOT available
Integral threshold                          ...     2.500000e-11
Primitive cut-off                           ...     2.500000e-12
Primitive pair pre-selection threshold      ...     2.500000e-12

Calculating pre-screening integrals         ... done (  0.1 sec) Dimension = 82
Organizing shell pair data                  ... done (  0.3 sec)
Shell pair information
Total number of shell pairs                 ...      3403
Shell pairs after pre-screening             ...      3027
Total number of primitive shell pairs       ...     15423
Primitive shell pairs kept                  ...      8846
          la=0 lb=0:   1060 shell pairs
          la=1 lb=0:   1043 shell pairs
          la=1 lb=1:    262 shell pairs
          la=2 lb=0:    416 shell pairs
          la=2 lb=1:    201 shell pairs
          la=2 lb=2:     45 shell pairs

Calculating one electron integrals          ... done (  0.3 sec)
Calculating RI/J V-Matrix + Cholesky decomp.... done (  0.2 sec)
Calculating Nuclear repulsion               ... done (  0.0 sec) ENN=    839.473337664115 Eh

SHARK setup successfully completed in   1.7 seconds

Maximum memory used throughout the entire GTOINT-calculation: 11.9 MB


           ************************************************************
           *        Program running with 4 parallel MPI-processes     *
           *              working on a common directory               *
           ************************************************************
-------------------------------------------------------------------------------
                                 ORCA SCF
-------------------------------------------------------------------------------

------------
SCF SETTINGS
------------
Hamiltonian:
 Density Functional     Method          .... DFT(GTOs)
 Exchange Functional    Exchange        .... PBE
   PBE kappa parameter   XKappa         ....  1.024500
   PBE mue parameter    XMuePBE         ....  0.123457
 Correlation Functional Correlation     .... PBE
   PBE beta parameter  CBetaPBE         ....  0.030000
 LDA part of GGA corr.  LDAOpt          .... PW91-LDA
 Gradients option       PostSCFGGA      .... off
 Hybrid DFT is turned on
   Fraction HF Exchange ScalHFX         ....  0.420000
   Scaling of DF-GGA-X  ScalDFX         ....  0.580000
   Scaling of DF-GGA-C  ScalDFC         ....  1.000000
   Scaling of DF-LDA-C  ScalLDAC        ....  1.000000
   Perturbative correction              ....  0.000000
   Density functional embedding theory  .... OFF
 RI-approximation to the Coulomb term is turned on
   Number of AuxJ basis functions       .... 545
   RIJ-ON(X) (HFX calculated with O(N)) .... on
   Number of AuxJ basis functions       .... 545
   RIJ-COSX (HFX calculated with COS-X)).... on


General Settings:
 Integral files         IntName         .... pbeh-3c
 Hartree-Fock type      HFTyp           .... RHF
 Total Charge           Charge          ....    0
 Multiplicity           Mult            ....    1
 Number of Electrons    NEL             ....  106
 Basis Dimension        Dim             ....  164
 Nuclear Repulsion      ENuc            ....    839.4733376641 Eh

Convergence Acceleration:
 DIIS                   CNVDIIS         .... on
   Start iteration      DIISMaxIt       ....    12
   Startup error        DIISStart       ....  0.200000
   # of expansion vecs  DIISMaxEq       ....     5
   Bias factor          DIISBfac        ....   1.050
   Max. coefficient     DIISMaxC        ....  10.000
 Trust-Rad. Augm. Hess. CNVTRAH         .... auto
   Auto Start mean grad. ratio tolernc. ....  1.125000
   Auto Start start iteration           ....    20
   Auto Start num. interpolation iter.  ....    10
   Max. Number of Micro iterations      ....    16
   Max. Number of Macro iterations      .... Maxiter - #DIIS iter
   Number of Davidson start vectors     ....     2
   Converg. threshold I  (grad. norm)   ....   1.000e-05
   Converg. threshold II (energy diff.) ....   1.000e-08
   Grad. Scal. Fac. for Micro threshold ....   0.100
   Minimum threshold for Micro iter.    ....   0.010
   NR start threshold (gradient norm)   ....   0.001
   Initial trust radius                 ....   0.400
   Minimum AH scaling param. (alpha)    ....   1.000
   Maximum AH scaling param. (alpha)    .... 1000.000
   Orbital update algorithm             .... Taylor
   White noise on init. David. guess    .... on
   Maximum white noise                  ....   0.010
   Quad. conv. algorithm                .... NR
   COSX micro iterations for RIJONX calc.... off
 SOSCF                  CNVSOSCF        .... on
   Start iteration      SOSCFMaxIt      ....   150
   Startup grad/error   SOSCFStart      ....  0.003300
 Level Shifting         CNVShift        .... on
   Level shift para.    LevelShift      ....    0.2500
   Turn off err/grad.   ShiftErr        ....    0.0010
 Zerner damping         CNVZerner       .... off
 Static damping         CNVDamp         .... on
   Fraction old density DampFac         ....    0.7000
   Max. Damping (<1)    DampMax         ....    0.9800
   Min. Damping (>=0)   DampMin         ....    0.0000
   Turn off err/grad.   DampErr         ....    0.1000
 Fernandez-Rico         CNVRico         .... off

SCF Procedure:
 Maximum # iterations   MaxIter         ....   125
 SCF integral mode      SCFMode         .... Direct
   Integral package                     .... SHARK and LIBINT hybrid scheme
 Reset frequency        DirectResetFreq ....    20
 Integral Threshold     Thresh          ....  2.500e-11 Eh
 Primitive CutOff       TCut            ....  2.500e-12 Eh

Convergence Tolerance:
 Convergence Check Mode ConvCheckMode   .... Total+1el-Energy
 Convergence forced     ConvForced      .... 0
 Energy Change          TolE            ....  1.000e-08 Eh
 1-El. energy change                    ....  1.000e-05 Eh
 Orbital Gradient       TolG            ....  1.000e-05
 Orbital Rotation angle TolX            ....  1.000e-05
 DIIS Error             TolErr          ....  5.000e-07


Diagonalization of the overlap matrix:
Smallest eigenvalue                        ... 1.616e-03
Time for diagonalization                   ...    0.055 sec
Threshold for overlap eigenvalues          ... 1.000e-08
Number of eigenvalues below threshold      ... 0
Time for construction of square roots      ...    0.454 sec
Total time needed                          ...    0.550 sec

--------------------------------
INITIAL GUESS: MINIMAL BASIS EHT
--------------------------------
The minimal basis has 76 functions
EHT matrix was diagonalized
Basis set overlap was calculated now projecting the orbitals
Using GuessMode=FMatrix for the initial guess
C*T matrix was formed
Effective Fockian was calculated
Effective Fockian was diagonalized
Initial density was built
                      ------------------
                      INITIAL GUESS DONE
                      ------------------
-------------------
DFT GRID GENERATION
-------------------

General Integration Accuracy     IntAcc      ... 4.959
Radial Grid Type                 RadialGrid  ... OptM3 with GC (2021)
Angular Grid (max. ang.)         AngularGrid ... 6 (Lebedev-590)
Angular grid pruning method      GridPruning ... 4 (adaptive)
Weight generation scheme         WeightScheme... Becke
Basis function cutoff            BFCut       ... 1.0000e-11
Integration weight cutoff        WCut        ... 1.0000e-14
Angular grids for H and He will be reduced by one unit
Partially contracted basis set               ... off
Rotationally invariant grid construction     ... off

Total number of grid points                  ...   197995
Total number of batches                      ...     3102
Average number of points per batch           ...       63
Average number of grid points per atom       ...    12375
Time for grid setup =    8.719 sec

--------------------
COSX GRID GENERATION
--------------------

GRIDX 1
-------
General Integration Accuracy     IntAcc      ... 4.020
Radial Grid Type                 RadialGrid  ... OptM3 with GC (2021)
Angular Grid (max. ang.)         AngularGrid ... 2 (Lebedev-110)
Angular grid pruning method      GridPruning ... 4 (adaptive)
Weight generation scheme         WeightScheme... Becke
Basis function cutoff            BFCut       ... 1.0000e-11
Integration weight cutoff        WCut        ... 1.0000e-14
Angular grids for H and He will be reduced by one unit
Partially contracted basis set               ... on
Rotationally invariant grid construction     ... off

Total number of grid points                  ...    22113
Total number of batches                      ...      355
Average number of points per batch           ...       62
Average number of grid points per atom       ...     1382
UseSFitting                                  ... on

GRIDX 2
-------
General Integration Accuracy     IntAcc      ... 4.338
Radial Grid Type                 RadialGrid  ... OptM3 with GC (2021)
Angular Grid (max. ang.)         AngularGrid ... 3 (Lebedev-194)
Angular grid pruning method      GridPruning ... 4 (adaptive)
Weight generation scheme         WeightScheme... Becke
Basis function cutoff            BFCut       ... 1.0000e-11
Integration weight cutoff        WCut        ... 1.0000e-14
Angular grids for H and He will be reduced by one unit
Partially contracted basis set               ... on
Rotationally invariant grid construction     ... off

Total number of grid points                  ...    51667
Total number of batches                      ...      815
Average number of points per batch           ...       63
Average number of grid points per atom       ...     3229
UseSFitting                                  ... on

GRIDX 3
-------
General Integration Accuracy     IntAcc      ... 4.871
Radial Grid Type                 RadialGrid  ... OptM3 with GC (2021)
Angular Grid (max. ang.)         AngularGrid ... 4 (Lebedev-302)
Angular grid pruning method      GridPruning ... 4 (adaptive)
Weight generation scheme         WeightScheme... Becke
Basis function cutoff            BFCut       ... 1.0000e-11
Integration weight cutoff        WCut        ... 1.0000e-14
Angular grids for H and He will be reduced by one unit
Partially contracted basis set               ... on
Rotationally invariant grid construction     ... off

Total number of grid points                  ...    95195
Total number of batches                      ...     1495
Average number of points per batch           ...       63
Average number of grid points per atom       ...     5950
UseSFitting                                  ... on

Time for X-Grid setup             =    5.768 sec

--------------
SCF ITERATIONS
--------------
ITER       Energy         Delta-E        Max-DP      RMS-DP      [F,P]     Damp
               ***  Starting incremental Fock matrix formation  ***
  0  -1682.5166162627   0.000000000000 0.67338459  0.01161773  0.6119015 0.7000
  1  -1683.3646021209  -0.847985858179 0.15508322  0.00602937  0.2827167 0.7000
                               ***Turning on DIIS***
  2  -1683.8488510608  -0.484248939879 0.15877565  0.00398526  0.1901500 0.7000
  3  -1684.1755755526  -0.326724491860 0.18340879  0.00305885  0.1262392 0.7000
  4  -1684.4056653481  -0.230089795438 0.43696709  0.00742369  0.0851724 0.0000
  5  -1684.9463230135  -0.540657665417 0.01661901  0.00051240  0.0097689 0.0000
  6  -1684.9473372583  -0.001014244809 0.00594238  0.00018816  0.0044242 0.0000
                      *** Initiating the SOSCF procedure ***
                           *** Shutting down DIIS ***
                      *** Re-Reading the Fockian *** 
                      *** Removing any level shift *** 
ITER      Energy       Delta-E        Grad      Rot      Max-DP    RMS-DP
  7  -1684.94752052  -0.0001832666  0.000801  0.000801  0.005264  0.000117
               *** Restarting incremental Fock matrix formation ***
  8  -1684.94756027  -0.0000397447  0.000513  0.002589  0.003208  0.000114
  9  -1684.94757940  -0.0000191255  0.000422  0.001703  0.004055  0.000080
 10  -1684.94758439  -0.0000049926  0.000173  0.000457  0.001674  0.000034
 11  -1684.94758569  -0.0000012982  0.000035  0.000146  0.000217  0.000006
 12  -1684.94758571  -0.0000000291  0.000021  0.000032  0.000069  0.000002
 13  -1684.94758573  -0.0000000199  0.000006  0.000026  0.000037  0.000001
                 **** Energy Check signals convergence ****
              ***Rediagonalizing the Fockian in SOSCF/NRSCF***

               *****************************************************
               *                     SUCCESS                       *
               *           SCF CONVERGED AFTER  14 CYCLES          *
               *****************************************************

Old exchange energy                            =    -55.842003881 Eh
New exchange energy                            =    -55.842017927 Eh
Exchange energy change after final integration =     -0.000014045 Eh
Total energy after final integration           =  -1684.947599778 Eh
Final COS-X integration done in                =     6.715 sec

----------------
TOTAL SCF ENERGY
----------------

Total Energy       :        -1684.94759978 Eh          -45849.75515 eV

Components:
Nuclear Repulsion  :          839.47333766 Eh           22843.23085 eV
Electronic Energy  :        -2524.42093744 Eh          -68692.98599 eV
One Electron Energy:        -4019.43598066 Eh         -109374.41352 eV
Two Electron Energy:         1495.01504322 Eh           40681.42753 eV
Max COSX asymmetry :            0.00000257 Eh               0.00007 eV

Virial components:
Potential Energy   :        -3364.77811065 Eh          -91560.26722 eV
Kinetic Energy     :         1679.83051087 Eh           45710.51208 eV
Virial Ratio       :            2.00304619


DFT components:
N(Alpha)           :       52.999999515698 electrons
N(Beta)            :       52.999999515698 electrons
N(Total)           :      105.999999031396 electrons
E(X)               :      -74.381604223848 Eh       
E(C)               :       -5.091933519390 Eh       
E(XC)              :      -79.473537743238 Eh       
DFET-embed. en.    :        0.000000000000 Eh       

---------------
SCF CONVERGENCE
---------------

  Last Energy change         ...    2.1455e-09  Tolerance :   1.0000e-08
  Last MAX-Density change    ...    3.9968e-15  Tolerance :   1.0000e-07
  Last RMS-Density change    ...    9.3436e-17  Tolerance :   5.0000e-09
  Last Orbital Gradient      ...    5.2854e-06  Tolerance :   1.0000e-05
  Last Orbital Rotation      ...    3.1210e-06  Tolerance :   1.0000e-05


================================================================================
MOs in valence range (operator=0) identified as core orbitals.
Correct this by swapping MOs
                           MOs 21 and 15
                           MOs 22 and 16
                                               done
================================================================================

             **** THE GBW FILE WAS UPDATED (pbeh-3c.gbw) ****
             **** DENSITY pbeh-3c.scfp WAS UPDATED ****
             **** ENERGY FILE WAS UPDATED (pbeh-3c.en.tmp) ****
             **** THE GBW FILE WAS UPDATED (pbeh-3c.gbw) ****
             **** DENSITY pbeh-3c.scfp WAS UPDATED ****
----------------
ORBITAL ENERGIES
----------------

  NO   OCC          E(Eh)            E(eV) 
   0   2.0000    -102.255344     -2782.5094 
   1   2.0000     -56.589343     -1539.8743 
   2   2.0000     -56.555004     -1538.9399 
   3   2.0000     -47.370938     -1289.0288 
   4   2.0000     -47.356545     -1288.6371 
   5   2.0000     -38.965154     -1060.2958 
   6   2.0000     -19.510019      -530.8946 
   7   2.0000     -19.480076      -530.0798 
   8   2.0000      -9.719840      -264.4903 
   9   2.0000      -7.403537      -201.4605 
  10   2.0000      -7.402275      -201.4261 
  11   2.0000      -7.401482      -201.4046 
  12   2.0000      -6.888256      -187.4390 
  13   2.0000      -4.319807      -117.5479 
  14   2.0000      -4.294805      -116.8676 
  15   2.0000      -2.784268       -75.7638 
  16   2.0000      -2.780395       -75.6584 
  17   2.0000      -2.810658       -76.4819 
  18   2.0000      -2.808581       -76.4254 
  19   2.0000      -2.807955       -76.4083 
  20   2.0000      -2.784683       -75.7751 
  21   2.0000      -3.322708       -90.4155 
  22   2.0000      -3.304520       -89.9206 
  23   2.0000      -2.403002       -65.3890 
  24   2.0000      -2.007094       -54.6158 
  25   2.0000      -2.005101       -54.5616 
  26   2.0000      -2.003721       -54.5240 
  27   2.0000      -1.988583       -54.1121 
  28   2.0000      -1.988085       -54.0986 
  29   2.0000      -1.987097       -54.0717 
  30   2.0000      -1.279273       -34.8108 
  31   2.0000      -1.277874       -34.7727 
  32   2.0000      -1.276147       -34.7257 
  33   2.0000      -1.098720       -29.8977 
  34   2.0000      -1.067999       -29.0617 
  35   2.0000      -0.848409       -23.0864 
  36   2.0000      -0.603019       -16.4090 
  37   2.0000      -0.556531       -15.1440 
  38   2.0000      -0.542331       -14.7576 
  39   2.0000      -0.460934       -12.5427 
  40   2.0000      -0.441414       -12.0115 
  41   2.0000      -0.424886       -11.5617 
  42   2.0000      -0.420972       -11.4552 
  43   2.0000      -0.403056       -10.9677 
  44   2.0000      -0.378240       -10.2924 
  45   2.0000      -0.374759       -10.1977 
  46   2.0000      -0.357029        -9.7153 
  47   2.0000      -0.351086        -9.5535 
  48   2.0000      -0.343482        -9.3466 
  49   2.0000      -0.330301        -8.9879 
  50   2.0000      -0.305323        -8.3083 
  51   2.0000      -0.215404        -5.8614 
  52   2.0000      -0.203144        -5.5278 
  53   0.0000      -0.048077        -1.3082 
  54   0.0000      -0.021097        -0.5741 
  55   0.0000       0.004853         0.1321 
  56   0.0000       0.025263         0.6875 
  57   0.0000       0.034719         0.9447 
  58   0.0000       0.041633         1.1329 
  59   0.0000       0.056768         1.5447 
  60   0.0000       0.064641         1.7590 
  61   0.0000       0.069863         1.9011 
  62   0.0000       0.074982         2.0404 
  63   0.0000       0.084033         2.2867 
  64   0.0000       0.086433         2.3520 
  65   0.0000       0.091648         2.4939 
  66   0.0000       0.102658         2.7935 
  67   0.0000       0.112371         3.0578 
  68   0.0000       0.124309         3.3826 
  69   0.0000       0.143983         3.9180 
  70   0.0000       0.150181         4.0866 
  71   0.0000       0.163820         4.4578 
  72   0.0000       0.173751         4.7280 
  73   0.0000       0.178475         4.8565 
  74   0.0000       0.191089         5.1998 
  75   0.0000       0.202057         5.4982 
  76   0.0000       0.208352         5.6696 
  77   0.0000       0.217849         5.9280 
  78   0.0000       0.229168         6.2360 
  79   0.0000       0.233704         6.3594 
  80   0.0000       0.245377         6.6771 
  81   0.0000       0.246791         6.7155 
  82   0.0000       0.265271         7.2184 
  83   0.0000       0.285443         7.7673 
  84   0.0000       0.287938         7.8352 
  85   0.0000       0.299691         8.1550 
  86   0.0000       0.307346         8.3633 
  87   0.0000       0.314382         8.5548 
  88   0.0000       0.329158         8.9569 
  89   0.0000       0.341182         9.2840 
  90   0.0000       0.345282         9.3956 
  91   0.0000       0.364307         9.9133 
  92   0.0000       0.376367        10.2415 
  93   0.0000       0.379778        10.3343 
  94   0.0000       0.389632        10.6024 
  95   0.0000       0.401137        10.9155 
  96   0.0000       0.410182        11.1616 
  97   0.0000       0.413932        11.2637 
  98   0.0000       0.426991        11.6190 
  99   0.0000       0.431040        11.7292 
 100   0.0000       0.443175        12.0594 
 101   0.0000       0.452299        12.3077 
 102   0.0000       0.485046        13.1988 
 103   0.0000       0.498965        13.5775 
 104   0.0000       0.510700        13.8969 
 105   0.0000       0.523795        14.2532 
 106   0.0000       0.533555        14.5188 
 107   0.0000       0.548324        14.9206 
 108   0.0000       0.574982        15.6461 
 109   0.0000       0.598186        16.2775 
 110   0.0000       0.608368        16.5545 
 111   0.0000       0.617156        16.7937 
 112   0.0000       0.647060        17.6074 
 113   0.0000       0.678454        18.4617 
 114   0.0000       0.698562        19.0088 
 115   0.0000       0.722959        19.6727 
 116   0.0000       0.750903        20.4331 
 117   0.0000       0.763045        20.7635 
 118   0.0000       0.826120        22.4799 
 119   0.0000       0.845982        23.0203 
 120   0.0000       0.863292        23.4914 
 121   0.0000       0.890093        24.2207 
 122   0.0000       0.900159        24.4946 
 123   0.0000       0.927541        25.2397 
 124   0.0000       0.944725        25.7073 
 125   0.0000       0.952202        25.9107 
 126   0.0000       0.956685        26.0327 
 127   0.0000       1.009584        27.4722 
 128   0.0000       1.054473        28.6937 
 129   0.0000       1.064255        28.9598 
 130   0.0000       1.120846        30.4998 
 131   0.0000       1.166751        31.7489 
 132   0.0000       1.186939        32.2983 
 133   0.0000       1.233563        33.5669 
 134   0.0000       1.240553        33.7572 
 135   0.0000       1.266987        34.4765 
 136   0.0000       1.272143        34.6168 
 137   0.0000       1.303016        35.4569 
 138   0.0000       1.318042        35.8658 
 139   0.0000       1.344853        36.5953 
 140   0.0000       1.349831        36.7308 
 141   0.0000       1.366978        37.1974 
 142   0.0000       1.403614        38.1943 
 143   0.0000       1.455838        39.6154 
 144   0.0000       1.835115        49.9360 
 145   0.0000       1.856544        50.5191 
 146   0.0000       1.881624        51.2016 
 147   0.0000       1.885921        51.3185 
 148   0.0000       1.928057        52.4651 
 149   0.0000       1.944069        52.9008 
 150   0.0000       1.965999        53.4975 
 151   0.0000       1.999232        54.4019 
 152   0.0000       2.013667        54.7947 
 153   0.0000       2.032324        55.3024 
 154   0.0000       2.078884        56.5693 
 155   0.0000       2.161907        58.8285 
 156   0.0000       2.307266        62.7839 
 157   0.0000       2.402331        65.3707 
 158   0.0000       2.545864        69.2765 
 159   0.0000       2.563888        69.7669 
 160   0.0000       2.591718        70.5242 
 161   0.0000       9.332786       253.9580 
 162   0.0000      25.447890       692.4723 
 163   0.0000      25.528645       694.6697 

                    ********************************
                    * MULLIKEN POPULATION ANALYSIS *
                    ********************************

-----------------------
MULLIKEN ATOMIC CHARGES
-----------------------
   0 Na:    0.599531
   1 H :    0.061274
   2 O :   -0.844872
   3 H :    0.460411
   4 Mg:    0.183147
   5 H :   -0.083809
   6 Al:    0.823242
   7 H :    0.133519
   8 H :   -0.156615
   9 Mg:    0.525686
  10 O :   -0.860960
  11 Cl:   -0.417102
  12 Al:    0.293079
  13 H :    0.446493
  14 H :   -0.180187
  15 B :   -0.982837
Sum of atomic charges:   -0.0000000

--------------------------------
MULLIKEN REDUCED ORBITAL CHARGES
--------------------------------
  0 Nas       :     4.185560  s :     4.185560
      pz      :     2.056653  p :     6.132273
      px      :     2.054911
      py      :     2.020708
      dz2     :     0.029233  d :     0.082635
      dxz     :     0.018974
      dyz     :     0.010805
      dx2y2   :     0.007507
      dxy     :     0.016116
  1 H s       :     0.938726  s :     0.938726
  2 O s       :     3.814740  s :     3.814740
      pz      :     1.510037  p :     5.017151
      px      :     1.802895
      py      :     1.704218
      dz2     :     0.007400  d :     0.012981
      dxz     :     0.001758
      dyz     :     0.002043
      dx2y2   :     0.000765
      dxy     :     0.001014
  3 H s       :     0.539589  s :     0.539589
  4 Mgs       :     4.807366  s :     4.807366
      pz      :     2.365181  p :     6.738086
      px      :     2.271289
      py      :     2.101616
      dz2     :     0.083650  d :     0.271401
      dxz     :     0.052982
      dyz     :     0.032031
      dx2y2   :     0.066662
      dxy     :     0.036076
  5 H s       :     1.083809  s :     1.083809
  6 Als       :     4.765322  s :     4.765322
      pz      :     2.390127  p :     7.173561
      px      :     2.485361
      py      :     2.298073
      dz2     :     0.056926  d :     0.237874
      dxz     :     0.027538
      dyz     :     0.044754
      dx2y2   :     0.050708
      dxy     :     0.057949
  7 H s       :     0.866481  s :     0.866481
  8 H s       :     1.156615  s :     1.156615
  9 Mgs       :     4.557755  s :     4.557755
      pz      :     2.229199  p :     6.540145
      px      :     2.151668
      py      :     2.159279
      dz2     :     0.107296  d :     0.376414
      dxz     :     0.055839
      dyz     :     0.049739
      dx2y2   :     0.071986
      dxy     :     0.091556
 10 O s       :     3.816209  s :     3.816209
      pz      :     1.679825  p :     5.033744
      px      :     1.530163
      py      :     1.823756
      dz2     :     0.001607  d :     0.011007
      dxz     :     0.003295
      dyz     :     0.000464
      dx2y2   :     0.004449
      dxy     :     0.001192
 11 Cls       :     5.937288  s :     5.937288
      pz      :     3.847097  p :    11.474644
      px      :     3.842994
      py      :     3.784552
      dz2     :     0.000851  d :     0.005170
      dxz     :     0.001623
      dyz     :     0.001050
      dx2y2   :     0.000489
      dxy     :     0.001158
 12 Als       :     4.992401  s :     4.992401
      pz      :     2.530339  p :     7.589491
      px      :     2.379397
      py      :     2.679754
      dz2     :     0.019919  d :     0.125029
      dxz     :     0.038088
      dyz     :     0.044591
      dx2y2   :     0.010810
      dxy     :     0.011621
 13 H s       :     0.553507  s :     0.553507
 14 H s       :     1.180187  s :     1.180187
 15 B s       :     3.146864  s :     3.146864
      pz      :     1.066167  p :     2.822572
      px      :     0.886533
      py      :     0.869873
      dz2     :     0.001268  d :     0.013401
      dxz     :     0.003798
      dyz     :     0.004257
      dx2y2   :     0.000830
      dxy     :     0.003248


                     *******************************
                     * LOEWDIN POPULATION ANALYSIS *
                     *******************************

----------------------
LOEWDIN ATOMIC CHARGES
----------------------
   0 Na:    0.175695
   1 H :    0.162954
   2 O :   -0.408686
   3 H :    0.357625
   4 Mg:   -0.109327
   5 H :   -0.063227
   6 Al:    0.375926
   7 H :    0.093160
   8 H :    0.028437
   9 Mg:   -0.371287
  10 O :   -0.317034
  11 Cl:    0.133443
  12 Al:    0.099381
  13 H :    0.337161
  14 H :    0.042187
  15 B :   -0.536408

-------------------------------
LOEWDIN REDUCED ORBITAL CHARGES
-------------------------------
  0 Nas       :     4.153467  s :     4.153467
      pz      :     2.113341  p :     6.285047
      px      :     2.089615
      py      :     2.082091
      dz2     :     0.110846  d :     0.385791
      dxz     :     0.074996
      dyz     :     0.078513
      dx2y2   :     0.043589
      dxy     :     0.077847
  1 H s       :     0.837046  s :     0.837046
  2 O s       :     3.476540  s :     3.476540
      pz      :     1.477047  p :     4.913720
      px      :     1.770522
      py      :     1.666151
      dz2     :     0.010276  d :     0.018426
      dxz     :     0.002607
      dyz     :     0.003166
      dx2y2   :     0.000962
      dxy     :     0.001415
  3 H s       :     0.642375  s :     0.642375
  4 Mgs       :     4.495552  s :     4.495552
      pz      :     2.481516  p :     7.009962
      px      :     2.360357
      py      :     2.168089
      dz2     :     0.170573  d :     0.603813
      dxz     :     0.114525
      dyz     :     0.086177
      dx2y2   :     0.131760
      dxy     :     0.100777
  5 H s       :     1.063227  s :     1.063227
  6 Als       :     4.615747  s :     4.615747
      pz      :     2.488879  p :     7.518734
      px      :     2.559324
      py      :     2.470531
      dz2     :     0.135061  d :     0.489593
      dxz     :     0.056334
      dyz     :     0.084899
      dx2y2   :     0.092309
      dxy     :     0.120989
  7 H s       :     0.906840  s :     0.906840
  8 H s       :     0.971563  s :     0.971563
  9 Mgs       :     4.404786  s :     4.404786
      pz      :     2.378232  p :     7.040538
      px      :     2.299119
      py      :     2.363187
      dz2     :     0.225421  d :     0.925963
      dxz     :     0.155550
      dyz     :     0.165550
      dx2y2   :     0.154519
      dxy     :     0.224924
 10 O s       :     3.447129  s :     3.447129
      pz      :     1.616952  p :     4.853140
      px      :     1.475371
      py      :     1.760817
      dz2     :     0.002730  d :     0.016766
      dxz     :     0.005253
      dyz     :     0.000881
      dx2y2   :     0.005987
      dxy     :     0.001915
 11 Cls       :     5.633655  s :     5.633655
      pz      :     3.764406  p :    11.229028
      px      :     3.772032
      py      :     3.692590
      dz2     :     0.000513  d :     0.003874
      dxz     :     0.001232
      dyz     :     0.000854
      dx2y2   :     0.000279
      dxy     :     0.000996
 12 Als       :     4.821097  s :     4.821097
      pz      :     2.632854  p :     7.891473
      px      :     2.464063
      py      :     2.794556
      dz2     :     0.027090  d :     0.188049
      dxz     :     0.058244
      dyz     :     0.067926
      dx2y2   :     0.017158
      dxy     :     0.017630
 13 H s       :     0.662839  s :     0.662839
 14 H s       :     0.957813  s :     0.957813
 15 B s       :     2.696060  s :     2.696060
      pz      :     0.969308  p :     2.817020
      px      :     0.924726
      py      :     0.922986
      dz2     :     0.002425  d :     0.023329
      dxz     :     0.006435
      dyz     :     0.006626
      dx2y2   :     0.001224
      dxy     :     0.006619


                      *****************************
                      * MAYER POPULATION ANALYSIS *
                      *****************************

  NA   - Mulliken gross atomic population
  ZA   - Total nuclear charge
  QA   - Mulliken gross atomic charge
  VA   - Mayer's total valence
  BVA  - Mayer's bonded valence
  FA   - Mayer's free valence

  ATOM       NA         ZA         QA         VA         BVA        FA
  0 Na    10.4005    11.0000     0.5995     0.7732     0.7732    -0.0000
  1 H      0.9387     1.0000     0.0613     0.9622     0.9622     0.0000
  2 O      8.8449     8.0000    -0.8449     1.8080     1.8080    -0.0000
  3 H      0.5396     1.0000     0.4604     0.7686     0.7686    -0.0000
  4 Mg    11.8169    12.0000     0.1831     2.6405     2.6405    -0.0000
  5 H      1.0838     1.0000    -0.0838     0.9870     0.9870     0.0000
  6 Al    12.1768    13.0000     0.8232     2.9106     2.9106     0.0000
  7 H      0.8665     1.0000     0.1335     0.9763     0.9763    -0.0000
  8 H      1.1566     1.0000    -0.1566     0.9549     0.9549    -0.0000
  9 Mg    11.4743    12.0000     0.5257     2.4384     2.4384    -0.0000
 10 O      8.8610     8.0000    -0.8610     1.7889     1.7889    -0.0000
 11 Cl    17.4171    17.0000    -0.4171     1.0520     1.0520    -0.0000
 12 Al    12.7069    13.0000     0.2931     3.1569     3.1569     0.0000
 13 H      0.5535     1.0000     0.4465     0.7779     0.7779     0.0000
 14 H      1.1802     1.0000    -0.1802     0.9586     0.9586    -0.0000
 15 B      5.9828     5.0000    -0.9828     3.7392     3.7392    -0.0000

  Mayer bond orders larger than 0.100000
B(  0-Na,  2-O ) :   0.2322 B(  0-Na, 10-O ) :   0.1299 B(  0-Na, 11-Cl) :   0.2990 
B(  1-H ,  4-Mg) :   0.1139 B(  1-H , 15-B ) :   0.7170 B(  2-O ,  6-Al) :   0.8115 
B(  2-O , 13-H ) :   0.7578 B(  3-H , 10-O ) :   0.7416 B(  4-Mg,  8-H ) :   0.4919 
B(  4-Mg,  9-Mg) :   0.2157 B(  4-Mg, 12-Al) :   0.4010 B(  4-Mg, 14-H ) :   0.5720 
B(  4-Mg, 15-B ) :   0.7305 B(  5-H , 12-Al) :   0.9511 B(  6-Al, 10-O ) :   0.5182 
B(  6-Al, 12-Al) :   0.8883 B(  6-Al, 15-B ) :   0.4185 B(  7-H , 15-B ) :   0.9274 
B(  8-H , 12-Al) :   0.4329 B(  9-Mg, 10-O ) :   0.3800 B(  9-Mg, 11-Cl) :   0.7546 
B(  9-Mg, 14-H ) :   0.3924 B(  9-Mg, 15-B ) :   0.5056 B( 12-Al, 15-B ) :   0.3976 


-------
TIMINGS
-------

Total SCF time: 0 days 0 hours 2 min 48 sec 

Total time                  ....     168.312 sec
Sum of individual times     ....     160.009 sec  ( 95.1%)

Fock matrix formation       ....     132.407 sec  ( 78.7%)
  Split-RI-J                ....      14.676 sec  ( 11.1% of F)
  Chain of spheres X        ....      68.113 sec  ( 51.4% of F)
  XC integration            ....      27.772 sec  ( 21.0% of F)
    Basis function eval.    ....       6.011 sec  ( 21.6% of XC)
    Density eval.           ....       3.820 sec  ( 13.8% of XC)
    XC-Functional eval.     ....       2.072 sec  (  7.5% of XC)
    XC-Potential eval.      ....       3.248 sec  ( 11.7% of XC)
Diagonalization             ....       3.664 sec  (  2.2%)
Density matrix formation    ....       0.288 sec  (  0.2%)
Population analysis         ....       1.209 sec  (  0.7%)
Initial guess               ....       0.196 sec  (  0.1%)
Orbital Transformation      ....       0.000 sec  (  0.0%)
Orbital Orthonormalization  ....       0.000 sec  (  0.0%)
DIIS solution               ....       5.418 sec  (  3.2%)
SOSCF solution              ....       2.340 sec  (  1.4%)
Grid generation             ....      14.487 sec  (  8.6%)

Maximum memory used throughout the entire SCF-calculation: 58.3 MB


-------------------------------------------------------------------------------
                          DFT DISPERSION CORRECTION                            
                                                                               
                              DFTD3 V3.1  Rev 1                                
                          USING Becke-Johnson damping                          
-------------------------------------------------------------------------------
The PBEh-3c composite method is recognized
Using three-body term ABC
Active option DFTDOPT                   ...         4   

molecular C6(AA) [au] = 9277.158586 


            DFT-D V3
 parameters
 s6 scaling factor         :     1.0000 
 a1 scaling factor         :     0.4860 
 s8 scaling factor         :     0.0000 
 a2 scaling factor         :     4.5000 
 Damping factor alpha9(ATM):    16.0000 
 ad hoc parameters k1-k3   :    16.0000     1.3333    -4.0000 

 Edisp/kcal,au: -6.275641248619  -0.010000869849 
 E6   /kcal   :  -6.330026703 
 E8   /kcal   :  -0.000000000 
 E6(ABC)      :   0.054385454 
 % E8         :   0.000000000 
 % E6(ABC)    :  -0.866611903 

-------------------------   ----------------
Dispersion correction           -0.010000870
-------------------------   ----------------

------------------   -----------------
gCP correction             0.032779544
------------------   -----------------

-------------------------   --------------------
FINAL SINGLE POINT ENERGY     -1684.924821103570
-------------------------   --------------------


                            ***************************************
                            *     ORCA property calculations      *
                            ***************************************

                                    ---------------------
                                    Active property flags
                                    ---------------------
   (+) Dipole Moment


------------------------------------------------------------------------------
                       ORCA ELECTRIC PROPERTIES CALCULATION
------------------------------------------------------------------------------

Dipole Moment Calculation                       ... on
Quadrupole Moment Calculation                   ... off
Polarizability Calculation                      ... off
GBWName                                         ... pbeh-3c.gbw
Electron density                                ... pbeh-3c.scfp
The origin for moment calculation is the CENTER OF MASS  = (-0.555015,  0.652667  1.008366)

-------------
DIPOLE MOMENT
-------------
                                X             Y             Z
Electronic contribution:     -5.20796       7.45201       8.27823
Nuclear contribution   :      5.52579      -6.06270      -6.94557
                        -----------------------------------------
Total Dipole Moment    :      0.31782       1.38931       1.33265
                        -----------------------------------------
Magnitude (a.u.)       :      1.95120
Magnitude (Debye)      :      4.95955



--------------------
Rotational spectrum 
--------------------
 
Rotational constants in cm-1:     0.037172     0.017926     0.013429 
Rotational constants in MHz :  1114.373864   537.410432   402.584048 

 Dipole components along the rotational axes: 
x,y,z [a.u.] :     1.453334     0.517838    -1.194502 
x,y,z [Debye]:     3.694081     1.316239    -3.036184 

 

Timings for individual modules:

Sum of individual times         ...      172.337 sec (=   2.872 min)
GTO integral calculation        ...        3.032 sec (=   0.051 min)   1.8 %
SCF iterations                  ...      169.305 sec (=   2.822 min)  98.2 %
                             ****ORCA TERMINATED NORMALLY****
TOTAL RUN TIME: 0 days 0 hours 2 minutes 55 seconds 213 msec
