
                                 *****************
                                 * O   R   C   A *
                                 *****************

                                            #,                                       
                                            ###                                      
                                            ####                                     
                                            #####                                    
                                            ######                                   
                                           ########,                                 
                                     ,,################,,,,,                         
                               ,,#################################,,                 
                          ,,##########################################,,             
                       ,#########################################, ''#####,          
                    ,#############################################,,   '####,        
                  ,##################################################,,,,####,       
                ,###########''''           ''''###############################       
              ,#####''   ,,,,##########,,,,          '''####'''          '####       
            ,##' ,,,,###########################,,,                        '##       
           ' ,,###''''                  '''############,,,                           
         ,,##''                                '''############,,,,        ,,,,,,###''
      ,#''                                            '''#######################'''  
     '                                                          ''''####''''         
             ,#######,   #######,   ,#######,      ##                                
            ,#'     '#,  ##    ##  ,#'     '#,    #''#        ######   ,####,        
            ##       ##  ##   ,#'  ##            #'  '#       #        #'  '#        
            ##       ##  #######   ##           ,######,      #####,   #    #        
            '#,     ,#'  ##    ##  '#,     ,#' ,#      #,         ##   #,  ,#        
             '#######'   ##     ##  '#######'  #'      '#     #####' # '####'        



                  #######################################################
                  #                        -***-                        #
                  #          Department of theory and spectroscopy      #
                  #    Directorship and core code : Frank Neese         #
                  #        Max Planck Institute fuer Kohlenforschung    #
                  #                Kaiser Wilhelm Platz 1               #
                  #                 D-45470 Muelheim/Ruhr               #
                  #                      Germany                        #
                  #                                                     #
                  #                  All rights reserved                #
                  #                        -***-                        #
                  #######################################################


                         Program Version 5.0.3 -  RELEASE  -


 With contributions from (in alphabetic order):
   Daniel Aravena         : Magnetic Suceptibility
   Michael Atanasov       : Ab Initio Ligand Field Theory (pilot matlab implementation)
   Alexander A. Auer      : GIAO ZORA, VPT2 properties, NMR spectrum
   Ute Becker             : Parallelization
   Giovanni Bistoni       : ED, misc. LED, open-shell LED, HFLD
   Martin Brehm           : Molecular dynamics
   Dmytro Bykov           : SCF Hessian
   Vijay G. Chilkuri      : MRCI spin determinant printing, contributions to CSF-ICE
   Dipayan Datta          : RHF DLPNO-CCSD density
   Achintya Kumar Dutta   : EOM-CC, STEOM-CC
   Dmitry Ganyushin       : Spin-Orbit,Spin-Spin,Magnetic field MRCI
   Miquel Garcia          : C-PCM and meta-GGA Hessian, CC/C-PCM, Gaussian charge scheme
   Yang Guo               : DLPNO-NEVPT2, F12-NEVPT2, CIM, IAO-localization
   Andreas Hansen         : Spin unrestricted coupled pair/coupled cluster methods
   Benjamin Helmich-Paris : MC-RPA, TRAH-SCF, COSX integrals
   Lee Huntington         : MR-EOM, pCC
   Robert Izsak           : Overlap fitted RIJCOSX, COSX-SCS-MP3, EOM
   Marcus Kettner         : VPT2
   Christian Kollmar      : KDIIS, OOCD, Brueckner-CCSD(T), CCSD density, CASPT2, CASPT2-K
   Simone Kossmann        : Meta GGA functionals, TD-DFT gradient, OOMP2, MP2 Hessian
   Martin Krupicka        : Initial AUTO-CI
   Lucas Lang             : DCDCAS
   Marvin Lechner         : AUTO-CI (C++ implementation), FIC-MRCC
   Dagmar Lenk            : GEPOL surface, SMD
   Dimitrios Liakos       : Extrapolation schemes; Compound Job, initial MDCI parallelization
   Dimitrios Manganas     : Further ROCIS development; embedding schemes
   Dimitrios Pantazis     : SARC Basis sets
   Anastasios Papadopoulos: AUTO-CI, single reference methods and gradients
   Taras Petrenko         : DFT Hessian,TD-DFT gradient, ASA, ECA, R-Raman, ABS, FL, XAS/XES, NRVS
   Peter Pinski           : DLPNO-MP2, DLPNO-MP2 Gradient
   Christoph Reimann      : Effective Core Potentials
   Marius Retegan         : Local ZFS, SOC
   Christoph Riplinger    : Optimizer, TS searches, QM/MM, DLPNO-CCSD(T), (RO)-DLPNO pert. Triples
   Tobias Risthaus        : Range-separated hybrids, TD-DFT gradient, RPA, STAB
   Michael Roemelt        : Original ROCIS implementation
   Masaaki Saitow         : Open-shell DLPNO-CCSD energy and density
   Barbara Sandhoefer     : DKH picture change effects
   Avijit Sen             : IP-ROCIS
   Kantharuban Sivalingam : CASSCF convergence, NEVPT2, FIC-MRCI
   Bernardo de Souza      : ESD, SOC TD-DFT
   Georgi Stoychev        : AutoAux, RI-MP2 NMR, DLPNO-MP2 response
   Willem Van den Heuvel  : Paramagnetic NMR
   Boris Wezisla          : Elementary symmetry handling
   Frank Wennmohs         : Technical directorship


 We gratefully acknowledge several colleagues who have allowed us to
 interface, adapt or use parts of their codes:
   Stefan Grimme, W. Hujo, H. Kruse, P. Pracht,  : VdW corrections, initial TS optimization,
                  C. Bannwarth, S. Ehlert          DFT functionals, gCP, sTDA/sTD-DF
   Ed Valeev, F. Pavosevic, A. Kumar             : LibInt (2-el integral package), F12 methods
   Garnet Chan, S. Sharma, J. Yang, R. Olivares  : DMRG
   Ulf Ekstrom                                   : XCFun DFT Library
   Mihaly Kallay                                 : mrcc  (arbitrary order and MRCC methods)
   Jiri Pittner, Ondrej Demel                    : Mk-CCSD
   Frank Weinhold                                : gennbo (NPA and NBO analysis)
   Christopher J. Cramer and Donald G. Truhlar   : smd solvation model
   Lars Goerigk                                  : TD-DFT with DH, B97 family of functionals
   V. Asgeirsson, H. Jonsson                     : NEB implementation
   FAccTs GmbH                                   : IRC, NEB, NEB-TS, DLPNO-Multilevel, CI-OPT
                                                   MM, QMMM, 2- and 3-layer-ONIOM, Crystal-QMMM,
                                                   LR-CPCM, SF, NACMEs, symmetry and pop. for TD-DFT,
                                                   nearIR, NL-DFT gradient (VV10), updates on ESD,
                                                   ML-optimized integration grids
   S Lehtola, MJT Oliveira, MAL Marques          : LibXC Library
   Liviu Ungur et al                             : ANISO software


 Your calculation uses the libint2 library for the computation of 2-el integrals
 For citations please refer to: http://libint.valeyev.net

 Your ORCA version has been built with support for libXC version: 5.1.0
 For citations please refer to: https://tddft.org/programs/libxc/

 This ORCA versions uses:
   CBLAS   interface :  Fast vector & matrix operations
   LAPACKE interface :  Fast linear algebra routines
   SCALAPACK package :  Parallel linear algebra routines
   Shared memory     :  Shared parallel matrices
   BLAS/LAPACK       :  OpenBLAS 0.3.15  USE64BITINT DYNAMIC_ARCH NO_AFFINITY Haswell SINGLE_THREADED
        Core in use  :  Haswell
   Copyright (c) 2011-2014, The OpenBLAS Project




***************************************
The coordinates will be read from file: 231B.xyz
***************************************


Your calculation utilizes the geometrical counterpoise correction gCP
Please cite in your paper:
H.Kruse, S. Grimme J.Chem.Phys., 136, (2012), 154101 
   

Your calculation utilizes the atom-pairwise dispersion correction
with the Becke-Johnson damping scheme (D3BJ)
Cite in your paper:
S.Grimme, S.Ehrlich, L.Goerigk, J Comput Chem, (2011), 32, 1456–1465 
S.Grimme, J.Antony, S.Ehrlich and H.Krieg, J.Chem.Phys., 132, (2010), 154104 
   

Your calculation employs the composite approach PBEh-3c.
Please cite in your paper:
S. Grimme, J. G. Brandenburg, C. Bannwarth, A. Hansen J.Chem.Phys., 143, (2015), 054107 
   

================================================================================

----- Orbital basis set information -----
Your calculation utilizes the basis: def2-mSVP

----- AuxJ basis set information -----
Your calculation utilizes the auxiliary basis: def2/J
   F. Weigend, Phys. Chem. Chem. Phys. 8, 1057 (2006).

================================================================================
                                        WARNINGS
                       Please study these warnings very carefully!
================================================================================


INFO   : the flag for use of the SHARK integral package has been found!

================================================================================
                                       INPUT FILE
================================================================================
NAME = pbeh-3c.inp
|  1> ! PBEh-3c def2/J TightSCF DefGrid3
|  2> 
|  3> %maxcore 60000
|  4> 
|  5> %pal
|  6> nprocs 4
|  7> end
|  8> 
|  9> *xyzfile -1 1 231B.xyz
| 10> 
| 11>                          ****END OF INPUT****
================================================================================

                       ****************************
                       * Single Point Calculation *
                       ****************************

---------------------------------
CARTESIAN COORDINATES (ANGSTROEM)
---------------------------------
  O      2.198290   -0.031840   -1.736150
  S      1.200240    0.007910   -2.856600
  C      2.282350    0.025370   -4.416500
  O      0.391490   -1.221350   -2.943300
  O      0.430300    1.264680   -2.884900
  F      1.501610    0.023040   -5.524560
  F      3.065340    1.132530   -4.442500
  F      3.081680   -1.069640   -4.447640

----------------------------
CARTESIAN COORDINATES (A.U.)
----------------------------
  NO LB      ZA    FRAG     MASS         X           Y           Z
   0 O     8.0000    0    15.999    4.154166   -0.060169   -3.280848
   1 S    16.0000    0    32.060    2.268125    0.014948   -5.398191
   2 C     6.0000    0    12.011    4.313016    0.047942   -8.345975
   3 O     8.0000    0    15.999    0.739809   -2.308017   -5.562031
   4 O     8.0000    0    15.999    0.813149    2.389899   -5.451671
   5 F     9.0000    0    18.998    2.837631    0.043539  -10.439905
   6 F     9.0000    0    18.998    5.792653    2.140171   -8.395108
   7 F     9.0000    0    18.998    5.823531   -2.021326   -8.404821

--------------------------------
INTERNAL COORDINATES (ANGSTROEM)
--------------------------------
 O      0   0   0     0.000000000000     0.00000000     0.00000000
 S      1   0   0     1.501030194167     0.00000000     0.00000000
 C      2   1   0     1.898566402657   103.56638402     0.00000000
 O      2   1   3     1.473999047658   112.74573390   113.86880702
 O      2   1   3     1.474136669769   112.59339289   246.05920016
 F      3   2   1     1.355491409910   110.08033630   178.26859663
 F      3   2   1     1.356300993242   110.62775976   298.24627872
 F      3   2   1     1.356076999878   110.32842908    58.39863698

---------------------------
INTERNAL COORDINATES (A.U.)
---------------------------
 O      0   0   0     0.000000000000     0.00000000     0.00000000
 S      1   0   0     2.836535985722     0.00000000     0.00000000
 C      2   1   0     3.587770548086   103.56638402     0.00000000
 O      2   1   3     2.785454521735   112.74573390   113.86880702
 O      2   1   3     2.785714589834   112.59339289   246.05920016
 F      3   2   1     2.561507541613   110.08033630   178.26859663
 F      3   2   1     2.563037432392   110.62775976   298.24627872
 F      3   2   1     2.562614146279   110.32842908    58.39863698

---------------------
BASIS SET INFORMATION
---------------------
There are 4 groups of distinct atoms

 Group   1 Type O   : 8s4p1d contracted to 4s2p1d pattern {5111/31/1}
 Group   2 Type S   : 10s7p1d contracted to 4s3p1d pattern {5311/511/1}
 Group   3 Type C   : 8s4p1d contracted to 4s2p1d pattern {5111/31/1}
 Group   4 Type F   : 8s4p1d contracted to 4s2p1d pattern {5111/31/1}

Atom   0O    basis set group =>   1
Atom   1S    basis set group =>   2
Atom   2C    basis set group =>   3
Atom   3O    basis set group =>   1
Atom   4O    basis set group =>   1
Atom   5F    basis set group =>   4
Atom   6F    basis set group =>   4
Atom   7F    basis set group =>   4
---------------------------------
AUXILIARY/J BASIS SET INFORMATION
---------------------------------
There are 4 groups of distinct atoms

 Group   1 Type O   : 12s5p4d2f1g contracted to 6s4p3d1f1g pattern {711111/2111/211/2/1}
 Group   2 Type S   : 14s5p5d2f1g contracted to 8s4p3d1f1g pattern {71111111/2111/311/2/1}
 Group   3 Type C   : 12s5p4d2f1g contracted to 6s4p3d1f1g pattern {711111/2111/211/2/1}
 Group   4 Type F   : 12s5p4d2f1g contracted to 6s4p3d1f1g pattern {711111/2111/211/2/1}

Atom   0O    basis set group =>   1
Atom   1S    basis set group =>   2
Atom   2C    basis set group =>   3
Atom   3O    basis set group =>   1
Atom   4O    basis set group =>   1
Atom   5F    basis set group =>   4
Atom   6F    basis set group =>   4
Atom   7F    basis set group =>   4


           ************************************************************
           *        Program running with 4 parallel MPI-processes     *
           *              working on a common directory               *
           ************************************************************
------------------------------------------------------------------------------
                           ORCA GTO INTEGRAL CALCULATION
                           -- RI-GTO INTEGRALS CHOSEN --
------------------------------------------------------------------------------
------------------------------------------------------------------------------
                   ___                                                        
                  /   \      - P O W E R E D   B Y -                         
                 /     \                                                     
                 |  |  |   _    _      __       _____    __    __             
                 |  |  |  | |  | |    /  \     |  _  \  |  |  /  |          
                  \  \/   | |  | |   /    \    | | | |  |  | /  /          
                 / \  \   | |__| |  /  /\  \   | |_| |  |  |/  /          
                |  |  |   |  __  | /  /__\  \  |    /   |      \           
                |  |  |   | |  | | |   __   |  |    \   |  |\   \          
                \     /   | |  | | |  |  |  |  | |\  \  |  | \   \       
                 \___/    |_|  |_| |__|  |__|  |_| \__\ |__|  \__/        
                                                                              
                      - O R C A' S   B I G   F R I E N D -                    
                                      &                                       
                       - I N T E G R A L  F E E D E R -                       
                                                                              
 v1 FN, 2020, v2 2021                                                         
------------------------------------------------------------------------------


Reading SHARK input file pbeh-3c.SHARKINP.tmp ... ok
----------------------
SHARK INTEGRAL PACKAGE
----------------------

Number of atoms                             ...      8
Number of basis functions                   ...    123
Number of shells                            ...     57
Maximum angular momentum                    ...      2
Integral batch strategy                     ... SHARK/LIBINT Hybrid
RI-J (if used) integral strategy            ... SPLIT-RIJ (Revised 2003 algorithm where possible)
Printlevel                                  ...      1
Contraction scheme used                     ... SEGMENTED contraction
Coulomb Range Separation                    ... NOT USED
Exchange Range Separation                   ... NOT USED
Finite Nucleus Model                        ... NOT USED
Auxiliary Coulomb fitting basis             ... AVAILABLE
   # of basis functions in Aux-J            ...    394
   # of shells in Aux-J                     ...    122
   Maximum angular momentum in Aux-J        ...      4
Auxiliary J/K fitting basis                 ... NOT available
Auxiliary Correlation fitting basis         ... NOT available
Auxiliary 'external' fitting basis          ... NOT available
Integral threshold                          ...     2.500000e-11
Primitive cut-off                           ...     2.500000e-12
Primitive pair pre-selection threshold      ...     2.500000e-12

Calculating pre-screening integrals         ... done (  0.1 sec) Dimension = 57
Organizing shell pair data                  ... done (  0.3 sec)
Shell pair information
Total number of shell pairs                 ...      1653
Shell pairs after pre-screening             ...      1450
Total number of primitive shell pairs       ...      6109
Primitive shell pairs kept                  ...      3822
          la=0 lb=0:    385 shell pairs
          la=1 lb=0:    493 shell pairs
          la=1 lb=1:    150 shell pairs
          la=2 lb=0:    250 shell pairs
          la=2 lb=1:    136 shell pairs
          la=2 lb=2:     36 shell pairs

Calculating one electron integrals          ... done (  0.0 sec)
Calculating RI/J V-Matrix + Cholesky decomp.... done (  0.7 sec)
Calculating Nuclear repulsion               ... done (  0.0 sec) ENN=    543.652617636160 Eh

SHARK setup successfully completed in   2.4 seconds

Maximum memory used throughout the entire GTOINT-calculation: 10.2 MB


           ************************************************************
           *        Program running with 4 parallel MPI-processes     *
           *              working on a common directory               *
           ************************************************************
-------------------------------------------------------------------------------
                                 ORCA SCF
-------------------------------------------------------------------------------

------------
SCF SETTINGS
------------
Hamiltonian:
 Density Functional     Method          .... DFT(GTOs)
 Exchange Functional    Exchange        .... PBE
   PBE kappa parameter   XKappa         ....  1.024500
   PBE mue parameter    XMuePBE         ....  0.123457
 Correlation Functional Correlation     .... PBE
   PBE beta parameter  CBetaPBE         ....  0.030000
 LDA part of GGA corr.  LDAOpt          .... PW91-LDA
 Gradients option       PostSCFGGA      .... off
 Hybrid DFT is turned on
   Fraction HF Exchange ScalHFX         ....  0.420000
   Scaling of DF-GGA-X  ScalDFX         ....  0.580000
   Scaling of DF-GGA-C  ScalDFC         ....  1.000000
   Scaling of DF-LDA-C  ScalLDAC        ....  1.000000
   Perturbative correction              ....  0.000000
   Density functional embedding theory  .... OFF
 RI-approximation to the Coulomb term is turned on
   Number of AuxJ basis functions       .... 394
   RIJ-ON(X) (HFX calculated with O(N)) .... on
   Number of AuxJ basis functions       .... 394
   RIJ-COSX (HFX calculated with COS-X)).... on


General Settings:
 Integral files         IntName         .... pbeh-3c
 Hartree-Fock type      HFTyp           .... RHF
 Total Charge           Charge          ....   -1
 Multiplicity           Mult            ....    1
 Number of Electrons    NEL             ....   74
 Basis Dimension        Dim             ....  123
 Nuclear Repulsion      ENuc            ....    543.6526176362 Eh

Convergence Acceleration:
 DIIS                   CNVDIIS         .... on
   Start iteration      DIISMaxIt       ....    12
   Startup error        DIISStart       ....  0.200000
   # of expansion vecs  DIISMaxEq       ....     5
   Bias factor          DIISBfac        ....   1.050
   Max. coefficient     DIISMaxC        ....  10.000
 Trust-Rad. Augm. Hess. CNVTRAH         .... auto
   Auto Start mean grad. ratio tolernc. ....  1.125000
   Auto Start start iteration           ....    20
   Auto Start num. interpolation iter.  ....    10
   Max. Number of Micro iterations      ....    16
   Max. Number of Macro iterations      .... Maxiter - #DIIS iter
   Number of Davidson start vectors     ....     2
   Converg. threshold I  (grad. norm)   ....   1.000e-05
   Converg. threshold II (energy diff.) ....   1.000e-08
   Grad. Scal. Fac. for Micro threshold ....   0.100
   Minimum threshold for Micro iter.    ....   0.010
   NR start threshold (gradient norm)   ....   0.001
   Initial trust radius                 ....   0.400
   Minimum AH scaling param. (alpha)    ....   1.000
   Maximum AH scaling param. (alpha)    .... 1000.000
   Orbital update algorithm             .... Taylor
   White noise on init. David. guess    .... on
   Maximum white noise                  ....   0.010
   Quad. conv. algorithm                .... NR
   COSX micro iterations for RIJONX calc.... off
 SOSCF                  CNVSOSCF        .... on
   Start iteration      SOSCFMaxIt      ....   150
   Startup grad/error   SOSCFStart      ....  0.003300
 Level Shifting         CNVShift        .... on
   Level shift para.    LevelShift      ....    0.2500
   Turn off err/grad.   ShiftErr        ....    0.0010
 Zerner damping         CNVZerner       .... off
 Static damping         CNVDamp         .... on
   Fraction old density DampFac         ....    0.7000
   Max. Damping (<1)    DampMax         ....    0.9800
   Min. Damping (>=0)   DampMin         ....    0.0000
   Turn off err/grad.   DampErr         ....    0.1000
 Fernandez-Rico         CNVRico         .... off

SCF Procedure:
 Maximum # iterations   MaxIter         ....   125
 SCF integral mode      SCFMode         .... Direct
   Integral package                     .... SHARK and LIBINT hybrid scheme
 Reset frequency        DirectResetFreq ....    20
 Integral Threshold     Thresh          ....  2.500e-11 Eh
 Primitive CutOff       TCut            ....  2.500e-12 Eh

Convergence Tolerance:
 Convergence Check Mode ConvCheckMode   .... Total+1el-Energy
 Convergence forced     ConvForced      .... 0
 Energy Change          TolE            ....  1.000e-08 Eh
 1-El. energy change                    ....  1.000e-05 Eh
 Orbital Gradient       TolG            ....  1.000e-05
 Orbital Rotation angle TolX            ....  1.000e-05
 DIIS Error             TolErr          ....  5.000e-07


Diagonalization of the overlap matrix:
Smallest eigenvalue                        ... 7.851e-03
Time for diagonalization                   ...    0.003 sec
Threshold for overlap eigenvalues          ... 1.000e-08
Number of eigenvalues below threshold      ... 0
Time for construction of square roots      ...    0.243 sec
Total time needed                          ...    0.305 sec

--------------------------------
INITIAL GUESS: MINIMAL BASIS EHT
--------------------------------
The minimal basis has 44 functions
EHT matrix was diagonalized
Basis set overlap was calculated now projecting the orbitals
Using GuessMode=FMatrix for the initial guess
C*T matrix was formed
Effective Fockian was calculated
Effective Fockian was diagonalized
Initial density was built
                      ------------------
                      INITIAL GUESS DONE
                      ------------------
-------------------
DFT GRID GENERATION
-------------------

General Integration Accuracy     IntAcc      ... 4.959
Radial Grid Type                 RadialGrid  ... OptM3 with GC (2021)
Angular Grid (max. ang.)         AngularGrid ... 6 (Lebedev-590)
Angular grid pruning method      GridPruning ... 4 (adaptive)
Weight generation scheme         WeightScheme... Becke
Basis function cutoff            BFCut       ... 1.0000e-11
Integration weight cutoff        WCut        ... 1.0000e-14
Angular grids for H and He will be reduced by one unit
Partially contracted basis set               ... off
Rotationally invariant grid construction     ... off

Total number of grid points                  ...   117629
Total number of batches                      ...     1841
Average number of points per batch           ...       63
Average number of grid points per atom       ...    14704
Time for grid setup =    3.717 sec

--------------------
COSX GRID GENERATION
--------------------

GRIDX 1
-------
General Integration Accuracy     IntAcc      ... 4.020
Radial Grid Type                 RadialGrid  ... OptM3 with GC (2021)
Angular Grid (max. ang.)         AngularGrid ... 2 (Lebedev-110)
Angular grid pruning method      GridPruning ... 4 (adaptive)
Weight generation scheme         WeightScheme... Becke
Basis function cutoff            BFCut       ... 1.0000e-11
Integration weight cutoff        WCut        ... 1.0000e-14
Angular grids for H and He will be reduced by one unit
Partially contracted basis set               ... on
Rotationally invariant grid construction     ... off

Total number of grid points                  ...    14918
Total number of batches                      ...      238
Average number of points per batch           ...       62
Average number of grid points per atom       ...     1865
UseSFitting                                  ... on

GRIDX 2
-------
General Integration Accuracy     IntAcc      ... 4.338
Radial Grid Type                 RadialGrid  ... OptM3 with GC (2021)
Angular Grid (max. ang.)         AngularGrid ... 3 (Lebedev-194)
Angular grid pruning method      GridPruning ... 4 (adaptive)
Weight generation scheme         WeightScheme... Becke
Basis function cutoff            BFCut       ... 1.0000e-11
Integration weight cutoff        WCut        ... 1.0000e-14
Angular grids for H and He will be reduced by one unit
Partially contracted basis set               ... on
Rotationally invariant grid construction     ... off

Total number of grid points                  ...    33826
Total number of batches                      ...      533
Average number of points per batch           ...       63
Average number of grid points per atom       ...     4228
UseSFitting                                  ... on

GRIDX 3
-------
General Integration Accuracy     IntAcc      ... 4.871
Radial Grid Type                 RadialGrid  ... OptM3 with GC (2021)
Angular Grid (max. ang.)         AngularGrid ... 4 (Lebedev-302)
Angular grid pruning method      GridPruning ... 4 (adaptive)
Weight generation scheme         WeightScheme... Becke
Basis function cutoff            BFCut       ... 1.0000e-11
Integration weight cutoff        WCut        ... 1.0000e-14
Angular grids for H and He will be reduced by one unit
Partially contracted basis set               ... on
Rotationally invariant grid construction     ... off

Total number of grid points                  ...    59474
Total number of batches                      ...      932
Average number of points per batch           ...       63
Average number of grid points per atom       ...     7434
UseSFitting                                  ... on

Time for X-Grid setup             =    3.998 sec

--------------
SCF ITERATIONS
--------------
ITER       Energy         Delta-E        Max-DP      RMS-DP      [F,P]     Damp
               ***  Starting incremental Fock matrix formation  ***
  0   -956.0592451004   0.000000000000 0.69386746  0.01334294  0.7210118 0.7000
  1   -957.6309652794  -1.571720178983 0.18005123  0.00580548  0.3948724 0.7000
  2   -958.2960231679  -0.665057888464 0.04577370  0.00283248  0.2803766 0.7000
                               ***Turning on DIIS***
  3   -958.7918929381  -0.495869770220 0.03758380  0.00192976  0.1924511 0.7000
  4   -959.1478107862  -0.355917848083 0.02511923  0.00131177  0.1302291 0.7000
  5   -959.3967986837  -0.248987897531 0.05738641  0.00309887  0.0907624 0.0000
                      *** Initiating the SOSCF procedure ***
                           *** Shutting down DIIS ***
                      *** Re-Reading the Fockian *** 
                      *** Removing any level shift *** 
ITER      Energy       Delta-E        Grad      Rot      Max-DP    RMS-DP
  6   -959.98073778  -0.5839391004  0.002620  0.002620  0.005752  0.000181
               *** Restarting incremental Fock matrix formation ***
  7   -959.98087445  -0.0001366638  0.001191  0.001602  0.007661  0.000146
  8   -959.98086627   0.0000081751  0.001534  0.001483  0.003678  0.000080
  9   -959.98091728  -0.0000510096  0.000073  0.000160  0.000202  0.000007
 10   -959.98091744  -0.0000001580  0.000048  0.000041  0.000079  0.000003
 11   -959.98091748  -0.0000000348  0.000015  0.000018  0.000033  0.000001
 12   -959.98091748  -0.0000000027  0.000011  0.000007  0.000014  0.000001
                  ***Gradient check signals convergence***
              ***Rediagonalizing the Fockian in SOSCF/NRSCF***

               *****************************************************
               *                     SUCCESS                       *
               *           SCF CONVERGED AFTER  13 CYCLES          *
               *****************************************************

Old exchange energy                            =    -35.880251149 Eh
New exchange energy                            =    -35.880251972 Eh
Exchange energy change after final integration =     -0.000000823 Eh
Total energy after final integration           =   -959.980918300 Eh
Final COS-X integration done in                =     2.845 sec

----------------
TOTAL SCF ENERGY
----------------

Total Energy       :         -959.98091830 Eh          -26122.40882 eV

Components:
Nuclear Repulsion  :          543.65261764 Eh           14793.53981 eV
Electronic Energy  :        -1503.63353594 Eh          -40915.94864 eV
One Electron Energy:        -2425.58624821 Eh          -66003.55737 eV
Two Electron Energy:          921.95271227 Eh           25087.60873 eV
Max COSX asymmetry :            0.00000842 Eh               0.00023 eV

Virial components:
Potential Energy   :        -1915.67716872 Eh          -52128.22591 eV
Kinetic Energy     :          955.69625042 Eh           26005.81708 eV
Virial Ratio       :            2.00448329


DFT components:
N(Alpha)           :       36.999998460424 electrons
N(Beta)            :       36.999998460424 electrons
N(Total)           :       73.999996920847 electrons
E(X)               :      -47.906587782507 Eh       
E(C)               :       -3.559166543071 Eh       
E(XC)              :      -51.465754325578 Eh       
DFET-embed. en.    :        0.000000000000 Eh       

---------------
SCF CONVERGENCE
---------------

  Last Energy change         ...    1.6689e-10  Tolerance :   1.0000e-08
  Last MAX-Density change    ...    1.7764e-15  Tolerance :   1.0000e-07
  Last RMS-Density change    ...    6.0406e-17  Tolerance :   5.0000e-09
  Last Orbital Gradient      ...    2.1958e-06  Tolerance :   1.0000e-05
  Last Orbital Rotation      ...    2.6753e-06  Tolerance :   1.0000e-05

             **** THE GBW FILE WAS UPDATED (pbeh-3c.gbw) ****
             **** DENSITY pbeh-3c.scfp WAS UPDATED ****
             **** ENERGY FILE WAS UPDATED (pbeh-3c.en.tmp) ****
             **** THE GBW FILE WAS UPDATED (pbeh-3c.gbw) ****
             **** DENSITY pbeh-3c.scfp WAS UPDATED ****
----------------
ORBITAL ENERGIES
----------------

  NO   OCC          E(Eh)            E(eV) 
   0   2.0000     -89.636352     -2439.1291 
   1   2.0000     -24.993261      -680.1012 
   2   2.0000     -24.992842      -680.0898 
   3   2.0000     -24.992692      -680.0857 
   4   2.0000     -19.286423      -524.8102 
   5   2.0000     -19.286128      -524.8022 
   6   2.0000     -19.275597      -524.5157 
   7   2.0000     -10.550907      -287.1048 
   8   2.0000      -8.234412      -224.0698 
   9   2.0000      -6.127219      -166.7301 
  10   2.0000      -6.125253      -166.6766 
  11   2.0000      -6.125117      -166.6729 
  12   2.0000      -1.291388       -35.1405 
  13   2.0000      -1.206535       -32.8315 
  14   2.0000      -1.205791       -32.8113 
  15   2.0000      -1.034286       -28.1444 
  16   2.0000      -0.899431       -24.4748 
  17   2.0000      -0.882819       -24.0227 
  18   2.0000      -0.658369       -17.9151 
  19   2.0000      -0.552213       -15.0265 
  20   2.0000      -0.520817       -14.1722 
  21   2.0000      -0.520563       -14.1652 
  22   2.0000      -0.435317       -11.8456 
  23   2.0000      -0.401964       -10.9380 
  24   2.0000      -0.401739       -10.9319 
  25   2.0000      -0.366323        -9.9682 
  26   2.0000      -0.366010        -9.9596 
  27   2.0000      -0.349747        -9.5171 
  28   2.0000      -0.344698        -9.3797 
  29   2.0000      -0.328705        -8.9445 
  30   2.0000      -0.327091        -8.9006 
  31   2.0000      -0.206239        -5.6120 
  32   2.0000      -0.205938        -5.6039 
  33   2.0000      -0.174888        -4.7590 
  34   2.0000      -0.171842        -4.6761 
  35   2.0000      -0.163295        -4.4435 
  36   2.0000      -0.124405        -3.3852 
  37   0.0000       0.285527         7.7696 
  38   0.0000       0.299387         8.1467 
  39   0.0000       0.300457         8.1759 
  40   0.0000       0.362893         9.8748 
  41   0.0000       0.372931        10.1480 
  42   0.0000       0.450912        12.2699 
  43   0.0000       0.462276        12.5792 
  44   0.0000       0.535523        14.5723 
  45   0.0000       0.627455        17.0739 
  46   0.0000       0.657936        17.9034 
  47   0.0000       0.658930        17.9304 
  48   0.0000       0.876730        23.8570 
  49   0.0000       0.888294        24.1717 
  50   0.0000       0.890843        24.2411 
  51   0.0000       0.891725        24.2651 
  52   0.0000       0.893422        24.3112 
  53   0.0000       0.923782        25.1374 
  54   0.0000       1.056050        28.7366 
  55   0.0000       1.067007        29.0347 
  56   0.0000       1.076222        29.2855 
  57   0.0000       1.146715        31.2037 
  58   0.0000       1.148252        31.2455 
  59   0.0000       1.213074        33.0094 
  60   0.0000       1.221661        33.2431 
  61   0.0000       1.225498        33.3475 
  62   0.0000       1.285414        34.9779 
  63   0.0000       1.286029        34.9946 
  64   0.0000       1.292149        35.1612 
  65   0.0000       1.321011        35.9465 
  66   0.0000       1.326323        36.0911 
  67   0.0000       1.326886        36.1064 
  68   0.0000       1.336147        36.3584 
  69   0.0000       1.337540        36.3963 
  70   0.0000       1.360566        37.0229 
  71   0.0000       1.376114        37.4460 
  72   0.0000       1.376743        37.4631 
  73   0.0000       1.383131        37.6369 
  74   0.0000       1.390663        37.8419 
  75   0.0000       1.391291        37.8589 
  76   0.0000       1.433541        39.0086 
  77   0.0000       1.470209        40.0064 
  78   0.0000       1.488162        40.4949 
  79   0.0000       1.488889        40.5147 
  80   0.0000       1.535632        41.7867 
  81   0.0000       1.554433        42.2983 
  82   0.0000       1.557015        42.3685 
  83   0.0000       1.775479        48.3132 
  84   0.0000       1.776411        48.3386 
  85   0.0000       1.840198        50.0743 
  86   0.0000       1.974349        53.7248 
  87   0.0000       2.021941        55.0198 
  88   0.0000       2.025930        55.1284 
  89   0.0000       2.034522        55.3622 
  90   0.0000       2.077435        56.5299 
  91   0.0000       2.082170        56.6587 
  92   0.0000       2.097928        57.0875 
  93   0.0000       2.103294        57.2335 
  94   0.0000       2.115906        57.5767 
  95   0.0000       2.116117        57.5825 
  96   0.0000       2.147121        58.4261 
  97   0.0000       2.232517        60.7499 
  98   0.0000       2.237355        60.8815 
  99   0.0000       2.289238        62.2933 
 100   0.0000       2.294341        62.4322 
 101   0.0000       2.320679        63.1489 
 102   0.0000       2.402007        65.3619 
 103   0.0000       2.419877        65.8482 
 104   0.0000       2.455969        66.8303 
 105   0.0000       2.619921        71.2917 
 106   0.0000       2.622195        71.3535 
 107   0.0000       2.691174        73.2306 
 108   0.0000       2.743820        74.6631 
 109   0.0000       2.749422        74.8156 
 110   0.0000       2.946835        80.1874 
 111   0.0000       3.051795        83.0436 
 112   0.0000       3.060453        83.2792 
 113   0.0000       3.102021        84.4103 
 114   0.0000       3.102856        84.4330 
 115   0.0000       3.253606        88.5351 
 116   0.0000      14.178339       385.8122 
 117   0.0000      25.759613       700.9547 
 118   0.0000      25.787057       701.7015 
 119   0.0000      25.930572       705.6067 
 120   0.0000      32.875893       894.5985 
 121   0.0000      32.876948       894.6273 
 122   0.0000      33.170649       902.6192 

                    ********************************
                    * MULLIKEN POPULATION ANALYSIS *
                    ********************************

-----------------------
MULLIKEN ATOMIC CHARGES
-----------------------
   0 O :   -0.722074
   1 S :    1.318920
   2 C :    0.758458
   3 O :   -0.699513
   4 O :   -0.699707
   5 F :   -0.320338
   6 F :   -0.317893
   7 F :   -0.317854
Sum of atomic charges:   -1.0000000

--------------------------------
MULLIKEN REDUCED ORBITAL CHARGES
--------------------------------
  0 O s       :     3.852293  s :     3.852293
      pz      :     1.488390  p :     4.840217
      px      :     1.573584
      py      :     1.778243
      dz2     :     0.007974  d :     0.029564
      dxz     :     0.009917
      dyz     :     0.004650
      dx2y2   :     0.003997
      dxy     :     0.003026
  1 S s       :     5.215336  s :     5.215336
      pz      :     2.959683  p :     8.681126
      px      :     2.893219
      py      :     2.828224
      dz2     :     0.136432  d :     0.784618
      dxz     :     0.170366
      dyz     :     0.129558
      dx2y2   :     0.171008
      dxy     :     0.177254
  2 C s       :     2.926851  s :     2.926851
      pz      :     0.821922  p :     2.158409
      px      :     0.718983
      py      :     0.617504
      dz2     :     0.031769  d :     0.156282
      dxz     :     0.035320
      dyz     :     0.018778
      dx2y2   :     0.026374
      dxy     :     0.044040
  3 O s       :     3.841572  s :     3.841572
      pz      :     1.725023  p :     4.826617
      px      :     1.626099
      py      :     1.475496
      dz2     :     0.003485  d :     0.031324
      dxz     :     0.002766
      dyz     :     0.006385
      dx2y2   :     0.008754
      dxy     :     0.009934
  4 O s       :     3.841507  s :     3.841507
      pz      :     1.725356  p :     4.826895
      px      :     1.638325
      py      :     1.463214
      dz2     :     0.003479  d :     0.031305
      dxz     :     0.002523
      dyz     :     0.006603
      dx2y2   :     0.008869
      dxy     :     0.009832
  5 F s       :     3.908881  s :     3.908881
      pz      :     1.654524  p :     5.383857
      px      :     1.799671
      py      :     1.929663
      dz2     :     0.009330  d :     0.027599
      dxz     :     0.009292
      dyz     :     0.003765
      dx2y2   :     0.003033
      dxy     :     0.002180
  6 F s       :     3.909320  s :     3.909320
      pz      :     1.931600  p :     5.381142
      px      :     1.791187
      py      :     1.658355
      dz2     :     0.003879  d :     0.027431
      dxz     :     0.002990
      dyz     :     0.004646
      dx2y2   :     0.005885
      dxy     :     0.010033
  7 F s       :     3.909388  s :     3.909388
      pz      :     1.931605  p :     5.380958
      px      :     1.785268
      py      :     1.664084
      dz2     :     0.003937  d :     0.027508
      dxz     :     0.003088
      dyz     :     0.004547
      dx2y2   :     0.005827
      dxy     :     0.010108


                     *******************************
                     * LOEWDIN POPULATION ANALYSIS *
                     *******************************

----------------------
LOEWDIN ATOMIC CHARGES
----------------------
   0 O :   -0.651983
   1 S :    1.146354
   2 C :    0.230685
   3 O :   -0.624901
   4 O :   -0.625321
   5 F :   -0.160091
   6 F :   -0.157426
   7 F :   -0.157317

-------------------------------
LOEWDIN REDUCED ORBITAL CHARGES
-------------------------------
  0 O s       :     3.673706  s :     3.673706
      pz      :     1.536244  p :     4.929667
      px      :     1.612589
      py      :     1.780834
      dz2     :     0.011307  d :     0.048610
      dxz     :     0.020749
      dyz     :     0.005675
      dx2y2   :     0.006684
      dxy     :     0.004195
  1 S s       :     5.046346  s :     5.046346
      pz      :     2.934425  p :     8.755375
      px      :     2.917788
      py      :     2.903162
      dz2     :     0.186691  d :     1.051925
      dxz     :     0.236772
      dyz     :     0.156289
      dx2y2   :     0.219814
      dxy     :     0.252358
  2 C s       :     2.872900  s :     2.872900
      pz      :     0.926599  p :     2.537948
      px      :     0.845379
      py      :     0.765971
      dz2     :     0.071834  d :     0.358466
      dxz     :     0.083646
      dyz     :     0.040106
      dx2y2   :     0.060725
      dxy     :     0.102155
  3 O s       :     3.655621  s :     3.655621
      pz      :     1.725138  p :     4.917720
      px      :     1.652476
      py      :     1.540107
      dz2     :     0.007374  d :     0.051560
      dxz     :     0.003699
      dyz     :     0.008034
      dx2y2   :     0.012394
      dxy     :     0.020058
  4 O s       :     3.655696  s :     3.655696
      pz      :     1.725356  p :     4.918090
      px      :     1.662123
      py      :     1.530611
      dz2     :     0.007396  d :     0.051535
      dxz     :     0.003353
      dyz     :     0.008257
      dx2y2   :     0.012977
      dxy     :     0.019553
  5 F s       :     3.721945  s :     3.721945
      pz      :     1.670490  p :     5.361955
      px      :     1.787174
      py      :     1.904291
      dz2     :     0.028213  d :     0.076191
      dxz     :     0.023907
      dyz     :     0.009257
      dx2y2   :     0.006648
      dxy     :     0.008167
  6 F s       :     3.722367  s :     3.722367
      pz      :     1.911051  p :     5.359458
      px      :     1.786447
      py      :     1.661960
      dz2     :     0.009767  d :     0.075601
      dxz     :     0.010020
      dyz     :     0.013272
      dx2y2   :     0.016753
      dxy     :     0.025790
  7 F s       :     3.722314  s :     3.722314
      pz      :     1.911095  p :     5.359281
      px      :     1.781149
      py      :     1.667037
      dz2     :     0.009842  d :     0.075722
      dxz     :     0.010361
      dyz     :     0.012949
      dx2y2   :     0.016758
      dxy     :     0.025812


                      *****************************
                      * MAYER POPULATION ANALYSIS *
                      *****************************

  NA   - Mulliken gross atomic population
  ZA   - Total nuclear charge
  QA   - Mulliken gross atomic charge
  VA   - Mayer's total valence
  BVA  - Mayer's bonded valence
  FA   - Mayer's free valence

  ATOM       NA         ZA         QA         VA         BVA        FA
  0 O      8.7221     8.0000    -0.7221     1.7972     1.7972    -0.0000
  1 S     14.6811    16.0000     1.3189     5.6032     5.6032    -0.0000
  2 C      5.2415     6.0000     0.7585     3.9725     3.9725     0.0000
  3 O      8.6995     8.0000    -0.6995     1.8322     1.8322     0.0000
  4 O      8.6997     8.0000    -0.6997     1.8318     1.8318    -0.0000
  5 F      9.3203     9.0000    -0.3203     1.0792     1.0792    -0.0000
  6 F      9.3179     9.0000    -0.3179     1.0820     1.0820     0.0000
  7 F      9.3179     9.0000    -0.3179     1.0821     1.0821    -0.0000

  Mayer bond orders larger than 0.100000
B(  0-O ,  1-S ) :   1.5671 B(  1-S ,  2-C ) :   0.7568 B(  1-S ,  3-O ) :   1.6043 
B(  1-S ,  4-O ) :   1.6043 B(  2-C ,  5-F ) :   0.9815 B(  2-C ,  6-F ) :   0.9840 
B(  2-C ,  7-F ) :   0.9839 

-------
TIMINGS
-------

Total SCF time: 0 days 0 hours 1 min 9 sec 

Total time                  ....      69.875 sec
Sum of individual times     ....      64.397 sec  ( 92.2%)

Fock matrix formation       ....      53.690 sec  ( 76.8%)
  Split-RI-J                ....       6.108 sec  ( 11.4% of F)
  Chain of spheres X        ....      21.829 sec  ( 40.7% of F)
  XC integration            ....      11.960 sec  ( 22.3% of F)
    Basis function eval.    ....       2.320 sec  ( 19.4% of XC)
    Density eval.           ....       1.379 sec  ( 11.5% of XC)
    XC-Functional eval.     ....       1.062 sec  (  8.9% of XC)
    XC-Potential eval.      ....       0.922 sec  (  7.7% of XC)
Diagonalization             ....       1.049 sec  (  1.5%)
Density matrix formation    ....       0.146 sec  (  0.2%)
Population analysis         ....       0.013 sec  (  0.0%)
Initial guess               ....       0.009 sec  (  0.0%)
Orbital Transformation      ....       0.000 sec  (  0.0%)
Orbital Orthonormalization  ....       0.000 sec  (  0.0%)
DIIS solution               ....       1.260 sec  (  1.8%)
SOSCF solution              ....       0.516 sec  (  0.7%)
Grid generation             ....       7.714 sec  ( 11.0%)

Maximum memory used throughout the entire SCF-calculation: 50.7 MB


-------------------------------------------------------------------------------
                          DFT DISPERSION CORRECTION                            
                                                                               
                              DFTD3 V3.1  Rev 1                                
                          USING Becke-Johnson damping                          
-------------------------------------------------------------------------------
The PBEh-3c composite method is recognized
Using three-body term ABC
Active option DFTDOPT                   ...         4   

molecular C6(AA) [au] = 1137.574274 


            DFT-D V3
 parameters
 s6 scaling factor         :     1.0000 
 a1 scaling factor         :     0.4860 
 s8 scaling factor         :     0.0000 
 a2 scaling factor         :     4.5000 
 Damping factor alpha9(ATM):    16.0000 
 ad hoc parameters k1-k3   :    16.0000     1.3333    -4.0000 

 Edisp/kcal,au: -2.233065623785  -0.003558616209 
 E6   /kcal   :  -2.237397514 
 E8   /kcal   :  -0.000000000 
 E6(ABC)      :   0.004331890 
 % E8         :   0.000000000 
 % E6(ABC)    :  -0.193988470 

-------------------------   ----------------
Dispersion correction           -0.003558616
-------------------------   ----------------

------------------   -----------------
gCP correction             0.028490490
------------------   -----------------

-------------------------   --------------------
FINAL SINGLE POINT ENERGY      -959.955986427054
-------------------------   --------------------


                            ***************************************
                            *     ORCA property calculations      *
                            ***************************************

                                    ---------------------
                                    Active property flags
                                    ---------------------
   (+) Dipole Moment


------------------------------------------------------------------------------
                       ORCA ELECTRIC PROPERTIES CALCULATION
------------------------------------------------------------------------------

Dipole Moment Calculation                       ... on
Quadrupole Moment Calculation                   ... off
Polarizability Calculation                      ... off
GBWName                                         ... pbeh-3c.gbw
Electron density                                ... pbeh-3c.scfp
The origin for moment calculation is the CENTER OF MASS  = ( 3.290051,  0.030104 -6.839505)

-------------
DIPOLE MOMENT
-------------
                                X             Y             Z
Electronic contribution:      3.27901       0.05521      -5.01750
Nuclear contribution   :     -2.26430      -0.03564       3.32210
                        -----------------------------------------
Total Dipole Moment    :      1.01472       0.01957      -1.69540
                        -----------------------------------------
Magnitude (a.u.)       :      1.97596
Magnitude (Debye)      :      5.02249



--------------------
Rotational spectrum 
--------------------
 
Rotational constants in cm-1:     0.088487     0.050282     0.050195 
Rotational constants in MHz :  2652.769612  1507.425716  1504.798469 

 Dipole components along the rotational axes: 
x,y,z [a.u.] :    -1.972215    -0.008111     0.121337 
x,y,z [Debye]:    -5.012972    -0.020616     0.308414 

 

Timings for individual modules:

Sum of individual times         ...       73.861 sec (=   1.231 min)
GTO integral calculation        ...        3.208 sec (=   0.053 min)   4.3 %
SCF iterations                  ...       70.653 sec (=   1.178 min)  95.7 %
                             ****ORCA TERMINATED NORMALLY****
TOTAL RUN TIME: 0 days 0 hours 1 minutes 14 seconds 845 msec
