
                                 *****************
                                 * O   R   C   A *
                                 *****************

                                            #,                                       
                                            ###                                      
                                            ####                                     
                                            #####                                    
                                            ######                                   
                                           ########,                                 
                                     ,,################,,,,,                         
                               ,,#################################,,                 
                          ,,##########################################,,             
                       ,#########################################, ''#####,          
                    ,#############################################,,   '####,        
                  ,##################################################,,,,####,       
                ,###########''''           ''''###############################       
              ,#####''   ,,,,##########,,,,          '''####'''          '####       
            ,##' ,,,,###########################,,,                        '##       
           ' ,,###''''                  '''############,,,                           
         ,,##''                                '''############,,,,        ,,,,,,###''
      ,#''                                            '''#######################'''  
     '                                                          ''''####''''         
             ,#######,   #######,   ,#######,      ##                                
            ,#'     '#,  ##    ##  ,#'     '#,    #''#        ######   ,####,        
            ##       ##  ##   ,#'  ##            #'  '#       #        #'  '#        
            ##       ##  #######   ##           ,######,      #####,   #    #        
            '#,     ,#'  ##    ##  '#,     ,#' ,#      #,         ##   #,  ,#        
             '#######'   ##     ##  '#######'  #'      '#     #####' # '####'        



                  #######################################################
                  #                        -***-                        #
                  #          Department of theory and spectroscopy      #
                  #    Directorship and core code : Frank Neese         #
                  #        Max Planck Institute fuer Kohlenforschung    #
                  #                Kaiser Wilhelm Platz 1               #
                  #                 D-45470 Muelheim/Ruhr               #
                  #                      Germany                        #
                  #                                                     #
                  #                  All rights reserved                #
                  #                        -***-                        #
                  #######################################################


                         Program Version 5.0.3 -  RELEASE  -


 With contributions from (in alphabetic order):
   Daniel Aravena         : Magnetic Suceptibility
   Michael Atanasov       : Ab Initio Ligand Field Theory (pilot matlab implementation)
   Alexander A. Auer      : GIAO ZORA, VPT2 properties, NMR spectrum
   Ute Becker             : Parallelization
   Giovanni Bistoni       : ED, misc. LED, open-shell LED, HFLD
   Martin Brehm           : Molecular dynamics
   Dmytro Bykov           : SCF Hessian
   Vijay G. Chilkuri      : MRCI spin determinant printing, contributions to CSF-ICE
   Dipayan Datta          : RHF DLPNO-CCSD density
   Achintya Kumar Dutta   : EOM-CC, STEOM-CC
   Dmitry Ganyushin       : Spin-Orbit,Spin-Spin,Magnetic field MRCI
   Miquel Garcia          : C-PCM and meta-GGA Hessian, CC/C-PCM, Gaussian charge scheme
   Yang Guo               : DLPNO-NEVPT2, F12-NEVPT2, CIM, IAO-localization
   Andreas Hansen         : Spin unrestricted coupled pair/coupled cluster methods
   Benjamin Helmich-Paris : MC-RPA, TRAH-SCF, COSX integrals
   Lee Huntington         : MR-EOM, pCC
   Robert Izsak           : Overlap fitted RIJCOSX, COSX-SCS-MP3, EOM
   Marcus Kettner         : VPT2
   Christian Kollmar      : KDIIS, OOCD, Brueckner-CCSD(T), CCSD density, CASPT2, CASPT2-K
   Simone Kossmann        : Meta GGA functionals, TD-DFT gradient, OOMP2, MP2 Hessian
   Martin Krupicka        : Initial AUTO-CI
   Lucas Lang             : DCDCAS
   Marvin Lechner         : AUTO-CI (C++ implementation), FIC-MRCC
   Dagmar Lenk            : GEPOL surface, SMD
   Dimitrios Liakos       : Extrapolation schemes; Compound Job, initial MDCI parallelization
   Dimitrios Manganas     : Further ROCIS development; embedding schemes
   Dimitrios Pantazis     : SARC Basis sets
   Anastasios Papadopoulos: AUTO-CI, single reference methods and gradients
   Taras Petrenko         : DFT Hessian,TD-DFT gradient, ASA, ECA, R-Raman, ABS, FL, XAS/XES, NRVS
   Peter Pinski           : DLPNO-MP2, DLPNO-MP2 Gradient
   Christoph Reimann      : Effective Core Potentials
   Marius Retegan         : Local ZFS, SOC
   Christoph Riplinger    : Optimizer, TS searches, QM/MM, DLPNO-CCSD(T), (RO)-DLPNO pert. Triples
   Tobias Risthaus        : Range-separated hybrids, TD-DFT gradient, RPA, STAB
   Michael Roemelt        : Original ROCIS implementation
   Masaaki Saitow         : Open-shell DLPNO-CCSD energy and density
   Barbara Sandhoefer     : DKH picture change effects
   Avijit Sen             : IP-ROCIS
   Kantharuban Sivalingam : CASSCF convergence, NEVPT2, FIC-MRCI
   Bernardo de Souza      : ESD, SOC TD-DFT
   Georgi Stoychev        : AutoAux, RI-MP2 NMR, DLPNO-MP2 response
   Willem Van den Heuvel  : Paramagnetic NMR
   Boris Wezisla          : Elementary symmetry handling
   Frank Wennmohs         : Technical directorship


 We gratefully acknowledge several colleagues who have allowed us to
 interface, adapt or use parts of their codes:
   Stefan Grimme, W. Hujo, H. Kruse, P. Pracht,  : VdW corrections, initial TS optimization,
                  C. Bannwarth, S. Ehlert          DFT functionals, gCP, sTDA/sTD-DF
   Ed Valeev, F. Pavosevic, A. Kumar             : LibInt (2-el integral package), F12 methods
   Garnet Chan, S. Sharma, J. Yang, R. Olivares  : DMRG
   Ulf Ekstrom                                   : XCFun DFT Library
   Mihaly Kallay                                 : mrcc  (arbitrary order and MRCC methods)
   Jiri Pittner, Ondrej Demel                    : Mk-CCSD
   Frank Weinhold                                : gennbo (NPA and NBO analysis)
   Christopher J. Cramer and Donald G. Truhlar   : smd solvation model
   Lars Goerigk                                  : TD-DFT with DH, B97 family of functionals
   V. Asgeirsson, H. Jonsson                     : NEB implementation
   FAccTs GmbH                                   : IRC, NEB, NEB-TS, DLPNO-Multilevel, CI-OPT
                                                   MM, QMMM, 2- and 3-layer-ONIOM, Crystal-QMMM,
                                                   LR-CPCM, SF, NACMEs, symmetry and pop. for TD-DFT,
                                                   nearIR, NL-DFT gradient (VV10), updates on ESD,
                                                   ML-optimized integration grids
   S Lehtola, MJT Oliveira, MAL Marques          : LibXC Library
   Liviu Ungur et al                             : ANISO software


 Your calculation uses the libint2 library for the computation of 2-el integrals
 For citations please refer to: http://libint.valeyev.net

 Your ORCA version has been built with support for libXC version: 5.1.0
 For citations please refer to: https://tddft.org/programs/libxc/

 This ORCA versions uses:
   CBLAS   interface :  Fast vector & matrix operations
   LAPACKE interface :  Fast linear algebra routines
   SCALAPACK package :  Parallel linear algebra routines
   Shared memory     :  Shared parallel matrices
   BLAS/LAPACK       :  OpenBLAS 0.3.15  USE64BITINT DYNAMIC_ARCH NO_AFFINITY Haswell SINGLE_THREADED
        Core in use  :  Haswell
   Copyright (c) 2011-2014, The OpenBLAS Project




***************************************
The coordinates will be read from file: 13-Cyclohexadiene.xyz
***************************************


Your calculation utilizes the geometrical counterpoise correction gCP
Please cite in your paper:
H.Kruse, S. Grimme J.Chem.Phys., 136, (2012), 154101 
   

Your calculation utilizes the atom-pairwise dispersion correction
with the Becke-Johnson damping scheme (D3BJ)
Cite in your paper:
S.Grimme, S.Ehrlich, L.Goerigk, J Comput Chem, (2011), 32, 1456–1465 
S.Grimme, J.Antony, S.Ehrlich and H.Krieg, J.Chem.Phys., 132, (2010), 154104 
   

Your calculation employs the composite approach PBEh-3c.
Please cite in your paper:
S. Grimme, J. G. Brandenburg, C. Bannwarth, A. Hansen J.Chem.Phys., 143, (2015), 054107 
   

================================================================================

----- Orbital basis set information -----
Your calculation utilizes the basis: def2-mSVP

----- AuxJ basis set information -----
Your calculation utilizes the auxiliary basis: def2/J
   F. Weigend, Phys. Chem. Chem. Phys. 8, 1057 (2006).

================================================================================
                                        WARNINGS
                       Please study these warnings very carefully!
================================================================================


INFO   : the flag for use of the SHARK integral package has been found!

================================================================================
                                       INPUT FILE
================================================================================
NAME = pbeh-3c.inp
|  1> ! PBEh-3c def2/J TightSCF DefGrid3
|  2> 
|  3> %maxcore 60000
|  4> 
|  5> %pal
|  6> nprocs 4
|  7> end
|  8> 
|  9> *xyzfile 0 1 13-Cyclohexadiene.xyz
| 10> 
| 11>                          ****END OF INPUT****
================================================================================

                       ****************************
                       * Single Point Calculation *
                       ****************************

---------------------------------
CARTESIAN COORDINATES (ANGSTROEM)
---------------------------------
  C      1.425072    0.064404   -0.241300
  H      2.506316    0.184407   -0.243565
  C      0.726228    0.103966   -1.387832
  H      1.227292    0.271791   -2.338605
  C     -0.726228   -0.103966   -1.387832
  H     -1.227292   -0.271791   -2.338605
  C     -1.425072   -0.064404   -0.241300
  H     -2.506316   -0.184407   -0.243565
  C     -0.731802    0.239418    1.067738
  H     -0.763329    1.329969    1.234277
  H     -1.272110   -0.209868    1.909287
  C      0.731802   -0.239418    1.067738
  H      0.763329   -1.329969    1.234277
  H      1.272110    0.209868    1.909287

----------------------------
CARTESIAN COORDINATES (A.U.)
----------------------------
  NO LB      ZA    FRAG     MASS         X           Y           Z
   0 C     6.0000    0    12.011    2.692997    0.121706   -0.455990
   1 H     1.0000    0     1.008    4.736250    0.348479   -0.460272
   2 C     6.0000    0    12.011    1.372372    0.196467   -2.622622
   3 H     1.0000    0     1.008    2.319246    0.513611   -4.419323
   4 C     6.0000    0    12.011   -1.372372   -0.196467   -2.622622
   5 H     1.0000    0     1.008   -2.319246   -0.513611   -4.419323
   6 C     6.0000    0    12.011   -2.692997   -0.121706   -0.455990
   7 H     1.0000    0     1.008   -4.736250   -0.348479   -0.460272
   8 C     6.0000    0    12.011   -1.382906    0.452435    2.017732
   9 H     1.0000    0     1.008   -1.442483    2.513278    2.332445
  10 H     1.0000    0     1.008   -2.403940   -0.396593    3.608030
  11 C     6.0000    0    12.011    1.382906   -0.452435    2.017732
  12 H     1.0000    0     1.008    1.442483   -2.513278    2.332445
  13 H     1.0000    0     1.008    2.403940    0.396593    3.608030

--------------------------------
INTERNAL COORDINATES (ANGSTROEM)
--------------------------------
 C      0   0   0     0.000000000000     0.00000000     0.00000000
 H      1   0   0     1.087884622816     0.00000000     0.00000000
 C      1   2   0     1.343311089309   120.79964462     0.00000000
 H      3   1   2     1.087750138815   120.72588180   359.07176997
 C      3   1   2     1.467264567324   120.71819451   177.88666878
 H      5   3   1     1.087750138815   118.54561265   192.58641271
 C      5   3   1     1.343311089309   120.71819451    13.74612648
 H      7   5   3     1.087884622816   120.79964462   177.88666878
 C      7   5   3     1.512121143710   120.41651612     1.95131665
 H      9   7   5     1.103644566055   108.42581971    90.89174843
 H      9   7   5     1.096355825687   110.86775600   206.82023116
 C      1   2   3     1.512121143710   118.66210815   176.00539446
 H     12   1   2     1.103644566055   108.42581971   274.87055753
 H     12   1   2     1.096355825687   110.86775600    30.79904026

---------------------------
INTERNAL COORDINATES (A.U.)
---------------------------
 C      0   0   0     0.000000000000     0.00000000     0.00000000
 H      1   0   0     2.055804002427     0.00000000     0.00000000
 C      1   2   0     2.538490071454   120.79964462     0.00000000
 H      3   1   2     2.055549864495   120.72588180   359.07176997
 C      3   1   2     2.772728198249   120.71819451   177.88666878
 H      5   3   1     2.055549864495   118.54561265   192.58641271
 C      5   3   1     2.538490071454   120.71819451    13.74612648
 H      7   5   3     2.055804002427   120.79964462   177.88666878
 C      7   5   3     2.857494842924   120.41651612     1.95131665
 H      9   7   5     2.085585979033   108.42581971    90.89174843
 H      9   7   5     2.071812255878   110.86775600   206.82023116
 C      1   2   3     2.857494842924   118.66210815   176.00539446
 H     12   1   2     2.085585979033   108.42581971   274.87055753
 H     12   1   2     2.071812255878   110.86775600    30.79904026

---------------------
BASIS SET INFORMATION
---------------------
There are 2 groups of distinct atoms

 Group   1 Type C   : 8s4p1d contracted to 4s2p1d pattern {5111/31/1}
 Group   2 Type H   : 4s contracted to 2s pattern {31}

Atom   0C    basis set group =>   1
Atom   1H    basis set group =>   2
Atom   2C    basis set group =>   1
Atom   3H    basis set group =>   2
Atom   4C    basis set group =>   1
Atom   5H    basis set group =>   2
Atom   6C    basis set group =>   1
Atom   7H    basis set group =>   2
Atom   8C    basis set group =>   1
Atom   9H    basis set group =>   2
Atom  10H    basis set group =>   2
Atom  11C    basis set group =>   1
Atom  12H    basis set group =>   2
Atom  13H    basis set group =>   2
---------------------------------
AUXILIARY/J BASIS SET INFORMATION
---------------------------------
There are 2 groups of distinct atoms

 Group   1 Type C   : 12s5p4d2f1g contracted to 6s4p3d1f1g pattern {711111/2111/211/2/1}
 Group   2 Type H   : 5s2p1d contracted to 3s1p1d pattern {311/2/1}

Atom   0C    basis set group =>   1
Atom   1H    basis set group =>   2
Atom   2C    basis set group =>   1
Atom   3H    basis set group =>   2
Atom   4C    basis set group =>   1
Atom   5H    basis set group =>   2
Atom   6C    basis set group =>   1
Atom   7H    basis set group =>   2
Atom   8C    basis set group =>   1
Atom   9H    basis set group =>   2
Atom  10H    basis set group =>   2
Atom  11C    basis set group =>   1
Atom  12H    basis set group =>   2
Atom  13H    basis set group =>   2


           ************************************************************
           *        Program running with 4 parallel MPI-processes     *
           *              working on a common directory               *
           ************************************************************
------------------------------------------------------------------------------
                           ORCA GTO INTEGRAL CALCULATION
                           -- RI-GTO INTEGRALS CHOSEN --
------------------------------------------------------------------------------
------------------------------------------------------------------------------
                   ___                                                        
                  /   \      - P O W E R E D   B Y -                         
                 /     \                                                     
                 |  |  |   _    _      __       _____    __    __             
                 |  |  |  | |  | |    /  \     |  _  \  |  |  /  |          
                  \  \/   | |  | |   /    \    | | | |  |  | /  /          
                 / \  \   | |__| |  /  /\  \   | |_| |  |  |/  /          
                |  |  |   |  __  | /  /__\  \  |    /   |      \           
                |  |  |   | |  | | |   __   |  |    \   |  |\   \          
                \     /   | |  | | |  |  |  |  | |\  \  |  | \   \       
                 \___/    |_|  |_| |__|  |__|  |_| \__\ |__|  \__/        
                                                                              
                      - O R C A' S   B I G   F R I E N D -                    
                                      &                                       
                       - I N T E G R A L  F E E D E R -                       
                                                                              
 v1 FN, 2020, v2 2021                                                         
------------------------------------------------------------------------------


Reading SHARK input file pbeh-3c.SHARKINP.tmp ... ok
----------------------
SHARK INTEGRAL PACKAGE
----------------------

Number of atoms                             ...     14
Number of basis functions                   ...    106
Number of shells                            ...     58
Maximum angular momentum                    ...      2
Integral batch strategy                     ... SHARK/LIBINT Hybrid
RI-J (if used) integral strategy            ... SPLIT-RIJ (Revised 2003 algorithm where possible)
Printlevel                                  ...      1
Contraction scheme used                     ... SEGMENTED contraction
Coulomb Range Separation                    ... NOT USED
Exchange Range Separation                   ... NOT USED
Finite Nucleus Model                        ... NOT USED
Auxiliary Coulomb fitting basis             ... AVAILABLE
   # of basis functions in Aux-J            ...    382
   # of shells in Aux-J                     ...    130
   Maximum angular momentum in Aux-J        ...      4
Auxiliary J/K fitting basis                 ... NOT available
Auxiliary Correlation fitting basis         ... NOT available
Auxiliary 'external' fitting basis          ... NOT available
Integral threshold                          ...     2.500000e-11
Primitive cut-off                           ...     2.500000e-12
Primitive pair pre-selection threshold      ...     2.500000e-12

Calculating pre-screening integrals         ... done (  0.1 sec) Dimension = 58
Organizing shell pair data                  ... done (  0.3 sec)
Shell pair information
Total number of shell pairs                 ...      1711
Shell pairs after pre-screening             ...      1646
Total number of primitive shell pairs       ...      6207
Primitive shell pairs kept                  ...      4497
          la=0 lb=0:    755 shell pairs
          la=1 lb=0:    480 shell pairs
          la=1 lb=1:     78 shell pairs
          la=2 lb=0:    240 shell pairs
          la=2 lb=1:     72 shell pairs
          la=2 lb=2:     21 shell pairs

Calculating one electron integrals          ... done (  0.0 sec)
Calculating RI/J V-Matrix + Cholesky decomp.... done (  0.6 sec)
Calculating Nuclear repulsion               ... done (  0.1 sec) ENN=    218.555369890201 Eh

SHARK setup successfully completed in   2.3 seconds

Maximum memory used throughout the entire GTOINT-calculation: 10.4 MB


           ************************************************************
           *        Program running with 4 parallel MPI-processes     *
           *              working on a common directory               *
           ************************************************************
-------------------------------------------------------------------------------
                                 ORCA SCF
-------------------------------------------------------------------------------

------------
SCF SETTINGS
------------
Hamiltonian:
 Density Functional     Method          .... DFT(GTOs)
 Exchange Functional    Exchange        .... PBE
   PBE kappa parameter   XKappa         ....  1.024500
   PBE mue parameter    XMuePBE         ....  0.123457
 Correlation Functional Correlation     .... PBE
   PBE beta parameter  CBetaPBE         ....  0.030000
 LDA part of GGA corr.  LDAOpt          .... PW91-LDA
 Gradients option       PostSCFGGA      .... off
 Hybrid DFT is turned on
   Fraction HF Exchange ScalHFX         ....  0.420000
   Scaling of DF-GGA-X  ScalDFX         ....  0.580000
   Scaling of DF-GGA-C  ScalDFC         ....  1.000000
   Scaling of DF-LDA-C  ScalLDAC        ....  1.000000
   Perturbative correction              ....  0.000000
   Density functional embedding theory  .... OFF
 RI-approximation to the Coulomb term is turned on
   Number of AuxJ basis functions       .... 382
   RIJ-ON(X) (HFX calculated with O(N)) .... on
   Number of AuxJ basis functions       .... 382
   RIJ-COSX (HFX calculated with COS-X)).... on


General Settings:
 Integral files         IntName         .... pbeh-3c
 Hartree-Fock type      HFTyp           .... RHF
 Total Charge           Charge          ....    0
 Multiplicity           Mult            ....    1
 Number of Electrons    NEL             ....   44
 Basis Dimension        Dim             ....  106
 Nuclear Repulsion      ENuc            ....    218.5553698902 Eh

Convergence Acceleration:
 DIIS                   CNVDIIS         .... on
   Start iteration      DIISMaxIt       ....    12
   Startup error        DIISStart       ....  0.200000
   # of expansion vecs  DIISMaxEq       ....     5
   Bias factor          DIISBfac        ....   1.050
   Max. coefficient     DIISMaxC        ....  10.000
 Trust-Rad. Augm. Hess. CNVTRAH         .... auto
   Auto Start mean grad. ratio tolernc. ....  1.125000
   Auto Start start iteration           ....    20
   Auto Start num. interpolation iter.  ....    10
   Max. Number of Micro iterations      ....    16
   Max. Number of Macro iterations      .... Maxiter - #DIIS iter
   Number of Davidson start vectors     ....     2
   Converg. threshold I  (grad. norm)   ....   1.000e-05
   Converg. threshold II (energy diff.) ....   1.000e-08
   Grad. Scal. Fac. for Micro threshold ....   0.100
   Minimum threshold for Micro iter.    ....   0.010
   NR start threshold (gradient norm)   ....   0.001
   Initial trust radius                 ....   0.400
   Minimum AH scaling param. (alpha)    ....   1.000
   Maximum AH scaling param. (alpha)    .... 1000.000
   Orbital update algorithm             .... Taylor
   White noise on init. David. guess    .... on
   Maximum white noise                  ....   0.010
   Quad. conv. algorithm                .... NR
   COSX micro iterations for RIJONX calc.... off
 SOSCF                  CNVSOSCF        .... on
   Start iteration      SOSCFMaxIt      ....   150
   Startup grad/error   SOSCFStart      ....  0.003300
 Level Shifting         CNVShift        .... on
   Level shift para.    LevelShift      ....    0.2500
   Turn off err/grad.   ShiftErr        ....    0.0010
 Zerner damping         CNVZerner       .... off
 Static damping         CNVDamp         .... on
   Fraction old density DampFac         ....    0.7000
   Max. Damping (<1)    DampMax         ....    0.9800
   Min. Damping (>=0)   DampMin         ....    0.0000
   Turn off err/grad.   DampErr         ....    0.1000
 Fernandez-Rico         CNVRico         .... off

SCF Procedure:
 Maximum # iterations   MaxIter         ....   125
 SCF integral mode      SCFMode         .... Direct
   Integral package                     .... SHARK and LIBINT hybrid scheme
 Reset frequency        DirectResetFreq ....    20
 Integral Threshold     Thresh          ....  2.500e-11 Eh
 Primitive CutOff       TCut            ....  2.500e-12 Eh

Convergence Tolerance:
 Convergence Check Mode ConvCheckMode   .... Total+1el-Energy
 Convergence forced     ConvForced      .... 0
 Energy Change          TolE            ....  1.000e-08 Eh
 1-El. energy change                    ....  1.000e-05 Eh
 Orbital Gradient       TolG            ....  1.000e-05
 Orbital Rotation angle TolX            ....  1.000e-05
 DIIS Error             TolErr          ....  5.000e-07


Diagonalization of the overlap matrix:
Smallest eigenvalue                        ... 1.403e-03
Time for diagonalization                   ...    0.002 sec
Threshold for overlap eigenvalues          ... 1.000e-08
Number of eigenvalues below threshold      ... 0
Time for construction of square roots      ...    0.292 sec
Total time needed                          ...    0.294 sec

--------------------------------
INITIAL GUESS: MINIMAL BASIS EHT
--------------------------------
The minimal basis has 38 functions
EHT matrix was diagonalized
Basis set overlap was calculated now projecting the orbitals
Using GuessMode=FMatrix for the initial guess
C*T matrix was formed
Effective Fockian was calculated
Effective Fockian was diagonalized
Initial density was built
                      ------------------
                      INITIAL GUESS DONE
                      ------------------
-------------------
DFT GRID GENERATION
-------------------

General Integration Accuracy     IntAcc      ... 4.959
Radial Grid Type                 RadialGrid  ... OptM3 with GC (2021)
Angular Grid (max. ang.)         AngularGrid ... 6 (Lebedev-590)
Angular grid pruning method      GridPruning ... 4 (adaptive)
Weight generation scheme         WeightScheme... Becke
Basis function cutoff            BFCut       ... 1.0000e-11
Integration weight cutoff        WCut        ... 1.0000e-14
Angular grids for H and He will be reduced by one unit
Partially contracted basis set               ... off
Rotationally invariant grid construction     ... off

Total number of grid points                  ...   155544
Total number of batches                      ...     2438
Average number of points per batch           ...       63
Average number of grid points per atom       ...    11110
Time for grid setup =    3.385 sec

--------------------
COSX GRID GENERATION
--------------------

GRIDX 1
-------
General Integration Accuracy     IntAcc      ... 4.020
Radial Grid Type                 RadialGrid  ... OptM3 with GC (2021)
Angular Grid (max. ang.)         AngularGrid ... 2 (Lebedev-110)
Angular grid pruning method      GridPruning ... 4 (adaptive)
Weight generation scheme         WeightScheme... Becke
Basis function cutoff            BFCut       ... 1.0000e-11
Integration weight cutoff        WCut        ... 1.0000e-14
Angular grids for H and He will be reduced by one unit
Partially contracted basis set               ... on
Rotationally invariant grid construction     ... off

Total number of grid points                  ...    16934
Total number of batches                      ...      272
Average number of points per batch           ...       62
Average number of grid points per atom       ...     1210
UseSFitting                                  ... on

GRIDX 2
-------
General Integration Accuracy     IntAcc      ... 4.338
Radial Grid Type                 RadialGrid  ... OptM3 with GC (2021)
Angular Grid (max. ang.)         AngularGrid ... 3 (Lebedev-194)
Angular grid pruning method      GridPruning ... 4 (adaptive)
Weight generation scheme         WeightScheme... Becke
Basis function cutoff            BFCut       ... 1.0000e-11
Integration weight cutoff        WCut        ... 1.0000e-14
Angular grids for H and He will be reduced by one unit
Partially contracted basis set               ... on
Rotationally invariant grid construction     ... off

Total number of grid points                  ...    37114
Total number of batches                      ...      588
Average number of points per batch           ...       63
Average number of grid points per atom       ...     2651
UseSFitting                                  ... on

GRIDX 3
-------
General Integration Accuracy     IntAcc      ... 4.871
Radial Grid Type                 RadialGrid  ... OptM3 with GC (2021)
Angular Grid (max. ang.)         AngularGrid ... 4 (Lebedev-302)
Angular grid pruning method      GridPruning ... 4 (adaptive)
Weight generation scheme         WeightScheme... Becke
Basis function cutoff            BFCut       ... 1.0000e-11
Integration weight cutoff        WCut        ... 1.0000e-14
Angular grids for H and He will be reduced by one unit
Partially contracted basis set               ... on
Rotationally invariant grid construction     ... off

Total number of grid points                  ...    72166
Total number of batches                      ...     1138
Average number of points per batch           ...       63
Average number of grid points per atom       ...     5155
UseSFitting                                  ... on

Time for X-Grid setup             =    3.477 sec

--------------
SCF ITERATIONS
--------------
ITER       Energy         Delta-E        Max-DP      RMS-DP      [F,P]     Damp
               ***  Starting incremental Fock matrix formation  ***
  0   -232.3917814980   0.000000000000 0.06433249  0.00404456  0.4055715 0.7000
  1   -232.5408003190  -0.149018821083 0.04859051  0.00298086  0.2854757 0.7000
                               ***Turning on DIIS***
  2   -232.6480600080  -0.107259688950 0.03561702  0.00219535  0.1998954 0.7000
  3   -232.7246133663  -0.076553358306 0.02746036  0.00171651  0.1400957 0.7000
  4   -232.7790780728  -0.054464706461 0.06689161  0.00426604  0.0982860 0.0000
                      *** Initiating the SOSCF procedure ***
                           *** Shutting down DIIS ***
                      *** Re-Reading the Fockian *** 
                      *** Removing any level shift *** 
ITER      Energy       Delta-E        Grad      Rot      Max-DP    RMS-DP
  5   -232.90965597  -0.1305779006  0.002487  0.002487  0.003330  0.000155
               *** Restarting incremental Fock matrix formation ***
  6   -232.90972552  -0.0000695429  0.000803  0.000942  0.001560  0.000086
  7   -232.90973543  -0.0000099148  0.000277  0.000752  0.001096  0.000041
  8   -232.90973594  -0.0000005043  0.000272  0.000402  0.000551  0.000019
  9   -232.90973687  -0.0000009368  0.000035  0.000053  0.000101  0.000005
 10   -232.90973688  -0.0000000032  0.000028  0.000022  0.000053  0.000003
                  ***Gradient check signals convergence***
              ***Rediagonalizing the Fockian in SOSCF/NRSCF***

               *****************************************************
               *                     SUCCESS                       *
               *           SCF CONVERGED AFTER  11 CYCLES          *
               *****************************************************

Old exchange energy                            =    -14.234432086 Eh
New exchange energy                            =    -14.234421980 Eh
Exchange energy change after final integration =      0.000010106 Eh
Total energy after final integration           =   -232.909726801 Eh
Final COS-X integration done in                =     2.362 sec

----------------
TOTAL SCF ENERGY
----------------

Total Energy       :         -232.90972680 Eh           -6337.79587 eV

Components:
Nuclear Repulsion  :          218.55536989 Eh            5947.19396 eV
Electronic Energy  :         -451.46509669 Eh          -12284.98984 eV
One Electron Energy:         -745.51541634 Eh          -20286.50582 eV
Two Electron Energy:          294.05031965 Eh            8001.51599 eV
Max COSX asymmetry :            0.00000085 Eh               0.00002 eV

Virial components:
Potential Energy   :         -463.75557257 Eh          -12619.43069 eV
Kinetic Energy     :          230.84584577 Eh            6281.63482 eV
Virial Ratio       :            2.00894052


DFT components:
N(Alpha)           :       22.000001943479 electrons
N(Beta)            :       22.000001943479 electrons
N(Total)           :       44.000003886959 electrons
E(X)               :      -18.881515641878 Eh       
E(C)               :       -1.877856000669 Eh       
E(XC)              :      -20.759371642547 Eh       
DFET-embed. en.    :        0.000000000000 Eh       

---------------
SCF CONVERGENCE
---------------

  Last Energy change         ...   -3.1247e-08  Tolerance :   1.0000e-08
  Last MAX-Density change    ...    1.1102e-15  Tolerance :   1.0000e-07
  Last RMS-Density change    ...    4.2127e-17  Tolerance :   5.0000e-09
  Last Orbital Gradient      ...    9.6598e-07  Tolerance :   1.0000e-05
  Last Orbital Rotation      ...    2.5029e-06  Tolerance :   1.0000e-05

             **** THE GBW FILE WAS UPDATED (pbeh-3c.gbw) ****
             **** DENSITY pbeh-3c.scfp WAS UPDATED ****
             **** ENERGY FILE WAS UPDATED (pbeh-3c.en.tmp) ****
             **** THE GBW FILE WAS UPDATED (pbeh-3c.gbw) ****
             **** DENSITY pbeh-3c.scfp WAS UPDATED ****
----------------
ORBITAL ENERGIES
----------------

  NO   OCC          E(Eh)            E(eV) 
   0   2.0000     -10.443181      -284.1734 
   1   2.0000     -10.443155      -284.1727 
   2   2.0000     -10.441631      -284.1312 
   3   2.0000     -10.441419      -284.1255 
   4   2.0000     -10.439395      -284.0704 
   5   2.0000     -10.439104      -284.0624 
   6   2.0000      -0.931079       -25.3360 
   7   2.0000      -0.827122       -22.5071 
   8   2.0000      -0.826190       -22.4818 
   9   2.0000      -0.692801       -18.8521 
  10   2.0000      -0.659651       -17.9500 
  11   2.0000      -0.569233       -15.4896 
  12   2.0000      -0.549074       -14.9411 
  13   2.0000      -0.499496       -13.5920 
  14   2.0000      -0.479503       -13.0479 
  15   2.0000      -0.471132       -12.8202 
  16   2.0000      -0.444629       -12.0990 
  17   2.0000      -0.419790       -11.4231 
  18   2.0000      -0.383226       -10.4281 
  19   2.0000      -0.366159        -9.9637 
  20   2.0000      -0.351951        -9.5771 
  21   2.0000      -0.249487        -6.7889 
  22   0.0000       0.000686         0.0187 
  23   0.0000       0.113518         3.0890 
  24   0.0000       0.147350         4.0096 
  25   0.0000       0.185698         5.0531 
  26   0.0000       0.191230         5.2036 
  27   0.0000       0.204016         5.5516 
  28   0.0000       0.206644         5.6231 
  29   0.0000       0.214542         5.8380 
  30   0.0000       0.245049         6.6681 
  31   0.0000       0.257046         6.9946 
  32   0.0000       0.263857         7.1799 
  33   0.0000       0.276467         7.5230 
  34   0.0000       0.305217         8.3054 
  35   0.0000       0.347679         9.4608 
  36   0.0000       0.404005        10.9935 
  37   0.0000       0.465682        12.6719 
  38   0.0000       0.486983        13.2515 
  39   0.0000       0.529017        14.3953 
  40   0.0000       0.563697        15.3390 
  41   0.0000       0.570345        15.5199 
  42   0.0000       0.578394        15.7389 
  43   0.0000       0.603338        16.4177 
  44   0.0000       0.612658        16.6713 
  45   0.0000       0.618496        16.8301 
  46   0.0000       0.656880        17.8746 
  47   0.0000       0.665828        18.1181 
  48   0.0000       0.677525        18.4364 
  49   0.0000       0.709744        19.3131 
  50   0.0000       0.714833        19.4516 
  51   0.0000       0.793064        21.5804 
  52   0.0000       0.858310        23.3558 
  53   0.0000       0.910346        24.7718 
  54   0.0000       0.934673        25.4338 
  55   0.0000       0.959459        26.1082 
  56   0.0000       0.982267        26.7288 
  57   0.0000       0.994751        27.0685 
  58   0.0000       1.013813        27.5872 
  59   0.0000       1.022586        27.8260 
  60   0.0000       1.035520        28.1779 
  61   0.0000       1.049542        28.5595 
  62   0.0000       1.063997        28.9528 
  63   0.0000       1.077547        29.3215 
  64   0.0000       1.124831        30.6082 
  65   0.0000       1.169673        31.8284 
  66   0.0000       1.220705        33.2171 
  67   0.0000       1.289648        35.0931 
  68   0.0000       1.335849        36.3503 
  69   0.0000       1.430141        38.9161 
  70   0.0000       1.515560        41.2405 
  71   0.0000       1.567030        42.6411 
  72   0.0000       1.589317        43.2475 
  73   0.0000       1.611306        43.8459 
  74   0.0000       1.629548        44.3423 
  75   0.0000       1.759679        47.8833 
  76   0.0000       1.874333        51.0032 
  77   0.0000       1.883019        51.2396 
  78   0.0000       1.952460        53.1291 
  79   0.0000       1.986270        54.0492 
  80   0.0000       1.987968        54.0954 
  81   0.0000       2.053731        55.8849 
  82   0.0000       2.097788        57.0837 
  83   0.0000       2.111999        57.4704 
  84   0.0000       2.229357        60.6639 
  85   0.0000       2.238743        60.9193 
  86   0.0000       2.273204        61.8570 
  87   0.0000       2.285180        62.1829 
  88   0.0000       2.366857        64.4055 
  89   0.0000       2.445851        66.5550 
  90   0.0000       2.447686        66.6049 
  91   0.0000       2.565375        69.8074 
  92   0.0000       2.587288        70.4037 
  93   0.0000       2.615028        71.1585 
  94   0.0000       2.667723        72.5924 
  95   0.0000       2.719256        73.9947 
  96   0.0000       2.743138        74.6446 
  97   0.0000       2.797578        76.1260 
  98   0.0000       2.986357        81.2629 
  99   0.0000       3.243915        88.2714 
 100   0.0000      13.306376       362.0849 
 101   0.0000      13.623487       370.7139 
 102   0.0000      13.782665       375.0454 
 103   0.0000      13.991411       380.7257 
 104   0.0000      14.125565       384.3762 
 105   0.0000      14.317206       389.5910 

                    ********************************
                    * MULLIKEN POPULATION ANALYSIS *
                    ********************************

-----------------------
MULLIKEN ATOMIC CHARGES
-----------------------
   0 C :   -0.219479
   1 H :    0.218648
   2 C :   -0.206583
   3 H :    0.215871
   4 C :   -0.206584
   5 H :    0.215871
   6 C :   -0.219479
   7 H :    0.218648
   8 C :   -0.463360
   9 H :    0.230101
  10 H :    0.224802
  11 C :   -0.463360
  12 H :    0.230101
  13 H :    0.224802
Sum of atomic charges:   -0.0000000

--------------------------------
MULLIKEN REDUCED ORBITAL CHARGES
--------------------------------
  0 C s       :     3.259284  s :     3.259284
      pz      :     0.896604  p :     2.921391
      px      :     1.050596
      py      :     0.974191
      dz2     :     0.012063  d :     0.038804
      dxz     :     0.010013
      dyz     :     0.007338
      dx2y2   :     0.007186
      dxy     :     0.002203
  1 H s       :     0.781352  s :     0.781352
  2 C s       :     3.230453  s :     3.230453
      pz      :     1.000082  p :     2.936657
      px      :     0.924998
      py      :     1.011578
      dz2     :     0.010850  d :     0.039473
      dxz     :     0.012495
      dyz     :     0.004459
      dx2y2   :     0.005848
      dxy     :     0.005821
  3 H s       :     0.784129  s :     0.784129
  4 C s       :     3.230453  s :     3.230453
      pz      :     1.000082  p :     2.936657
      px      :     0.924998
      py      :     1.011578
      dz2     :     0.010850  d :     0.039473
      dxz     :     0.012495
      dyz     :     0.004459
      dx2y2   :     0.005848
      dxy     :     0.005821
  5 H s       :     0.784129  s :     0.784129
  6 C s       :     3.259284  s :     3.259284
      pz      :     0.896604  p :     2.921391
      px      :     1.050596
      py      :     0.974191
      dz2     :     0.012063  d :     0.038804
      dxz     :     0.010013
      dyz     :     0.007338
      dx2y2   :     0.007186
      dxy     :     0.002203
  7 H s       :     0.781352  s :     0.781352
  8 C s       :     3.342974  s :     3.342974
      pz      :     1.013786  p :     3.077155
      px      :     0.946892
      py      :     1.116477
      dz2     :     0.009162  d :     0.043231
      dxz     :     0.011085
      dyz     :     0.005923
      dx2y2   :     0.011786
      dxy     :     0.005276
  9 H s       :     0.769899  s :     0.769899
 10 H s       :     0.775198  s :     0.775198
 11 C s       :     3.342974  s :     3.342974
      pz      :     1.013786  p :     3.077155
      px      :     0.946892
      py      :     1.116477
      dz2     :     0.009162  d :     0.043231
      dxz     :     0.011085
      dyz     :     0.005923
      dx2y2   :     0.011786
      dxy     :     0.005276
 12 H s       :     0.769899  s :     0.769899
 13 H s       :     0.775198  s :     0.775198


                     *******************************
                     * LOEWDIN POPULATION ANALYSIS *
                     *******************************

----------------------
LOEWDIN ATOMIC CHARGES
----------------------
   0 C :   -0.138317
   1 H :    0.131946
   2 C :   -0.156939
   3 H :    0.133372
   4 C :   -0.156939
   5 H :    0.133372
   6 C :   -0.138317
   7 H :    0.131946
   8 C :   -0.236462
   9 H :    0.134801
  10 H :    0.131599
  11 C :   -0.236462
  12 H :    0.134801
  13 H :    0.131599

-------------------------------
LOEWDIN REDUCED ORBITAL CHARGES
-------------------------------
  0 C s       :     2.913466  s :     2.913466
      pz      :     1.080084  p :     3.138981
      px      :     1.079246
      py      :     0.979651
      dz2     :     0.029236  d :     0.085870
      dxz     :     0.026134
      dyz     :     0.014708
      dx2y2   :     0.012036
      dxy     :     0.003756
  1 H s       :     0.868054  s :     0.868054
  2 C s       :     2.900251  s :     2.900251
      pz      :     1.096808  p :     3.167557
      px      :     1.066530
      py      :     1.004220
      dz2     :     0.025812  d :     0.089131
      dxz     :     0.030274
      dyz     :     0.007832
      dx2y2   :     0.013017
      dxy     :     0.012195
  3 H s       :     0.866628  s :     0.866628
  4 C s       :     2.900251  s :     2.900251
      pz      :     1.096808  p :     3.167557
      px      :     1.066530
      py      :     1.004220
      dz2     :     0.025812  d :     0.089131
      dxz     :     0.030274
      dyz     :     0.007832
      dx2y2   :     0.013017
      dxy     :     0.012195
  5 H s       :     0.866628  s :     0.866628
  6 C s       :     2.913466  s :     2.913466
      pz      :     1.080084  p :     3.138981
      px      :     1.079246
      py      :     0.979651
      dz2     :     0.029236  d :     0.085870
      dxz     :     0.026134
      dyz     :     0.014708
      dx2y2   :     0.012036
      dxy     :     0.003756
  7 H s       :     0.868054  s :     0.868054
  8 C s       :     2.909355  s :     2.909355
      pz      :     1.072527  p :     3.239724
      px      :     1.058115
      py      :     1.109082
      dz2     :     0.019249  d :     0.087384
      dxz     :     0.023338
      dyz     :     0.011104
      dx2y2   :     0.023024
      dxy     :     0.010669
  9 H s       :     0.865199  s :     0.865199
 10 H s       :     0.868401  s :     0.868401
 11 C s       :     2.909355  s :     2.909355
      pz      :     1.072527  p :     3.239724
      px      :     1.058115
      py      :     1.109082
      dz2     :     0.019249  d :     0.087384
      dxz     :     0.023338
      dyz     :     0.011104
      dx2y2   :     0.023024
      dxy     :     0.010669
 12 H s       :     0.865199  s :     0.865199
 13 H s       :     0.868401  s :     0.868401


                      *****************************
                      * MAYER POPULATION ANALYSIS *
                      *****************************

  NA   - Mulliken gross atomic population
  ZA   - Total nuclear charge
  QA   - Mulliken gross atomic charge
  VA   - Mayer's total valence
  BVA  - Mayer's bonded valence
  FA   - Mayer's free valence

  ATOM       NA         ZA         QA         VA         BVA        FA
  0 C      6.2195     6.0000    -0.2195     3.7682     3.7682     0.0000
  1 H      0.7814     1.0000     0.2186     0.9184     0.9184    -0.0000
  2 C      6.2066     6.0000    -0.2066     3.8201     3.8201    -0.0000
  3 H      0.7841     1.0000     0.2159     0.9134     0.9134    -0.0000
  4 C      6.2066     6.0000    -0.2066     3.8201     3.8201    -0.0000
  5 H      0.7841     1.0000     0.2159     0.9134     0.9134     0.0000
  6 C      6.2195     6.0000    -0.2195     3.7682     3.7682    -0.0000
  7 H      0.7814     1.0000     0.2186     0.9184     0.9184    -0.0000
  8 C      6.4634     6.0000    -0.4634     3.7384     3.7384     0.0000
  9 H      0.7699     1.0000     0.2301     0.8964     0.8964     0.0000
 10 H      0.7752     1.0000     0.2248     0.9064     0.9064     0.0000
 11 C      6.4634     6.0000    -0.4634     3.7384     3.7384     0.0000
 12 H      0.7699     1.0000     0.2301     0.8964     0.8964     0.0000
 13 H      0.7752     1.0000     0.2248     0.9064     0.9064     0.0000

  Mayer bond orders larger than 0.100000
B(  0-C ,  1-H ) :   0.9232 B(  0-C ,  2-C ) :   1.8358 B(  0-C , 11-C ) :   0.9906 
B(  2-C ,  3-H ) :   0.9189 B(  2-C ,  4-C ) :   1.0931 B(  4-C ,  5-H ) :   0.9189 
B(  4-C ,  6-C ) :   1.8358 B(  6-C ,  7-H ) :   0.9232 B(  6-C ,  8-C ) :   0.9906 
B(  8-C ,  9-H ) :   0.9022 B(  8-C , 10-H ) :   0.9194 B(  8-C , 11-C ) :   0.9829 
B( 11-C , 12-H ) :   0.9022 B( 11-C , 13-H ) :   0.9194 

-------
TIMINGS
-------

Total SCF time: 0 days 0 hours 1 min 1 sec 

Total time                  ....      61.967 sec
Sum of individual times     ....      55.401 sec  ( 89.4%)

Fock matrix formation       ....      45.448 sec  ( 73.3%)
  Split-RI-J                ....       4.736 sec  ( 10.4% of F)
  Chain of spheres X        ....      16.179 sec  ( 35.6% of F)
  XC integration            ....      13.528 sec  ( 29.8% of F)
    Basis function eval.    ....       1.888 sec  ( 14.0% of XC)
    Density eval.           ....       1.298 sec  (  9.6% of XC)
    XC-Functional eval.     ....       0.892 sec  (  6.6% of XC)
    XC-Potential eval.      ....       0.742 sec  (  5.5% of XC)
Diagonalization             ....       0.709 sec  (  1.1%)
Density matrix formation    ....       0.062 sec  (  0.1%)
Population analysis         ....       0.439 sec  (  0.7%)
Initial guess               ....       0.016 sec  (  0.0%)
Orbital Transformation      ....       0.000 sec  (  0.0%)
Orbital Orthonormalization  ....       0.000 sec  (  0.0%)
DIIS solution               ....       1.218 sec  (  2.0%)
SOSCF solution              ....       0.646 sec  (  1.0%)
Grid generation             ....       6.862 sec  ( 11.1%)

Maximum memory used throughout the entire SCF-calculation: 51.9 MB


-------------------------------------------------------------------------------
                          DFT DISPERSION CORRECTION                            
                                                                               
                              DFTD3 V3.1  Rev 1                                
                          USING Becke-Johnson damping                          
-------------------------------------------------------------------------------
The PBEh-3c composite method is recognized
Using three-body term ABC
Active option DFTDOPT                   ...         4   

molecular C6(AA) [au] = 1826.321797 


            DFT-D V3
 parameters
 s6 scaling factor         :     1.0000 
 a1 scaling factor         :     0.4860 
 s8 scaling factor         :     0.0000 
 a2 scaling factor         :     4.5000 
 Damping factor alpha9(ATM):    16.0000 
 ad hoc parameters k1-k3   :    16.0000     1.3333    -4.0000 

 Edisp/kcal,au: -4.258653905793  -0.006786596263 
 E6   /kcal   :  -4.273527273 
 E8   /kcal   :  -0.000000000 
 E6(ABC)      :   0.014873367 
 % E8         :   0.000000000 
 % E6(ABC)    :  -0.349250433 

-------------------------   ----------------
Dispersion correction           -0.006786596
-------------------------   ----------------

------------------   -----------------
gCP correction             0.019157073
------------------   -----------------

-------------------------   --------------------
FINAL SINGLE POINT ENERGY      -232.897356323718
-------------------------   --------------------


                            ***************************************
                            *     ORCA property calculations      *
                            ***************************************

                                    ---------------------
                                    Active property flags
                                    ---------------------
   (+) Dipole Moment


------------------------------------------------------------------------------
                       ORCA ELECTRIC PROPERTIES CALCULATION
------------------------------------------------------------------------------

Dipole Moment Calculation                       ... on
Quadrupole Moment Calculation                   ... off
Polarizability Calculation                      ... off
GBWName                                         ... pbeh-3c.gbw
Electron density                                ... pbeh-3c.scfp
The origin for moment calculation is the CENTER OF MASS  = (-0.000000, -0.000000 -0.291348)

-------------
DIPOLE MOMENT
-------------
                                X             Y             Z
Electronic contribution:     -0.00000       0.00000      -2.02680
Nuclear contribution   :     -0.00000       0.00000       2.21052
                        -----------------------------------------
Total Dipole Moment    :     -0.00000       0.00000       0.18372
                        -----------------------------------------
Magnitude (a.u.)       :      0.18372
Magnitude (Debye)      :      0.46698



--------------------
Rotational spectrum 
--------------------
 
Rotational constants in cm-1:     0.168468     0.168034     0.089113 
Rotational constants in MHz :  5050.536592  5037.532961  2671.554197 

 Dipole components along the rotational axes: 
x,y,z [a.u.] :     0.183720     0.000000    -0.000000 
x,y,z [Debye]:     0.466980     0.000000    -0.000000 

 

Timings for individual modules:

Sum of individual times         ...       66.212 sec (=   1.104 min)
GTO integral calculation        ...        3.013 sec (=   0.050 min)   4.5 %
SCF iterations                  ...       63.200 sec (=   1.053 min)  95.5 %
                             ****ORCA TERMINATED NORMALLY****
TOTAL RUN TIME: 0 days 0 hours 1 minutes 12 seconds 790 msec
