
                                 *****************
                                 * O   R   C   A *
                                 *****************

                                            #,                                       
                                            ###                                      
                                            ####                                     
                                            #####                                    
                                            ######                                   
                                           ########,                                 
                                     ,,################,,,,,                         
                               ,,#################################,,                 
                          ,,##########################################,,             
                       ,#########################################, ''#####,          
                    ,#############################################,,   '####,        
                  ,##################################################,,,,####,       
                ,###########''''           ''''###############################       
              ,#####''   ,,,,##########,,,,          '''####'''          '####       
            ,##' ,,,,###########################,,,                        '##       
           ' ,,###''''                  '''############,,,                           
         ,,##''                                '''############,,,,        ,,,,,,###''
      ,#''                                            '''#######################'''  
     '                                                          ''''####''''         
             ,#######,   #######,   ,#######,      ##                                
            ,#'     '#,  ##    ##  ,#'     '#,    #''#        ######   ,####,        
            ##       ##  ##   ,#'  ##            #'  '#       #        #'  '#        
            ##       ##  #######   ##           ,######,      #####,   #    #        
            '#,     ,#'  ##    ##  '#,     ,#' ,#      #,         ##   #,  ,#        
             '#######'   ##     ##  '#######'  #'      '#     #####' # '####'        



                  #######################################################
                  #                        -***-                        #
                  #          Department of theory and spectroscopy      #
                  #    Directorship and core code : Frank Neese         #
                  #        Max Planck Institute fuer Kohlenforschung    #
                  #                Kaiser Wilhelm Platz 1               #
                  #                 D-45470 Muelheim/Ruhr               #
                  #                      Germany                        #
                  #                                                     #
                  #                  All rights reserved                #
                  #                        -***-                        #
                  #######################################################


                         Program Version 5.0.3 -  RELEASE  -


 With contributions from (in alphabetic order):
   Daniel Aravena         : Magnetic Suceptibility
   Michael Atanasov       : Ab Initio Ligand Field Theory (pilot matlab implementation)
   Alexander A. Auer      : GIAO ZORA, VPT2 properties, NMR spectrum
   Ute Becker             : Parallelization
   Giovanni Bistoni       : ED, misc. LED, open-shell LED, HFLD
   Martin Brehm           : Molecular dynamics
   Dmytro Bykov           : SCF Hessian
   Vijay G. Chilkuri      : MRCI spin determinant printing, contributions to CSF-ICE
   Dipayan Datta          : RHF DLPNO-CCSD density
   Achintya Kumar Dutta   : EOM-CC, STEOM-CC
   Dmitry Ganyushin       : Spin-Orbit,Spin-Spin,Magnetic field MRCI
   Miquel Garcia          : C-PCM and meta-GGA Hessian, CC/C-PCM, Gaussian charge scheme
   Yang Guo               : DLPNO-NEVPT2, F12-NEVPT2, CIM, IAO-localization
   Andreas Hansen         : Spin unrestricted coupled pair/coupled cluster methods
   Benjamin Helmich-Paris : MC-RPA, TRAH-SCF, COSX integrals
   Lee Huntington         : MR-EOM, pCC
   Robert Izsak           : Overlap fitted RIJCOSX, COSX-SCS-MP3, EOM
   Marcus Kettner         : VPT2
   Christian Kollmar      : KDIIS, OOCD, Brueckner-CCSD(T), CCSD density, CASPT2, CASPT2-K
   Simone Kossmann        : Meta GGA functionals, TD-DFT gradient, OOMP2, MP2 Hessian
   Martin Krupicka        : Initial AUTO-CI
   Lucas Lang             : DCDCAS
   Marvin Lechner         : AUTO-CI (C++ implementation), FIC-MRCC
   Dagmar Lenk            : GEPOL surface, SMD
   Dimitrios Liakos       : Extrapolation schemes; Compound Job, initial MDCI parallelization
   Dimitrios Manganas     : Further ROCIS development; embedding schemes
   Dimitrios Pantazis     : SARC Basis sets
   Anastasios Papadopoulos: AUTO-CI, single reference methods and gradients
   Taras Petrenko         : DFT Hessian,TD-DFT gradient, ASA, ECA, R-Raman, ABS, FL, XAS/XES, NRVS
   Peter Pinski           : DLPNO-MP2, DLPNO-MP2 Gradient
   Christoph Reimann      : Effective Core Potentials
   Marius Retegan         : Local ZFS, SOC
   Christoph Riplinger    : Optimizer, TS searches, QM/MM, DLPNO-CCSD(T), (RO)-DLPNO pert. Triples
   Tobias Risthaus        : Range-separated hybrids, TD-DFT gradient, RPA, STAB
   Michael Roemelt        : Original ROCIS implementation
   Masaaki Saitow         : Open-shell DLPNO-CCSD energy and density
   Barbara Sandhoefer     : DKH picture change effects
   Avijit Sen             : IP-ROCIS
   Kantharuban Sivalingam : CASSCF convergence, NEVPT2, FIC-MRCI
   Bernardo de Souza      : ESD, SOC TD-DFT
   Georgi Stoychev        : AutoAux, RI-MP2 NMR, DLPNO-MP2 response
   Willem Van den Heuvel  : Paramagnetic NMR
   Boris Wezisla          : Elementary symmetry handling
   Frank Wennmohs         : Technical directorship


 We gratefully acknowledge several colleagues who have allowed us to
 interface, adapt or use parts of their codes:
   Stefan Grimme, W. Hujo, H. Kruse, P. Pracht,  : VdW corrections, initial TS optimization,
                  C. Bannwarth, S. Ehlert          DFT functionals, gCP, sTDA/sTD-DF
   Ed Valeev, F. Pavosevic, A. Kumar             : LibInt (2-el integral package), F12 methods
   Garnet Chan, S. Sharma, J. Yang, R. Olivares  : DMRG
   Ulf Ekstrom                                   : XCFun DFT Library
   Mihaly Kallay                                 : mrcc  (arbitrary order and MRCC methods)
   Jiri Pittner, Ondrej Demel                    : Mk-CCSD
   Frank Weinhold                                : gennbo (NPA and NBO analysis)
   Christopher J. Cramer and Donald G. Truhlar   : smd solvation model
   Lars Goerigk                                  : TD-DFT with DH, B97 family of functionals
   V. Asgeirsson, H. Jonsson                     : NEB implementation
   FAccTs GmbH                                   : IRC, NEB, NEB-TS, DLPNO-Multilevel, CI-OPT
                                                   MM, QMMM, 2- and 3-layer-ONIOM, Crystal-QMMM,
                                                   LR-CPCM, SF, NACMEs, symmetry and pop. for TD-DFT,
                                                   nearIR, NL-DFT gradient (VV10), updates on ESD,
                                                   ML-optimized integration grids
   S Lehtola, MJT Oliveira, MAL Marques          : LibXC Library
   Liviu Ungur et al                             : ANISO software


 Your calculation uses the libint2 library for the computation of 2-el integrals
 For citations please refer to: http://libint.valeyev.net

 Your ORCA version has been built with support for libXC version: 5.1.0
 For citations please refer to: https://tddft.org/programs/libxc/

 This ORCA versions uses:
   CBLAS   interface :  Fast vector & matrix operations
   LAPACKE interface :  Fast linear algebra routines
   SCALAPACK package :  Parallel linear algebra routines
   Shared memory     :  Shared parallel matrices
   BLAS/LAPACK       :  OpenBLAS 0.3.15  USE64BITINT DYNAMIC_ARCH NO_AFFINITY Haswell SINGLE_THREADED
        Core in use  :  Haswell
   Copyright (c) 2011-2014, The OpenBLAS Project




***************************************
The coordinates will be read from file: 24.xyz
***************************************


Your calculation utilizes the geometrical counterpoise correction gCP
Please cite in your paper:
H.Kruse, S. Grimme J.Chem.Phys., 136, (2012), 154101 
   

Your calculation utilizes the atom-pairwise dispersion correction
with the Becke-Johnson damping scheme (D3BJ)
Cite in your paper:
S.Grimme, S.Ehrlich, L.Goerigk, J Comput Chem, (2011), 32, 1456–1465 
S.Grimme, J.Antony, S.Ehrlich and H.Krieg, J.Chem.Phys., 132, (2010), 154104 
   

Your calculation employs the composite approach PBEh-3c.
Please cite in your paper:
S. Grimme, J. G. Brandenburg, C. Bannwarth, A. Hansen J.Chem.Phys., 143, (2015), 054107 
   

================================================================================

----- Orbital basis set information -----
Your calculation utilizes the basis: def2-mSVP

----- AuxJ basis set information -----
Your calculation utilizes the auxiliary basis: def2/J
   F. Weigend, Phys. Chem. Chem. Phys. 8, 1057 (2006).

================================================================================
                                        WARNINGS
                       Please study these warnings very carefully!
================================================================================


INFO   : the flag for use of the SHARK integral package has been found!

================================================================================
                                       INPUT FILE
================================================================================
NAME = pbeh-3c.inp
|  1> ! PBEh-3c def2/J TightSCF DefGrid3
|  2> 
|  3> %maxcore 60000
|  4> 
|  5> %pal
|  6> nprocs 4
|  7> end
|  8> 
|  9> *xyzfile 0 1 24.xyz
| 10> 
| 11>                          ****END OF INPUT****
================================================================================

                       ****************************
                       * Single Point Calculation *
                       ****************************

---------------------------------
CARTESIAN COORDINATES (ANGSTROEM)
---------------------------------
  H     -1.110560   -0.141139    0.060860
  F     -1.020328   -0.772588   -2.245784
  F     -1.174174    1.541953   -1.995979
  S     -0.956910    1.879572    2.564041
  H      0.985744    0.096856    3.836888
  F      0.868383    0.492774   -1.607524
  Si     0.297763    0.162161    2.538341
  F     -0.592776   -1.195459    2.419624
  B     -0.383985    0.582485   -2.509309
  O      1.332824    0.137185    1.290797
  Al     1.421310   -0.595333   -0.253844
  Si    -1.386256   -1.519195   -0.510256
  H     -1.207649    1.822738    1.240130
  H      0.203387   -1.855593   -0.424749
  H     -0.023140    0.619679   -3.639549
  H      2.746367   -1.256096   -0.763689

----------------------------
CARTESIAN COORDINATES (A.U.)
----------------------------
  NO LB      ZA    FRAG     MASS         X           Y           Z
   0 H     1.0000    0     1.008   -2.098655   -0.266713    0.115010
   1 F     9.0000    0    18.998   -1.928141   -1.459980   -4.243917
   2 F     9.0000    0    18.998   -2.218867    2.913869   -3.771854
   3 S    16.0000    0    32.060   -1.808298    3.551877    4.845335
   4 H     1.0000    0     1.008    1.862786    0.183032    7.250668
   5 F     9.0000    0    18.998    1.641007    0.931208   -3.037780
   6 Si   14.0000    0    28.086    0.562690    0.306440    4.796770
   7 F     9.0000    0    18.998   -1.120184   -2.259090    4.572427
   8 B     5.0000    0    10.810   -0.725627    1.100737   -4.741907
   9 O     8.0000    0    15.999    2.518673    0.259243    2.439252
  10 Al   13.0000    0    26.982    2.685888   -1.125017   -0.479696
  11 Si   14.0000    0    28.086   -2.619645   -2.870863   -0.964244
  12 H     1.0000    0     1.008   -2.282126    3.444475    2.343507
  13 H     1.0000    0     1.008    0.384346   -3.506562   -0.802659
  14 H     1.0000    0     1.008   -0.043728    1.171024   -6.877750
  15 H     1.0000    0     1.008    5.189881   -2.373678   -1.443163

--------------------------------
INTERNAL COORDINATES (ANGSTROEM)
--------------------------------
 H      0   0   0     0.000000000000     0.00000000     0.00000000
 F      1   0   0     2.393215575093     0.00000000     0.00000000
 F      2   1   0     2.333060663915    68.44214831     0.00000000
 S      1   2   3     3.220682179116   155.90237336   345.17502221
 H      4   1   2     2.927818152968    89.28483535   233.16835107
 F      3   2   1     2.328886438253    60.86262783    76.63782086
 Si     5   4   1     1.470988613928    43.85162103     5.48444255
 F      7   5   4     1.627969529377   106.45100052   241.47111523
 B      3   2   1     1.344798933153    38.05495776   120.26932204
 O      7   5   4     1.621216913895   112.33474642   125.54166014
 Al    10   7   5     1.711820094697   137.21889096   139.04552148
 Si     1   2   3     1.516978189009    53.43750832   162.04842587
 H      4   1   2     1.348643796719    37.03409215    25.71748085
 H     12   1   2     1.627095888535    89.45406240    86.68735419
 H      9   3   2     1.187027600285   121.31342469   127.19026140
 H     11  10   7     1.565989885855   121.20315261   224.12559325

---------------------------
INTERNAL COORDINATES (A.U.)
---------------------------
 H      0   0   0     0.000000000000     0.00000000     0.00000000
 F      1   0   0     4.522522016361     0.00000000     0.00000000
 F      2   1   0     4.408845708624    68.44214831     0.00000000
 S      1   2   3     6.086207282929   155.90237336   345.17502221
 H      4   1   2     5.532774479033    89.28483535   233.16835107
 F      3   2   1     4.400957565302    60.86262783    76.63782086
 Si     5   4   1     2.779765626440    43.85162103     5.48444255
 F      7   5   4     3.076416564891   106.45100052   241.47111523
 B      3   2   1     2.541301688848    38.05495776   120.26932204
 O      7   5   4     3.063655970943   112.33474642   125.54166014
 Al    10   7   5     3.234871169520   137.21889096   139.04552148
 Si     1   2   3     2.866673328360    53.43750832   162.04842587
 H      4   1   2     2.548567428011    37.03409215    25.71748085
 H     12   1   2     3.074765622960    89.45406240    86.68735419
 H      9   3   2     2.243157077945   121.31342469   127.19026140
 H     11  10   7     2.959292012757   121.20315261   224.12559325

---------------------
BASIS SET INFORMATION
---------------------
There are 7 groups of distinct atoms

 Group   1 Type H   : 4s contracted to 2s pattern {31}
 Group   2 Type F   : 8s4p1d contracted to 4s2p1d pattern {5111/31/1}
 Group   3 Type S   : 10s7p1d contracted to 4s3p1d pattern {5311/511/1}
 Group   4 Type Si  : 10s7p1d contracted to 4s3p1d pattern {5311/511/1}
 Group   5 Type B   : 8s4p1d contracted to 4s2p1d pattern {5111/31/1}
 Group   6 Type O   : 8s4p1d contracted to 4s2p1d pattern {5111/31/1}
 Group   7 Type Al  : 10s7p1d contracted to 4s3p1d pattern {5311/511/1}

Atom   0H    basis set group =>   1
Atom   1F    basis set group =>   2
Atom   2F    basis set group =>   2
Atom   3S    basis set group =>   3
Atom   4H    basis set group =>   1
Atom   5F    basis set group =>   2
Atom   6Si   basis set group =>   4
Atom   7F    basis set group =>   2
Atom   8B    basis set group =>   5
Atom   9O    basis set group =>   6
Atom  10Al   basis set group =>   7
Atom  11Si   basis set group =>   4
Atom  12H    basis set group =>   1
Atom  13H    basis set group =>   1
Atom  14H    basis set group =>   1
Atom  15H    basis set group =>   1
---------------------------------
AUXILIARY/J BASIS SET INFORMATION
---------------------------------
There are 7 groups of distinct atoms

 Group   1 Type H   : 5s2p1d contracted to 3s1p1d pattern {311/2/1}
 Group   2 Type F   : 12s5p4d2f1g contracted to 6s4p3d1f1g pattern {711111/2111/211/2/1}
 Group   3 Type S   : 14s5p5d2f1g contracted to 8s4p3d1f1g pattern {71111111/2111/311/2/1}
 Group   4 Type Si  : 14s5p5d2f1g contracted to 8s4p3d1f1g pattern {71111111/2111/311/2/1}
 Group   5 Type B   : 12s5p4d2f1g contracted to 6s4p3d1f1g pattern {711111/2111/211/2/1}
 Group   6 Type O   : 12s5p4d2f1g contracted to 6s4p3d1f1g pattern {711111/2111/211/2/1}
 Group   7 Type Al  : 14s5p5d2f1g contracted to 8s4p3d1f1g pattern {71111111/2111/311/2/1}

Atom   0H    basis set group =>   1
Atom   1F    basis set group =>   2
Atom   2F    basis set group =>   2
Atom   3S    basis set group =>   3
Atom   4H    basis set group =>   1
Atom   5F    basis set group =>   2
Atom   6Si   basis set group =>   4
Atom   7F    basis set group =>   2
Atom   8B    basis set group =>   5
Atom   9O    basis set group =>   6
Atom  10Al   basis set group =>   7
Atom  11Si   basis set group =>   4
Atom  12H    basis set group =>   1
Atom  13H    basis set group =>   1
Atom  14H    basis set group =>   1
Atom  15H    basis set group =>   1


           ************************************************************
           *        Program running with 4 parallel MPI-processes     *
           *              working on a common directory               *
           ************************************************************
------------------------------------------------------------------------------
                           ORCA GTO INTEGRAL CALCULATION
                           -- RI-GTO INTEGRALS CHOSEN --
------------------------------------------------------------------------------
------------------------------------------------------------------------------
                   ___                                                        
                  /   \      - P O W E R E D   B Y -                         
                 /     \                                                     
                 |  |  |   _    _      __       _____    __    __             
                 |  |  |  | |  | |    /  \     |  _  \  |  |  /  |          
                  \  \/   | |  | |   /    \    | | | |  |  | /  /          
                 / \  \   | |__| |  /  /\  \   | |_| |  |  |/  /          
                |  |  |   |  __  | /  /__\  \  |    /   |      \           
                |  |  |   | |  | | |   __   |  |    \   |  |\   \          
                \     /   | |  | | |  |  |  |  | |\  \  |  | \   \       
                 \___/    |_|  |_| |__|  |__|  |_| \__\ |__|  \__/        
                                                                              
                      - O R C A' S   B I G   F R I E N D -                    
                                      &                                       
                       - I N T E G R A L  F E E D E R -                       
                                                                              
 v1 FN, 2020, v2 2021                                                         
------------------------------------------------------------------------------


Reading SHARK input file pbeh-3c.SHARKINP.tmp ... ok
----------------------
SHARK INTEGRAL PACKAGE
----------------------

Number of atoms                             ...     16
Number of basis functions                   ...    174
Number of shells                            ...     86
Maximum angular momentum                    ...      2
Integral batch strategy                     ... SHARK/LIBINT Hybrid
RI-J (if used) integral strategy            ... SPLIT-RIJ (Revised 2003 algorithm where possible)
Printlevel                                  ...      1
Contraction scheme used                     ... SEGMENTED contraction
Coulomb Range Separation                    ... NOT USED
Exchange Range Separation                   ... NOT USED
Finite Nucleus Model                        ... NOT USED
Auxiliary Coulomb fitting basis             ... AVAILABLE
   # of basis functions in Aux-J            ...    564
   # of shells in Aux-J                     ...    188
   Maximum angular momentum in Aux-J        ...      4
Auxiliary J/K fitting basis                 ... NOT available
Auxiliary Correlation fitting basis         ... NOT available
Auxiliary 'external' fitting basis          ... NOT available
Integral threshold                          ...     2.500000e-11
Primitive cut-off                           ...     2.500000e-12
Primitive pair pre-selection threshold      ...     2.500000e-12

Calculating pre-screening integrals         ... done (  0.2 sec) Dimension = 86
Organizing shell pair data                  ... done (  0.2 sec)
Shell pair information
Total number of shell pairs                 ...      3741
Shell pairs after pre-screening             ...      3078
Total number of primitive shell pairs       ...     15413
Primitive shell pairs kept                  ...      8111
          la=0 lb=0:   1025 shell pairs
          la=1 lb=0:   1049 shell pairs
          la=1 lb=1:    277 shell pairs
          la=2 lb=0:    446 shell pairs
          la=2 lb=1:    226 shell pairs
          la=2 lb=2:     55 shell pairs

Calculating one electron integrals          ... done (  0.3 sec)
Calculating RI/J V-Matrix + Cholesky decomp.... done (  1.4 sec)
Calculating Nuclear repulsion               ... done (  0.0 sec) ENN=    981.842565233621 Eh

SHARK setup successfully completed in   3.1 seconds

Maximum memory used throughout the entire GTOINT-calculation: 11.8 MB


           ************************************************************
           *        Program running with 4 parallel MPI-processes     *
           *              working on a common directory               *
           ************************************************************
-------------------------------------------------------------------------------
                                 ORCA SCF
-------------------------------------------------------------------------------

------------
SCF SETTINGS
------------
Hamiltonian:
 Density Functional     Method          .... DFT(GTOs)
 Exchange Functional    Exchange        .... PBE
   PBE kappa parameter   XKappa         ....  1.024500
   PBE mue parameter    XMuePBE         ....  0.123457
 Correlation Functional Correlation     .... PBE
   PBE beta parameter  CBetaPBE         ....  0.030000
 LDA part of GGA corr.  LDAOpt          .... PW91-LDA
 Gradients option       PostSCFGGA      .... off
 Hybrid DFT is turned on
   Fraction HF Exchange ScalHFX         ....  0.420000
   Scaling of DF-GGA-X  ScalDFX         ....  0.580000
   Scaling of DF-GGA-C  ScalDFC         ....  1.000000
   Scaling of DF-LDA-C  ScalLDAC        ....  1.000000
   Perturbative correction              ....  0.000000
   Density functional embedding theory  .... OFF
 RI-approximation to the Coulomb term is turned on
   Number of AuxJ basis functions       .... 564
   RIJ-ON(X) (HFX calculated with O(N)) .... on
   Number of AuxJ basis functions       .... 564
   RIJ-COSX (HFX calculated with COS-X)).... on


General Settings:
 Integral files         IntName         .... pbeh-3c
 Hartree-Fock type      HFTyp           .... RHF
 Total Charge           Charge          ....    0
 Multiplicity           Mult            ....    1
 Number of Electrons    NEL             ....  112
 Basis Dimension        Dim             ....  174
 Nuclear Repulsion      ENuc            ....    981.8425652336 Eh

Convergence Acceleration:
 DIIS                   CNVDIIS         .... on
   Start iteration      DIISMaxIt       ....    12
   Startup error        DIISStart       ....  0.200000
   # of expansion vecs  DIISMaxEq       ....     5
   Bias factor          DIISBfac        ....   1.050
   Max. coefficient     DIISMaxC        ....  10.000
 Trust-Rad. Augm. Hess. CNVTRAH         .... auto
   Auto Start mean grad. ratio tolernc. ....  1.125000
   Auto Start start iteration           ....    20
   Auto Start num. interpolation iter.  ....    10
   Max. Number of Micro iterations      ....    16
   Max. Number of Macro iterations      .... Maxiter - #DIIS iter
   Number of Davidson start vectors     ....     2
   Converg. threshold I  (grad. norm)   ....   1.000e-05
   Converg. threshold II (energy diff.) ....   1.000e-08
   Grad. Scal. Fac. for Micro threshold ....   0.100
   Minimum threshold for Micro iter.    ....   0.010
   NR start threshold (gradient norm)   ....   0.001
   Initial trust radius                 ....   0.400
   Minimum AH scaling param. (alpha)    ....   1.000
   Maximum AH scaling param. (alpha)    .... 1000.000
   Orbital update algorithm             .... Taylor
   White noise on init. David. guess    .... on
   Maximum white noise                  ....   0.010
   Quad. conv. algorithm                .... NR
   COSX micro iterations for RIJONX calc.... off
 SOSCF                  CNVSOSCF        .... on
   Start iteration      SOSCFMaxIt      ....   150
   Startup grad/error   SOSCFStart      ....  0.003300
 Level Shifting         CNVShift        .... on
   Level shift para.    LevelShift      ....    0.2500
   Turn off err/grad.   ShiftErr        ....    0.0010
 Zerner damping         CNVZerner       .... off
 Static damping         CNVDamp         .... on
   Fraction old density DampFac         ....    0.7000
   Max. Damping (<1)    DampMax         ....    0.9800
   Min. Damping (>=0)   DampMin         ....    0.0000
   Turn off err/grad.   DampErr         ....    0.1000
 Fernandez-Rico         CNVRico         .... off

SCF Procedure:
 Maximum # iterations   MaxIter         ....   125
 SCF integral mode      SCFMode         .... Direct
   Integral package                     .... SHARK and LIBINT hybrid scheme
 Reset frequency        DirectResetFreq ....    20
 Integral Threshold     Thresh          ....  2.500e-11 Eh
 Primitive CutOff       TCut            ....  2.500e-12 Eh

Convergence Tolerance:
 Convergence Check Mode ConvCheckMode   .... Total+1el-Energy
 Convergence forced     ConvForced      .... 0
 Energy Change          TolE            ....  1.000e-08 Eh
 1-El. energy change                    ....  1.000e-05 Eh
 Orbital Gradient       TolG            ....  1.000e-05
 Orbital Rotation angle TolX            ....  1.000e-05
 DIIS Error             TolErr          ....  5.000e-07


Diagonalization of the overlap matrix:
Smallest eigenvalue                        ... 9.473e-03
Time for diagonalization                   ...    0.112 sec
Threshold for overlap eigenvalues          ... 1.000e-08
Number of eigenvalues below threshold      ... 0
Time for construction of square roots      ...    0.310 sec
Total time needed                          ...    0.870 sec

--------------------------------
INITIAL GUESS: MINIMAL BASIS EHT
--------------------------------
The minimal basis has 72 functions
EHT matrix was diagonalized
Basis set overlap was calculated now projecting the orbitals
Using GuessMode=FMatrix for the initial guess
C*T matrix was formed
Effective Fockian was calculated
Effective Fockian was diagonalized
Initial density was built
                      ------------------
                      INITIAL GUESS DONE
                      ------------------
-------------------
DFT GRID GENERATION
-------------------

General Integration Accuracy     IntAcc      ... 4.959
Radial Grid Type                 RadialGrid  ... OptM3 with GC (2021)
Angular Grid (max. ang.)         AngularGrid ... 6 (Lebedev-590)
Angular grid pruning method      GridPruning ... 4 (adaptive)
Weight generation scheme         WeightScheme... Becke
Basis function cutoff            BFCut       ... 1.0000e-11
Integration weight cutoff        WCut        ... 1.0000e-14
Angular grids for H and He will be reduced by one unit
Partially contracted basis set               ... off
Rotationally invariant grid construction     ... off

Total number of grid points                  ...   202817
Total number of batches                      ...     3178
Average number of points per batch           ...       63
Average number of grid points per atom       ...    12676
Time for grid setup =    8.675 sec

--------------------
COSX GRID GENERATION
--------------------

GRIDX 1
-------
General Integration Accuracy     IntAcc      ... 4.020
Radial Grid Type                 RadialGrid  ... OptM3 with GC (2021)
Angular Grid (max. ang.)         AngularGrid ... 2 (Lebedev-110)
Angular grid pruning method      GridPruning ... 4 (adaptive)
Weight generation scheme         WeightScheme... Becke
Basis function cutoff            BFCut       ... 1.0000e-11
Integration weight cutoff        WCut        ... 1.0000e-14
Angular grids for H and He will be reduced by one unit
Partially contracted basis set               ... on
Rotationally invariant grid construction     ... off

Total number of grid points                  ...    23262
Total number of batches                      ...      371
Average number of points per batch           ...       62
Average number of grid points per atom       ...     1454
UseSFitting                                  ... on

GRIDX 2
-------
General Integration Accuracy     IntAcc      ... 4.338
Radial Grid Type                 RadialGrid  ... OptM3 with GC (2021)
Angular Grid (max. ang.)         AngularGrid ... 3 (Lebedev-194)
Angular grid pruning method      GridPruning ... 4 (adaptive)
Weight generation scheme         WeightScheme... Becke
Basis function cutoff            BFCut       ... 1.0000e-11
Integration weight cutoff        WCut        ... 1.0000e-14
Angular grids for H and He will be reduced by one unit
Partially contracted basis set               ... on
Rotationally invariant grid construction     ... off

Total number of grid points                  ...    53336
Total number of batches                      ...      842
Average number of points per batch           ...       63
Average number of grid points per atom       ...     3334
UseSFitting                                  ... on

GRIDX 3
-------
General Integration Accuracy     IntAcc      ... 4.871
Radial Grid Type                 RadialGrid  ... OptM3 with GC (2021)
Angular Grid (max. ang.)         AngularGrid ... 4 (Lebedev-302)
Angular grid pruning method      GridPruning ... 4 (adaptive)
Weight generation scheme         WeightScheme... Becke
Basis function cutoff            BFCut       ... 1.0000e-11
Integration weight cutoff        WCut        ... 1.0000e-14
Angular grids for H and He will be reduced by one unit
Partially contracted basis set               ... on
Rotationally invariant grid construction     ... off

Total number of grid points                  ...    97932
Total number of batches                      ...     1538
Average number of points per batch           ...       63
Average number of grid points per atom       ...     6121
UseSFitting                                  ... on

Time for X-Grid setup             =    5.831 sec

--------------
SCF ITERATIONS
--------------
ITER       Energy         Delta-E        Max-DP      RMS-DP      [F,P]     Damp
               ***  Starting incremental Fock matrix formation  ***
  0  -1717.2303290958   0.000000000000 0.21623469  0.00739864  0.7088773 0.7000
  1  -1718.4856427078  -1.255313611995 0.11417050  0.00423278  0.2978106 0.7000
  2  -1719.1309002798  -0.645257572002 0.06999840  0.00239030  0.2071919 0.7000
                               ***Turning on DIIS***
  3  -1719.5629814461  -0.432081166282 0.04405553  0.00153211  0.1429822 0.7000
  4  -1719.8674712926  -0.304489846494 0.17259582  0.00363486  0.0977114 0.0000
  5  -1720.5828237047  -0.715352412067 0.02457706  0.00041391  0.0146585 0.0000
  6  -1720.5836976091  -0.000873904460 0.00695829  0.00014899  0.0093195 0.0000
                      *** Initiating the SOSCF procedure ***
                           *** Shutting down DIIS ***
                      *** Re-Reading the Fockian *** 
                      *** Removing any level shift *** 
ITER      Energy       Delta-E        Grad      Rot      Max-DP    RMS-DP
  7  -1720.58410781  -0.0004102053  0.001032  0.001032  0.004763  0.000066
               *** Restarting incremental Fock matrix formation ***
  8  -1720.58415032  -0.0000425074  0.000526  0.001797  0.003713  0.000049
  9  -1720.58415750  -0.0000071742  0.000132  0.000905  0.002145  0.000026
 10  -1720.58415793  -0.0000004317  0.000135  0.000324  0.000749  0.000011
 11  -1720.58415863  -0.0000007028  0.000016  0.000033  0.000137  0.000002
 12  -1720.58415863  -0.0000000017  0.000020  0.000021  0.000059  0.000001
 13  -1720.58415864  -0.0000000124  0.000003  0.000002  0.000012  0.000000
                 **** Energy Check signals convergence ****
              ***Rediagonalizing the Fockian in SOSCF/NRSCF***

               *****************************************************
               *                     SUCCESS                       *
               *           SCF CONVERGED AFTER  14 CYCLES          *
               *****************************************************

Old exchange energy                            =    -58.228777447 Eh
New exchange energy                            =    -58.228811161 Eh
Exchange energy change after final integration =     -0.000033714 Eh
Total energy after final integration           =  -1720.584192358 Eh
Final COS-X integration done in                =     7.833 sec

----------------
TOTAL SCF ENERGY
----------------

Total Energy       :        -1720.58419236 Eh          -46819.47613 eV

Components:
Nuclear Repulsion  :          981.84256523 Eh           26717.29448 eV
Electronic Energy  :        -2702.42675759 Eh          -73536.77061 eV
One Electron Energy:        -4344.98757345 Eh         -118233.12273 eV
Two Electron Energy:         1642.56081586 Eh           44696.35212 eV
Max COSX asymmetry :            0.00000341 Eh               0.00009 eV

Virial components:
Potential Energy   :        -3435.70214948 Eh          -93490.20844 eV
Kinetic Energy     :         1715.11795713 Eh           46670.73231 eV
Virial Ratio       :            2.00318709


DFT components:
N(Alpha)           :       56.000024532559 electrons
N(Beta)            :       56.000024532559 electrons
N(Total)           :      112.000049065118 electrons
E(X)               :      -77.602080144518 Eh       
E(C)               :       -5.389985312680 Eh       
E(XC)              :      -82.992065457198 Eh       
DFET-embed. en.    :        0.000000000000 Eh       

---------------
SCF CONVERGENCE
---------------

  Last Energy change         ...    8.0695e-10  Tolerance :   1.0000e-08
  Last MAX-Density change    ...    7.1054e-15  Tolerance :   1.0000e-07
  Last RMS-Density change    ...    8.6468e-17  Tolerance :   5.0000e-09
  Last Orbital Gradient      ...    2.6887e-06  Tolerance :   1.0000e-05
  Last Orbital Rotation      ...    1.3561e-06  Tolerance :   1.0000e-05

             **** THE GBW FILE WAS UPDATED (pbeh-3c.gbw) ****
             **** DENSITY pbeh-3c.scfp WAS UPDATED ****
             **** ENERGY FILE WAS UPDATED (pbeh-3c.en.tmp) ****
             **** THE GBW FILE WAS UPDATED (pbeh-3c.gbw) ****
             **** DENSITY pbeh-3c.scfp WAS UPDATED ****
----------------
ORBITAL ENERGIES
----------------

  NO   OCC          E(Eh)            E(eV) 
   0   2.0000     -89.588830     -2437.8360 
   1   2.0000     -66.834270     -1818.6530 
   2   2.0000     -66.805833     -1817.8791 
   3   2.0000     -56.668643     -1542.0322 
   4   2.0000     -25.170874      -684.9343 
   5   2.0000     -25.166241      -684.8082 
   6   2.0000     -25.105131      -683.1453 
   7   2.0000     -25.099885      -683.0026 
   8   2.0000     -19.510464      -530.9067 
   9   2.0000      -8.231379      -223.9872 
  10   2.0000      -7.105801      -193.3587 
  11   2.0000      -6.121211      -166.5666 
  12   2.0000      -6.119151      -166.5106 
  13   2.0000      -6.114680      -166.3889 
  14   2.0000      -5.596564      -152.2902 
  15   2.0000      -5.576153      -151.7348 
  16   2.0000      -4.401431      -119.7690 
  17   2.0000      -3.890665      -105.8704 
  18   2.0000      -3.888870      -105.8215 
  19   2.0000      -3.886611      -105.7601 
  20   2.0000      -3.868442      -105.2657 
  21   2.0000      -3.865216      -105.1779 
  22   2.0000      -3.861401      -105.0741 
  23   2.0000      -2.893125       -78.7259 
  24   2.0000      -2.891379       -78.6784 
  25   2.0000      -2.887193       -78.5645 
  26   2.0000      -1.399112       -38.0718 
  27   2.0000      -1.368747       -37.2455 
  28   2.0000      -1.332481       -36.2586 
  29   2.0000      -1.314919       -35.7808 
  30   2.0000      -1.101055       -29.9612 
  31   2.0000      -0.825741       -22.4696 
  32   2.0000      -0.734711       -19.9925 
  33   2.0000      -0.686707       -18.6862 
  34   2.0000      -0.661561       -18.0020 
  35   2.0000      -0.633263       -17.2319 
  36   2.0000      -0.624885       -17.0040 
  37   2.0000      -0.595835       -16.2135 
  38   2.0000      -0.583464       -15.8769 
  39   2.0000      -0.569070       -15.4852 
  40   2.0000      -0.559495       -15.2246 
  41   2.0000      -0.551140       -14.9973 
  42   2.0000      -0.531460       -14.4618 
  43   2.0000      -0.526231       -14.3195 
  44   2.0000      -0.519355       -14.1324 
  45   2.0000      -0.503953       -13.7133 
  46   2.0000      -0.491302       -13.3690 
  47   2.0000      -0.455065       -12.3829 
  48   2.0000      -0.446141       -12.1401 
  49   2.0000      -0.431229       -11.7343 
  50   2.0000      -0.429528       -11.6880 
  51   2.0000      -0.427119       -11.6225 
  52   2.0000      -0.389539       -10.5999 
  53   2.0000      -0.370973       -10.0947 
  54   2.0000      -0.320652        -8.7254 
  55   2.0000      -0.311988        -8.4896 
  56   0.0000      -0.035599        -0.9687 
  57   0.0000      -0.019224        -0.5231 
  58   0.0000       0.037011         1.0071 
  59   0.0000       0.039570         1.0768 
  60   0.0000       0.050641         1.3780 
  61   0.0000       0.076212         2.0738 
  62   0.0000       0.087392         2.3781 
  63   0.0000       0.099779         2.7151 
  64   0.0000       0.120700         3.2844 
  65   0.0000       0.136573         3.7163 
  66   0.0000       0.145968         3.9720 
  67   0.0000       0.161860         4.4044 
  68   0.0000       0.171269         4.6605 
  69   0.0000       0.193175         5.2566 
  70   0.0000       0.217318         5.9135 
  71   0.0000       0.227374         6.1872 
  72   0.0000       0.235721         6.4143 
  73   0.0000       0.255555         6.9540 
  74   0.0000       0.281418         7.6578 
  75   0.0000       0.316467         8.6115 
  76   0.0000       0.323164         8.7937 
  77   0.0000       0.348823         9.4920 
  78   0.0000       0.353056         9.6072 
  79   0.0000       0.378425        10.2975 
  80   0.0000       0.387847        10.5539 
  81   0.0000       0.405200        11.0260 
  82   0.0000       0.413738        11.2584 
  83   0.0000       0.421278        11.4636 
  84   0.0000       0.441946        12.0260 
  85   0.0000       0.449477        12.2309 
  86   0.0000       0.456414        12.4197 
  87   0.0000       0.473523        12.8852 
  88   0.0000       0.480526        13.0758 
  89   0.0000       0.503867        13.7109 
  90   0.0000       0.511775        13.9261 
  91   0.0000       0.524807        14.2807 
  92   0.0000       0.539726        14.6867 
  93   0.0000       0.587185        15.9781 
  94   0.0000       0.611292        16.6341 
  95   0.0000       0.622056        16.9270 
  96   0.0000       0.626775        17.0554 
  97   0.0000       0.648037        17.6340 
  98   0.0000       0.675186        18.3727 
  99   0.0000       0.686104        18.6698 
 100   0.0000       0.701488        19.0885 
 101   0.0000       0.713707        19.4209 
 102   0.0000       0.736293        20.0356 
 103   0.0000       0.746623        20.3167 
 104   0.0000       0.754211        20.5231 
 105   0.0000       0.797429        21.6991 
 106   0.0000       0.828002        22.5311 
 107   0.0000       0.861165        23.4335 
 108   0.0000       0.904937        24.6246 
 109   0.0000       0.936769        25.4908 
 110   0.0000       0.943572        25.6759 
 111   0.0000       0.975666        26.5492 
 112   0.0000       0.987019        26.8581 
 113   0.0000       1.010186        27.4886 
 114   0.0000       1.056750        28.7556 
 115   0.0000       1.085511        29.5383 
 116   0.0000       1.125542        30.6275 
 117   0.0000       1.150742        31.3133 
 118   0.0000       1.158278        31.5183 
 119   0.0000       1.167339        31.7649 
 120   0.0000       1.175231        31.9796 
 121   0.0000       1.182998        32.1910 
 122   0.0000       1.190077        32.3836 
 123   0.0000       1.222259        33.2593 
 124   0.0000       1.233127        33.5551 
 125   0.0000       1.254309        34.1315 
 126   0.0000       1.260759        34.3070 
 127   0.0000       1.266357        34.4593 
 128   0.0000       1.286748        35.0142 
 129   0.0000       1.294039        35.2126 
 130   0.0000       1.307893        35.5896 
 131   0.0000       1.327652        36.1273 
 132   0.0000       1.333471        36.2856 
 133   0.0000       1.345311        36.6078 
 134   0.0000       1.359739        37.0004 
 135   0.0000       1.377394        37.4808 
 136   0.0000       1.384828        37.6831 
 137   0.0000       1.413248        38.4564 
 138   0.0000       1.432315        38.9753 
 139   0.0000       1.454788        39.5868 
 140   0.0000       1.492780        40.6206 
 141   0.0000       1.527397        41.5626 
 142   0.0000       1.541804        41.9546 
 143   0.0000       1.564908        42.5833 
 144   0.0000       1.597613        43.4733 
 145   0.0000       1.620833        44.1051 
 146   0.0000       1.652692        44.9720 
 147   0.0000       1.655481        45.0479 
 148   0.0000       1.684628        45.8411 
 149   0.0000       1.728932        47.0466 
 150   0.0000       1.852204        50.4010 
 151   0.0000       1.894164        51.5428 
 152   0.0000       1.910621        51.9906 
 153   0.0000       1.954371        53.1812 
 154   0.0000       2.007693        54.6321 
 155   0.0000       2.081367        56.6369 
 156   0.0000       2.109431        57.4005 
 157   0.0000       2.224039        60.5192 
 158   0.0000       2.301641        62.6308 
 159   0.0000       2.352471        64.0140 
 160   0.0000       2.431705        66.1700 
 161   0.0000       2.475116        67.3513 
 162   0.0000       2.509132        68.2770 
 163   0.0000       2.693687        73.2990 
 164   0.0000       2.891648        78.6857 
 165   0.0000       2.981674        81.1355 
 166   0.0000       3.087714        84.0210 
 167   0.0000       3.243734        88.2665 
 168   0.0000       9.591885       261.0085 
 169   0.0000      25.588189       696.2900 
 170   0.0000      32.580510       886.5607 
 171   0.0000      32.626868       887.8222 
 172   0.0000      32.745699       891.0558 
 173   0.0000      32.930136       896.0746 

                    ********************************
                    * MULLIKEN POPULATION ANALYSIS *
                    ********************************

-----------------------
MULLIKEN ATOMIC CHARGES
-----------------------
   0 H :   -0.099256
   1 F :   -0.413204
   2 F :   -0.306533
   3 S :   -0.414821
   4 H :   -0.017468
   5 F :   -0.429140
   6 Si:    1.010620
   7 F :   -0.463608
   8 B :    0.672191
   9 O :   -0.720605
  10 Al:    0.854163
  11 Si:    0.364113
  12 H :    0.211781
  13 H :   -0.140806
  14 H :   -0.025280
  15 H :   -0.082146
Sum of atomic charges:    0.0000000

--------------------------------
MULLIKEN REDUCED ORBITAL CHARGES
--------------------------------
  0 H s       :     1.099256  s :     1.099256
  1 F s       :     3.910924  s :     3.910924
      pz      :     1.830833  p :     5.487104
      px      :     1.897028
      py      :     1.759243
      dz2     :     0.004991  d :     0.015176
      dxz     :     0.002613
      dyz     :     0.002786
      dx2y2   :     0.001919
      dxy     :     0.002867
  2 F s       :     3.888735  s :     3.888735
      pz      :     1.854465  p :     5.404797
      px      :     1.796535
      py      :     1.753797
      dz2     :     0.001712  d :     0.013001
      dxz     :     0.001728
      dyz     :     0.002565
      dx2y2   :     0.003743
      dxy     :     0.003252
  3 S s       :     5.882358  s :     5.882358
      pz      :     3.239581  p :    10.473923
      px      :     3.672034
      py      :     3.562308
      dz2     :     0.035996  d :     0.058540
      dxz     :     0.003870
      dyz     :     0.003036
      dx2y2   :     0.004815
      dxy     :     0.010823
  4 H s       :     1.017468  s :     1.017468
  5 F s       :     3.908720  s :     3.908720
      pz      :     1.811414  p :     5.508590
      px      :     1.804780
      py      :     1.892396
      dz2     :     0.001806  d :     0.011831
      dxz     :     0.002606
      dyz     :     0.002559
      dx2y2   :     0.002388
      dxy     :     0.002472
  6 Sis       :     4.905319  s :     4.905319
      pz      :     2.661464  p :     7.632099
      px      :     2.521260
      py      :     2.449375
      dz2     :     0.109435  d :     0.451963
      dxz     :     0.103173
      dyz     :     0.053095
      dx2y2   :     0.085241
      dxy     :     0.101019
  7 F s       :     3.921124  s :     3.921124
      pz      :     1.890680  p :     5.523422
      px      :     1.852457
      py      :     1.780285
      dz2     :     0.002646  d :     0.019063
      dxz     :     0.001509
      dyz     :     0.003303
      dx2y2   :     0.005362
      dxy     :     0.006243
  8 B s       :     2.708787  s :     2.708787
      pz      :     0.710856  p :     1.525648
      px      :     0.409744
      py      :     0.405047
      dz2     :     0.018015  d :     0.093374
      dxz     :     0.019372
      dyz     :     0.013497
      dx2y2   :     0.018326
      dxy     :     0.024164
  9 O s       :     3.785285  s :     3.785285
      pz      :     1.506450  p :     4.924866
      px      :     1.676939
      py      :     1.741477
      dz2     :     0.002288  d :     0.010454
      dxz     :     0.003107
      dyz     :     0.001336
      dx2y2   :     0.002010
      dxy     :     0.001713
 10 Als       :     4.776407  s :     4.776407
      pz      :     2.283240  p :     7.084641
      px      :     2.506441
      py      :     2.294960
      dz2     :     0.079807  d :     0.284789
      dxz     :     0.056723
      dyz     :     0.060487
      dx2y2   :     0.026590
      dxy     :     0.061183
 11 Sis       :     5.763511  s :     5.763511
      pz      :     2.222621  p :     7.717278
      px      :     2.659601
      py      :     2.835056
      dz2     :     0.035115  d :     0.155097
      dxz     :     0.013524
      dyz     :     0.035111
      dx2y2   :     0.057003
      dxy     :     0.014345
 12 H s       :     0.788219  s :     0.788219
 13 H s       :     1.140806  s :     1.140806
 14 H s       :     1.025280  s :     1.025280
 15 H s       :     1.082146  s :     1.082146


                     *******************************
                     * LOEWDIN POPULATION ANALYSIS *
                     *******************************

----------------------
LOEWDIN ATOMIC CHARGES
----------------------
   0 H :   -0.032141
   1 F :   -0.186745
   2 F :   -0.159660
   3 S :   -0.138889
   4 H :   -0.024867
   5 F :   -0.130357
   6 Si:    0.430956
   7 F :   -0.262815
   8 B :    0.219957
   9 O :   -0.338939
  10 Al:    0.348184
  11 Si:    0.234655
  12 H :    0.129325
  13 H :   -0.009397
  14 H :   -0.012615
  15 H :   -0.066652

-------------------------------
LOEWDIN REDUCED ORBITAL CHARGES
-------------------------------
  0 H s       :     1.032141  s :     1.032141
  1 F s       :     3.710217  s :     3.710217
      pz      :     1.805950  p :     5.421697
      px      :     1.875913
      py      :     1.739834
      dz2     :     0.012604  d :     0.054831
      dxz     :     0.008829
      dyz     :     0.015414
      dx2y2   :     0.008207
      dxy     :     0.009778
  2 F s       :     3.697927  s :     3.697927
      pz      :     1.857180  p :     5.416539
      px      :     1.796022
      py      :     1.763336
      dz2     :     0.007429  d :     0.045195
      dxz     :     0.007451
      dyz     :     0.008457
      dx2y2   :     0.009521
      dxy     :     0.012337
  3 S s       :     5.658753  s :     5.658753
      pz      :     3.223537  p :    10.417657
      px      :     3.648634
      py      :     3.545486
      dz2     :     0.038405  d :     0.062479
      dxz     :     0.004254
      dyz     :     0.002897
      dx2y2   :     0.004438
      dxy     :     0.012485
  4 H s       :     1.024867  s :     1.024867
  5 F s       :     3.677176  s :     3.677176
      pz      :     1.777967  p :     5.410998
      px      :     1.772770
      py      :     1.860262
      dz2     :     0.009558  d :     0.042183
      dxz     :     0.010300
      dyz     :     0.007360
      dx2y2   :     0.006423
      dxy     :     0.008542
  6 Sis       :     4.857248  s :     4.857248
      pz      :     2.724984  p :     7.954324
      px      :     2.634517
      py      :     2.594823
      dz2     :     0.176745  d :     0.757472
      dxz     :     0.170433
      dyz     :     0.079960
      dx2y2   :     0.138922
      dxy     :     0.191412
  7 F s       :     3.731482  s :     3.731482
      pz      :     1.872887  p :     5.492287
      px      :     1.842535
      py      :     1.776865
      dz2     :     0.006283  d :     0.039046
      dxz     :     0.003426
      dyz     :     0.005120
      dx2y2   :     0.008875
      dxy     :     0.015341
  8 B s       :     2.705424  s :     2.705424
      pz      :     0.782872  p :     1.847830
      px      :     0.527891
      py      :     0.537068
      dz2     :     0.043105  d :     0.226789
      dxz     :     0.046613
      dyz     :     0.029382
      dx2y2   :     0.050774
      dxy     :     0.056915
  9 O s       :     3.435680  s :     3.435680
      pz      :     1.536148  p :     4.887439
      px      :     1.657053
      py      :     1.694238
      dz2     :     0.003438  d :     0.015820
      dxz     :     0.005820
      dyz     :     0.002366
      dx2y2   :     0.002429
      dxy     :     0.001767
 10 Als       :     4.743521  s :     4.743521
      pz      :     2.402394  p :     7.373859
      px      :     2.579336
      py      :     2.392128
      dz2     :     0.152679  d :     0.534436
      dxz     :     0.094817
      dyz     :     0.141371
      dx2y2   :     0.043950
      dxy     :     0.101619
 11 Sis       :     5.597426  s :     5.597426
      pz      :     2.295706  p :     7.930899
      px      :     2.729785
      py      :     2.905408
      dz2     :     0.062327  d :     0.237020
      dxz     :     0.021374
      dyz     :     0.059651
      dx2y2   :     0.074804
      dxy     :     0.018865
 12 H s       :     0.870675  s :     0.870675
 13 H s       :     1.009397  s :     1.009397
 14 H s       :     1.012615  s :     1.012615
 15 H s       :     1.066652  s :     1.066652


                      *****************************
                      * MAYER POPULATION ANALYSIS *
                      *****************************

  NA   - Mulliken gross atomic population
  ZA   - Total nuclear charge
  QA   - Mulliken gross atomic charge
  VA   - Mayer's total valence
  BVA  - Mayer's bonded valence
  FA   - Mayer's free valence

  ATOM       NA         ZA         QA         VA         BVA        FA
  0 H      1.0993     1.0000    -0.0993     0.9735     0.9735    -0.0000
  1 F      9.4132     9.0000    -0.4132     1.0245     1.0245    -0.0000
  2 F      9.3065     9.0000    -0.3065     1.1355     1.1355    -0.0000
  3 S     16.4148    16.0000    -0.4148     2.0367     2.0367     0.0000
  4 H      1.0175     1.0000    -0.0175     0.9790     0.9790     0.0000
  5 F      9.4291     9.0000    -0.4291     1.0163     1.0163    -0.0000
  6 Si    12.9894    14.0000     1.0106     3.9809     3.9809     0.0000
  7 F      9.4636     9.0000    -0.4636     0.9590     0.9590    -0.0000
  8 B      4.3278     5.0000     0.6722     3.1611     3.1611     0.0000
  9 O      8.7206     8.0000    -0.7206     2.0387     2.0387    -0.0000
 10 Al    12.1458    13.0000     0.8542     3.0091     3.0091    -0.0000
 11 Si    13.6359    14.0000     0.3641     2.2180     2.2180     0.0000
 12 H      0.7882     1.0000     0.2118     0.9287     0.9287     0.0000
 13 H      1.1408     1.0000    -0.1408     0.9463     0.9463     0.0000
 14 H      1.0253     1.0000    -0.0253     0.9709     0.9709     0.0000
 15 H      1.0821     1.0000    -0.0821     0.9836     0.9836    -0.0000

  Mayer bond orders larger than 0.100000
B(  0-H , 11-Si) :   0.9032 B(  1-F ,  8-B ) :   0.5847 B(  1-F , 11-Si) :   0.3934 
B(  2-F ,  8-B ) :   1.0910 B(  3-S ,  6-Si) :   1.0603 B(  3-S , 12-H ) :   0.9025 
B(  4-H ,  6-Si) :   0.9255 B(  5-F ,  8-B ) :   0.5242 B(  5-F , 10-Al) :   0.4496 
B(  6-Si,  7-F ) :   0.8347 B(  6-Si,  9-O ) :   1.0813 B(  8-B , 14-H ) :   0.9465 
B(  9-O , 10-Al) :   0.8907 B( 10-Al, 11-Si) :   0.2193 B( 10-Al, 13-H ) :   0.3504 
B( 10-Al, 15-H ) :   0.9412 B( 11-Si, 13-H ) :   0.5798 

-------
TIMINGS
-------

Total SCF time: 0 days 0 hours 2 min 24 sec 

Total time                  ....     144.007 sec
Sum of individual times     ....     132.602 sec  ( 92.1%)

Fock matrix formation       ....     110.555 sec  ( 76.8%)
  Split-RI-J                ....       9.793 sec  (  8.9% of F)
  Chain of spheres X        ....      56.322 sec  ( 50.9% of F)
  XC integration            ....      24.758 sec  ( 22.4% of F)
    Basis function eval.    ....       5.314 sec  ( 21.5% of XC)
    Density eval.           ....       3.237 sec  ( 13.1% of XC)
    XC-Functional eval.     ....       2.059 sec  (  8.3% of XC)
    XC-Potential eval.      ....       2.335 sec  (  9.4% of XC)
Diagonalization             ....       1.019 sec  (  0.7%)
Density matrix formation    ....       0.452 sec  (  0.3%)
Population analysis         ....       0.631 sec  (  0.4%)
Initial guess               ....       0.161 sec  (  0.1%)
Orbital Transformation      ....       0.000 sec  (  0.0%)
Orbital Orthonormalization  ....       0.000 sec  (  0.0%)
DIIS solution               ....       3.811 sec  (  2.6%)
SOSCF solution              ....       1.467 sec  (  1.0%)
Grid generation             ....      14.506 sec  ( 10.1%)

Maximum memory used throughout the entire SCF-calculation: 58.4 MB


-------------------------------------------------------------------------------
                          DFT DISPERSION CORRECTION                            
                                                                               
                              DFTD3 V3.1  Rev 1                                
                          USING Becke-Johnson damping                          
-------------------------------------------------------------------------------
The PBEh-3c composite method is recognized
Using three-body term ABC
Active option DFTDOPT                   ...         4   

molecular C6(AA) [au] = 6123.490653 


            DFT-D V3
 parameters
 s6 scaling factor         :     1.0000 
 a1 scaling factor         :     0.4860 
 s8 scaling factor         :     0.0000 
 a2 scaling factor         :     4.5000 
 Damping factor alpha9(ATM):    16.0000 
 ad hoc parameters k1-k3   :    16.0000     1.3333    -4.0000 

 Edisp/kcal,au: -5.894358468161  -0.009393257127 
 E6   /kcal   :  -5.935987459 
 E8   /kcal   :  -0.000000000 
 E6(ABC)      :   0.041628991 
 % E8         :   0.000000000 
 % E6(ABC)    :  -0.706251425 

-------------------------   ----------------
Dispersion correction           -0.009393257
-------------------------   ----------------

------------------   -----------------
gCP correction             0.047389694
------------------   -----------------

-------------------------   --------------------
FINAL SINGLE POINT ENERGY     -1720.546195920394
-------------------------   --------------------


                            ***************************************
                            *     ORCA property calculations      *
                            ***************************************

                                    ---------------------
                                    Active property flags
                                    ---------------------
   (+) Dipole Moment


------------------------------------------------------------------------------
                       ORCA ELECTRIC PROPERTIES CALCULATION
------------------------------------------------------------------------------

Dipole Moment Calculation                       ... on
Quadrupole Moment Calculation                   ... off
Polarizability Calculation                      ... off
GBWName                                         ... pbeh-3c.gbw
Electron density                                ... pbeh-3c.scfp
The origin for moment calculation is the CENTER OF MASS  = (-0.342209,  0.127530  0.514436)

-------------
DIPOLE MOMENT
-------------
                                X             Y             Z
Electronic contribution:     -2.10021       0.18396      -5.84192
Nuclear contribution   :      2.41195      -0.61725       5.38781
                        -----------------------------------------
Total Dipole Moment    :      0.31175      -0.43328      -0.45411
                        -----------------------------------------
Magnitude (a.u.)       :      0.70081
Magnitude (Debye)      :      1.78132



--------------------
Rotational spectrum 
--------------------
 
Rotational constants in cm-1:     0.032656     0.015588     0.014732 
Rotational constants in MHz :   978.988363   467.306190   441.665122 

 Dipole components along the rotational axes: 
x,y,z [a.u.] :    -0.493061    -0.478801    -0.137022 
x,y,z [Debye]:    -1.253262    -1.217016    -0.348282 

 

Timings for individual modules:

Sum of individual times         ...      148.937 sec (=   2.482 min)
GTO integral calculation        ...        4.310 sec (=   0.072 min)   2.9 %
SCF iterations                  ...      144.627 sec (=   2.410 min)  97.1 %
                             ****ORCA TERMINATED NORMALLY****
TOTAL RUN TIME: 0 days 0 hours 2 minutes 34 seconds 262 msec
