
                                 *****************
                                 * O   R   C   A *
                                 *****************

                                            #,                                       
                                            ###                                      
                                            ####                                     
                                            #####                                    
                                            ######                                   
                                           ########,                                 
                                     ,,################,,,,,                         
                               ,,#################################,,                 
                          ,,##########################################,,             
                       ,#########################################, ''#####,          
                    ,#############################################,,   '####,        
                  ,##################################################,,,,####,       
                ,###########''''           ''''###############################       
              ,#####''   ,,,,##########,,,,          '''####'''          '####       
            ,##' ,,,,###########################,,,                        '##       
           ' ,,###''''                  '''############,,,                           
         ,,##''                                '''############,,,,        ,,,,,,###''
      ,#''                                            '''#######################'''  
     '                                                          ''''####''''         
             ,#######,   #######,   ,#######,      ##                                
            ,#'     '#,  ##    ##  ,#'     '#,    #''#        ######   ,####,        
            ##       ##  ##   ,#'  ##            #'  '#       #        #'  '#        
            ##       ##  #######   ##           ,######,      #####,   #    #        
            '#,     ,#'  ##    ##  '#,     ,#' ,#      #,         ##   #,  ,#        
             '#######'   ##     ##  '#######'  #'      '#     #####' # '####'        



                  #######################################################
                  #                        -***-                        #
                  #          Department of theory and spectroscopy      #
                  #    Directorship and core code : Frank Neese         #
                  #        Max Planck Institute fuer Kohlenforschung    #
                  #                Kaiser Wilhelm Platz 1               #
                  #                 D-45470 Muelheim/Ruhr               #
                  #                      Germany                        #
                  #                                                     #
                  #                  All rights reserved                #
                  #                        -***-                        #
                  #######################################################


                         Program Version 5.0.3 -  RELEASE  -


 With contributions from (in alphabetic order):
   Daniel Aravena         : Magnetic Suceptibility
   Michael Atanasov       : Ab Initio Ligand Field Theory (pilot matlab implementation)
   Alexander A. Auer      : GIAO ZORA, VPT2 properties, NMR spectrum
   Ute Becker             : Parallelization
   Giovanni Bistoni       : ED, misc. LED, open-shell LED, HFLD
   Martin Brehm           : Molecular dynamics
   Dmytro Bykov           : SCF Hessian
   Vijay G. Chilkuri      : MRCI spin determinant printing, contributions to CSF-ICE
   Dipayan Datta          : RHF DLPNO-CCSD density
   Achintya Kumar Dutta   : EOM-CC, STEOM-CC
   Dmitry Ganyushin       : Spin-Orbit,Spin-Spin,Magnetic field MRCI
   Miquel Garcia          : C-PCM and meta-GGA Hessian, CC/C-PCM, Gaussian charge scheme
   Yang Guo               : DLPNO-NEVPT2, F12-NEVPT2, CIM, IAO-localization
   Andreas Hansen         : Spin unrestricted coupled pair/coupled cluster methods
   Benjamin Helmich-Paris : MC-RPA, TRAH-SCF, COSX integrals
   Lee Huntington         : MR-EOM, pCC
   Robert Izsak           : Overlap fitted RIJCOSX, COSX-SCS-MP3, EOM
   Marcus Kettner         : VPT2
   Christian Kollmar      : KDIIS, OOCD, Brueckner-CCSD(T), CCSD density, CASPT2, CASPT2-K
   Simone Kossmann        : Meta GGA functionals, TD-DFT gradient, OOMP2, MP2 Hessian
   Martin Krupicka        : Initial AUTO-CI
   Lucas Lang             : DCDCAS
   Marvin Lechner         : AUTO-CI (C++ implementation), FIC-MRCC
   Dagmar Lenk            : GEPOL surface, SMD
   Dimitrios Liakos       : Extrapolation schemes; Compound Job, initial MDCI parallelization
   Dimitrios Manganas     : Further ROCIS development; embedding schemes
   Dimitrios Pantazis     : SARC Basis sets
   Anastasios Papadopoulos: AUTO-CI, single reference methods and gradients
   Taras Petrenko         : DFT Hessian,TD-DFT gradient, ASA, ECA, R-Raman, ABS, FL, XAS/XES, NRVS
   Peter Pinski           : DLPNO-MP2, DLPNO-MP2 Gradient
   Christoph Reimann      : Effective Core Potentials
   Marius Retegan         : Local ZFS, SOC
   Christoph Riplinger    : Optimizer, TS searches, QM/MM, DLPNO-CCSD(T), (RO)-DLPNO pert. Triples
   Tobias Risthaus        : Range-separated hybrids, TD-DFT gradient, RPA, STAB
   Michael Roemelt        : Original ROCIS implementation
   Masaaki Saitow         : Open-shell DLPNO-CCSD energy and density
   Barbara Sandhoefer     : DKH picture change effects
   Avijit Sen             : IP-ROCIS
   Kantharuban Sivalingam : CASSCF convergence, NEVPT2, FIC-MRCI
   Bernardo de Souza      : ESD, SOC TD-DFT
   Georgi Stoychev        : AutoAux, RI-MP2 NMR, DLPNO-MP2 response
   Willem Van den Heuvel  : Paramagnetic NMR
   Boris Wezisla          : Elementary symmetry handling
   Frank Wennmohs         : Technical directorship


 We gratefully acknowledge several colleagues who have allowed us to
 interface, adapt or use parts of their codes:
   Stefan Grimme, W. Hujo, H. Kruse, P. Pracht,  : VdW corrections, initial TS optimization,
                  C. Bannwarth, S. Ehlert          DFT functionals, gCP, sTDA/sTD-DF
   Ed Valeev, F. Pavosevic, A. Kumar             : LibInt (2-el integral package), F12 methods
   Garnet Chan, S. Sharma, J. Yang, R. Olivares  : DMRG
   Ulf Ekstrom                                   : XCFun DFT Library
   Mihaly Kallay                                 : mrcc  (arbitrary order and MRCC methods)
   Jiri Pittner, Ondrej Demel                    : Mk-CCSD
   Frank Weinhold                                : gennbo (NPA and NBO analysis)
   Christopher J. Cramer and Donald G. Truhlar   : smd solvation model
   Lars Goerigk                                  : TD-DFT with DH, B97 family of functionals
   V. Asgeirsson, H. Jonsson                     : NEB implementation
   FAccTs GmbH                                   : IRC, NEB, NEB-TS, DLPNO-Multilevel, CI-OPT
                                                   MM, QMMM, 2- and 3-layer-ONIOM, Crystal-QMMM,
                                                   LR-CPCM, SF, NACMEs, symmetry and pop. for TD-DFT,
                                                   nearIR, NL-DFT gradient (VV10), updates on ESD,
                                                   ML-optimized integration grids
   S Lehtola, MJT Oliveira, MAL Marques          : LibXC Library
   Liviu Ungur et al                             : ANISO software


 Your calculation uses the libint2 library for the computation of 2-el integrals
 For citations please refer to: http://libint.valeyev.net

 Your ORCA version has been built with support for libXC version: 5.1.0
 For citations please refer to: https://tddft.org/programs/libxc/

 This ORCA versions uses:
   CBLAS   interface :  Fast vector & matrix operations
   LAPACKE interface :  Fast linear algebra routines
   SCALAPACK package :  Parallel linear algebra routines
   Shared memory     :  Shared parallel matrices
   BLAS/LAPACK       :  OpenBLAS 0.3.15  USE64BITINT DYNAMIC_ARCH NO_AFFINITY Haswell SINGLE_THREADED
        Core in use  :  Haswell
   Copyright (c) 2011-2014, The OpenBLAS Project




***************************************
The coordinates will be read from file: 16.xyz
***************************************


Your calculation utilizes the geometrical counterpoise correction gCP
Please cite in your paper:
H.Kruse, S. Grimme J.Chem.Phys., 136, (2012), 154101 
   

Your calculation utilizes the atom-pairwise dispersion correction
with the Becke-Johnson damping scheme (D3BJ)
Cite in your paper:
S.Grimme, S.Ehrlich, L.Goerigk, J Comput Chem, (2011), 32, 1456–1465 
S.Grimme, J.Antony, S.Ehrlich and H.Krieg, J.Chem.Phys., 132, (2010), 154104 
   

Your calculation employs the composite approach PBEh-3c.
Please cite in your paper:
S. Grimme, J. G. Brandenburg, C. Bannwarth, A. Hansen J.Chem.Phys., 143, (2015), 054107 
   

================================================================================

----- Orbital basis set information -----
Your calculation utilizes the basis: def2-mSVP

----- AuxJ basis set information -----
Your calculation utilizes the auxiliary basis: def2/J
   F. Weigend, Phys. Chem. Chem. Phys. 8, 1057 (2006).

================================================================================
                                        WARNINGS
                       Please study these warnings very carefully!
================================================================================


WARNING: your system is open-shell and RHF/RKS was chosen
  ===> : WILL SWITCH to UHF/UKS


INFO   : the flag for use of the SHARK integral package has been found!

================================================================================
                                       INPUT FILE
================================================================================
NAME = pbeh-3c.inp
|  1> ! PBEh-3c def2/J TightSCF DefGrid3
|  2> 
|  3> %maxcore 60000
|  4> 
|  5> %pal
|  6> nprocs 4
|  7> end
|  8> 
|  9> *xyzfile 0 2 16.xyz
| 10> 
| 11>                          ****END OF INPUT****
================================================================================

                       ****************************
                       * Single Point Calculation *
                       ****************************

---------------------------------
CARTESIAN COORDINATES (ANGSTROEM)
---------------------------------
  Si     1.247047    0.827704    0.082727
  H      1.978684    2.449694   -1.474555
  O      1.664583    1.533129   -1.473322
  B     -0.407506    1.382271    1.234632
  H     -0.351603    2.148446    2.153598
  B     -0.718592   -1.988428   -0.202563
  H     -1.180906    1.863561    0.378371
  Si    -0.643104   -0.647248    1.772576
  Mg    -1.540571    0.209392   -0.573422
  H     -0.805027   -3.086981    0.344586
  B      0.510265   -0.917570   -0.157467
  Mg     0.933877   -2.714477    1.345565
  H     -1.410776    0.677998   -2.274139
  H     -1.656368   -1.907186   -0.995918
  Al     1.959775   -0.251182    2.199454
  Li     0.420222    0.420878   -2.360121

----------------------------
CARTESIAN COORDINATES (A.U.)
----------------------------
  NO LB      ZA    FRAG     MASS         X           Y           Z
   0 Si   14.0000    0    28.086    2.356577    1.564134    0.156332
   1 H     1.0000    0     1.008    3.739171    4.629251   -2.786506
   2 O     8.0000    0    15.999    3.145606    2.897194   -2.784175
   3 B     5.0000    0    10.810   -0.770075    2.612114    2.333116
   4 H     1.0000    0     1.008   -0.664434    4.059974    4.069711
   5 B     5.0000    0    10.810   -1.357942   -3.757585   -0.382790
   6 H     1.0000    0     1.008   -2.231589    3.521619    0.715018
   7 Si   14.0000    0    28.086   -1.215290   -1.223121    3.349682
   8 Mg   12.0000    0    24.305   -2.911257    0.395694   -1.083611
   9 H     1.0000    0     1.008   -1.521280   -5.833548    0.651174
  10 B     5.0000    0    10.810    0.964261   -1.733957   -0.297570
  11 Mg   12.0000    0    24.305    1.764772   -5.129618    2.542749
  12 H     1.0000    0     1.008   -2.665980    1.281231   -4.297501
  13 H     1.0000    0     1.008   -3.130082   -3.604059   -1.882012
  14 Al   13.0000    0    26.982    3.703437   -0.474666    4.156366
  15 Li    3.0000    0     6.941    0.794104    0.795344   -4.459983

--------------------------------
INTERNAL COORDINATES (ANGSTROEM)
--------------------------------
 Si     0   0   0     0.000000000000     0.00000000     0.00000000
 H      1   0   0     2.364587753689     0.00000000     0.00000000
 O      2   1   0     0.968892587477    41.40526712     0.00000000
 B      1   2   3     2.090926736312   115.19669281   238.46649450
 H      4   1   2     1.197767732007   123.73809696   284.18412069
 B      1   2   3     3.446117567818   133.04068920   337.30045533
 H      4   1   2     1.250187874557   102.37484343    45.90919147
 Si     4   1   2     2.112779133224    88.49486955   164.65420023
 Mg     7   4   1     1.942046028562    97.02673760    67.20592237
 H      6   1   2     1.230309287124   137.13263143   149.15363526
 B      6   1   2     1.630600894275    14.34545249    88.66700071
 Mg    10   6   1     2.040711643547    89.72999159   351.23690789
 H      9   7   4     1.768863114327   103.41357976   224.65628337
 H      6   1   2     1.231030308037   115.71761241   323.62446294
 Al     1   2   3     2.480424988883   140.48629275   128.02792585
 Li    13   9   7     1.850960840435    94.61437757    86.40607600

---------------------------
INTERNAL COORDINATES (A.U.)
---------------------------
 Si     0   0   0     0.000000000000     0.00000000     0.00000000
 H      1   0   0     4.468423274095     0.00000000     0.00000000
 O      2   1   0     1.830941643517    41.40526712     0.00000000
 B      1   2   3     3.951278897724   115.19669281   238.46649450
 H      4   1   2     2.263452985541   123.73809696   284.18412069
 B      1   2   3     6.512218428470   133.04068920   337.30045533
 H      4   1   2     2.362512698863   102.37484343    45.90919147
 Si     4   1   2     3.992573943257    88.49486955   164.65420023
 Mg     7   4   1     3.669935133451    97.02673760    67.20592237
 H      6   1   2     2.324947612684   137.13263143   149.15363526
 B      6   1   2     3.081389123908    14.34545249    88.66700071
 Mg    10   6   1     3.856386124608    89.72999159   351.23690789
 H      9   7   4     3.342666854473   103.41357976   224.65628337
 H      6   1   2     2.326310144747   115.71761241   323.62446294
 Al     1   2   3     4.687323924723   140.48629275   128.02792585
 Li    13   9   7     3.497809073034    94.61437757    86.40607600

---------------------
BASIS SET INFORMATION
---------------------
There are 7 groups of distinct atoms

 Group   1 Type Si  : 10s7p1d contracted to 4s3p1d pattern {5311/511/1}
 Group   2 Type H   : 4s contracted to 2s pattern {31}
 Group   3 Type O   : 8s4p1d contracted to 4s2p1d pattern {5111/31/1}
 Group   4 Type B   : 8s4p1d contracted to 4s2p1d pattern {5111/31/1}
 Group   5 Type Mg  : 10s7p1d contracted to 4s3p1d pattern {5311/511/1}
 Group   6 Type Al  : 10s7p1d contracted to 4s3p1d pattern {5311/511/1}
 Group   7 Type Li  : 7s3p contracted to 3s2p pattern {511/21}

Atom   0Si   basis set group =>   1
Atom   1H    basis set group =>   2
Atom   2O    basis set group =>   3
Atom   3B    basis set group =>   4
Atom   4H    basis set group =>   2
Atom   5B    basis set group =>   4
Atom   6H    basis set group =>   2
Atom   7Si   basis set group =>   1
Atom   8Mg   basis set group =>   5
Atom   9H    basis set group =>   2
Atom  10B    basis set group =>   4
Atom  11Mg   basis set group =>   5
Atom  12H    basis set group =>   2
Atom  13H    basis set group =>   2
Atom  14Al   basis set group =>   6
Atom  15Li   basis set group =>   7
---------------------------------
AUXILIARY/J BASIS SET INFORMATION
---------------------------------
There are 7 groups of distinct atoms

 Group   1 Type Si  : 14s5p5d2f1g contracted to 8s4p3d1f1g pattern {71111111/2111/311/2/1}
 Group   2 Type H   : 5s2p1d contracted to 3s1p1d pattern {311/2/1}
 Group   3 Type O   : 12s5p4d2f1g contracted to 6s4p3d1f1g pattern {711111/2111/211/2/1}
 Group   4 Type B   : 12s5p4d2f1g contracted to 6s4p3d1f1g pattern {711111/2111/211/2/1}
 Group   5 Type Mg  : 14s5p5d2f1g contracted to 8s4p4d1f1g pattern {71111111/2111/2111/2/1}
 Group   6 Type Al  : 14s5p5d2f1g contracted to 8s4p3d1f1g pattern {71111111/2111/311/2/1}
 Group   7 Type Li  : 12s5p4d2f1g contracted to 6s4p3d1f1g pattern {711111/2111/211/2/1}

Atom   0Si   basis set group =>   1
Atom   1H    basis set group =>   2
Atom   2O    basis set group =>   3
Atom   3B    basis set group =>   4
Atom   4H    basis set group =>   2
Atom   5B    basis set group =>   4
Atom   6H    basis set group =>   2
Atom   7Si   basis set group =>   1
Atom   8Mg   basis set group =>   5
Atom   9H    basis set group =>   2
Atom  10B    basis set group =>   4
Atom  11Mg   basis set group =>   5
Atom  12H    basis set group =>   2
Atom  13H    basis set group =>   2
Atom  14Al   basis set group =>   6
Atom  15Li   basis set group =>   7


           ************************************************************
           *        Program running with 4 parallel MPI-processes     *
           *              working on a common directory               *
           ************************************************************
------------------------------------------------------------------------------
                           ORCA GTO INTEGRAL CALCULATION
                           -- RI-GTO INTEGRALS CHOSEN --
------------------------------------------------------------------------------
------------------------------------------------------------------------------
                   ___                                                        
                  /   \      - P O W E R E D   B Y -                         
                 /     \                                                     
                 |  |  |   _    _      __       _____    __    __             
                 |  |  |  | |  | |    /  \     |  _  \  |  |  /  |          
                  \  \/   | |  | |   /    \    | | | |  |  | /  /          
                 / \  \   | |__| |  /  /\  \   | |_| |  |  |/  /          
                |  |  |   |  __  | /  /__\  \  |    /   |      \           
                |  |  |   | |  | | |   __   |  |    \   |  |\   \          
                \     /   | |  | | |  |  |  |  | |\  \  |  | \   \       
                 \___/    |_|  |_| |__|  |__|  |_| \__\ |__|  \__/        
                                                                              
                      - O R C A' S   B I G   F R I E N D -                    
                                      &                                       
                       - I N T E G R A L  F E E D E R -                       
                                                                              
 v1 FN, 2020, v2 2021                                                         
------------------------------------------------------------------------------


Reading SHARK input file pbeh-3c.SHARKINP.tmp ... ok
----------------------
SHARK INTEGRAL PACKAGE
----------------------

Number of atoms                             ...     16
Number of basis functions                   ...    171
Number of shells                            ...     85
Maximum angular momentum                    ...      2
Integral batch strategy                     ... SHARK/LIBINT Hybrid
RI-J (if used) integral strategy            ... SPLIT-RIJ (Revised 2003 algorithm where possible)
Printlevel                                  ...      1
Contraction scheme used                     ... SEGMENTED contraction
Coulomb Range Separation                    ... NOT USED
Exchange Range Separation                   ... NOT USED
Finite Nucleus Model                        ... NOT USED
Auxiliary Coulomb fitting basis             ... AVAILABLE
   # of basis functions in Aux-J            ...    576
   # of shells in Aux-J                     ...    192
   Maximum angular momentum in Aux-J        ...      4
Auxiliary J/K fitting basis                 ... NOT available
Auxiliary Correlation fitting basis         ... NOT available
Auxiliary 'external' fitting basis          ... NOT available
Integral threshold                          ...     2.500000e-11
Primitive cut-off                           ...     2.500000e-12
Primitive pair pre-selection threshold      ...     2.500000e-12

Calculating pre-screening integrals         ... done (  0.2 sec) Dimension = 85
Organizing shell pair data                  ... done (  0.6 sec)
Shell pair information
Total number of shell pairs                 ...      3655
Shell pairs after pre-screening             ...      3373
Total number of primitive shell pairs       ...     15772
Primitive shell pairs kept                  ...      9772
          la=0 lb=0:   1137 shell pairs
          la=1 lb=0:   1209 shell pairs
          la=1 lb=1:    321 shell pairs
          la=2 lb=0:    439 shell pairs
          la=2 lb=1:    222 shell pairs
          la=2 lb=2:     45 shell pairs

Calculating one electron integrals          ... done (  0.1 sec)
Calculating RI/J V-Matrix + Cholesky decomp.... done (  0.9 sec)
Calculating Nuclear repulsion               ... done (  0.0 sec) ENN=    756.390198522584 Eh

SHARK setup successfully completed in   3.0 seconds

Maximum memory used throughout the entire GTOINT-calculation: 12.2 MB


           ************************************************************
           *        Program running with 4 parallel MPI-processes     *
           *              working on a common directory               *
           ************************************************************
-------------------------------------------------------------------------------
                                 ORCA SCF
-------------------------------------------------------------------------------

------------
SCF SETTINGS
------------
Hamiltonian:
 Density Functional     Method          .... DFT(GTOs)
 Exchange Functional    Exchange        .... PBE
   PBE kappa parameter   XKappa         ....  1.024500
   PBE mue parameter    XMuePBE         ....  0.123457
 Correlation Functional Correlation     .... PBE
   PBE beta parameter  CBetaPBE         ....  0.030000
 LDA part of GGA corr.  LDAOpt          .... PW91-LDA
 Gradients option       PostSCFGGA      .... off
 Hybrid DFT is turned on
   Fraction HF Exchange ScalHFX         ....  0.420000
   Scaling of DF-GGA-X  ScalDFX         ....  0.580000
   Scaling of DF-GGA-C  ScalDFC         ....  1.000000
   Scaling of DF-LDA-C  ScalLDAC        ....  1.000000
   Perturbative correction              ....  0.000000
   Density functional embedding theory  .... OFF
 RI-approximation to the Coulomb term is turned on
   Number of AuxJ basis functions       .... 576
   RIJ-ON(X) (HFX calculated with O(N)) .... on
   Number of AuxJ basis functions       .... 576
   RIJ-COSX (HFX calculated with COS-X)).... on


General Settings:
 Integral files         IntName         .... pbeh-3c
 Hartree-Fock type      HFTyp           .... UHF
 Total Charge           Charge          ....    0
 Multiplicity           Mult            ....    2
 Number of Electrons    NEL             ....   97
 Basis Dimension        Dim             ....  171
 Nuclear Repulsion      ENuc            ....    756.3901985226 Eh

Convergence Acceleration:
 DIIS                   CNVDIIS         .... on
   Start iteration      DIISMaxIt       ....    12
   Startup error        DIISStart       ....  0.200000
   # of expansion vecs  DIISMaxEq       ....     5
   Bias factor          DIISBfac        ....   1.050
   Max. coefficient     DIISMaxC        ....  10.000
 Trust-Rad. Augm. Hess. CNVTRAH         .... auto
   Auto Start mean grad. ratio tolernc. ....  1.125000
   Auto Start start iteration           ....    20
   Auto Start num. interpolation iter.  ....    10
   Max. Number of Micro iterations      ....    16
   Max. Number of Macro iterations      .... Maxiter - #DIIS iter
   Number of Davidson start vectors     ....     2
   Converg. threshold I  (grad. norm)   ....   1.000e-05
   Converg. threshold II (energy diff.) ....   1.000e-08
   Grad. Scal. Fac. for Micro threshold ....   0.100
   Minimum threshold for Micro iter.    ....   0.010
   NR start threshold (gradient norm)   ....   0.001
   Initial trust radius                 ....   0.400
   Minimum AH scaling param. (alpha)    ....   1.000
   Maximum AH scaling param. (alpha)    .... 1000.000
   Orbital update algorithm             .... Taylor
   White noise on init. David. guess    .... on
   Maximum white noise                  ....   0.010
   Quad. conv. algorithm                .... NR
   COSX micro iterations for RIJONX calc.... off
 SOSCF                  CNVSOSCF        .... off
 Level Shifting         CNVShift        .... on
   Level shift para.    LevelShift      ....    0.2500
   Turn off err/grad.   ShiftErr        ....    0.0010
 Zerner damping         CNVZerner       .... off
 Static damping         CNVDamp         .... on
   Fraction old density DampFac         ....    0.7000
   Max. Damping (<1)    DampMax         ....    0.9800
   Min. Damping (>=0)   DampMin         ....    0.0000
   Turn off err/grad.   DampErr         ....    0.1000
 Fernandez-Rico         CNVRico         .... off

SCF Procedure:
 Maximum # iterations   MaxIter         ....   125
 SCF integral mode      SCFMode         .... Direct
   Integral package                     .... SHARK and LIBINT hybrid scheme
 Reset frequency        DirectResetFreq ....    20
 Integral Threshold     Thresh          ....  2.500e-11 Eh
 Primitive CutOff       TCut            ....  2.500e-12 Eh

Convergence Tolerance:
 Convergence Check Mode ConvCheckMode   .... Total+1el-Energy
 Convergence forced     ConvForced      .... 0
 Energy Change          TolE            ....  1.000e-08 Eh
 1-El. energy change                    ....  1.000e-05 Eh
 DIIS Error             TolErr          ....  5.000e-07


Diagonalization of the overlap matrix:
Smallest eigenvalue                        ... 9.574e-04
Time for diagonalization                   ...    0.005 sec
Threshold for overlap eigenvalues          ... 1.000e-08
Number of eigenvalues below threshold      ... 0
Time for construction of square roots      ...    0.242 sec
Total time needed                          ...    0.249 sec

--------------------------------
INITIAL GUESS: MINIMAL BASIS EHT
--------------------------------
The minimal basis has 76 functions
EHT matrix was diagonalized
Basis set overlap was calculated now projecting the orbitals
Using GuessMode=FMatrix for the initial guess
C*T matrix was formed
Effective Fockian was calculated
Effective Fockian was diagonalized
Initial density was built
                      ------------------
                      INITIAL GUESS DONE
                      ------------------
-------------------
DFT GRID GENERATION
-------------------

General Integration Accuracy     IntAcc      ... 4.959
Radial Grid Type                 RadialGrid  ... OptM3 with GC (2021)
Angular Grid (max. ang.)         AngularGrid ... 6 (Lebedev-590)
Angular grid pruning method      GridPruning ... 4 (adaptive)
Weight generation scheme         WeightScheme... Becke
Basis function cutoff            BFCut       ... 1.0000e-11
Integration weight cutoff        WCut        ... 1.0000e-14
Angular grids for H and He will be reduced by one unit
Partially contracted basis set               ... off
Rotationally invariant grid construction     ... off

Total number of grid points                  ...   199599
Total number of batches                      ...     3127
Average number of points per batch           ...       63
Average number of grid points per atom       ...    12475
Time for grid setup =    4.788 sec

--------------------
COSX GRID GENERATION
--------------------

GRIDX 1
-------
General Integration Accuracy     IntAcc      ... 4.020
Radial Grid Type                 RadialGrid  ... OptM3 with GC (2021)
Angular Grid (max. ang.)         AngularGrid ... 2 (Lebedev-110)
Angular grid pruning method      GridPruning ... 4 (adaptive)
Weight generation scheme         WeightScheme... Becke
Basis function cutoff            BFCut       ... 1.0000e-11
Integration weight cutoff        WCut        ... 1.0000e-14
Angular grids for H and He will be reduced by one unit
Partially contracted basis set               ... on
Rotationally invariant grid construction     ... off

Total number of grid points                  ...    22702
Total number of batches                      ...      361
Average number of points per batch           ...       62
Average number of grid points per atom       ...     1419
UseSFitting                                  ... on

GRIDX 2
-------
General Integration Accuracy     IntAcc      ... 4.338
Radial Grid Type                 RadialGrid  ... OptM3 with GC (2021)
Angular Grid (max. ang.)         AngularGrid ... 3 (Lebedev-194)
Angular grid pruning method      GridPruning ... 4 (adaptive)
Weight generation scheme         WeightScheme... Becke
Basis function cutoff            BFCut       ... 1.0000e-11
Integration weight cutoff        WCut        ... 1.0000e-14
Angular grids for H and He will be reduced by one unit
Partially contracted basis set               ... on
Rotationally invariant grid construction     ... off

Total number of grid points                  ...    52357
Total number of batches                      ...      825
Average number of points per batch           ...       63
Average number of grid points per atom       ...     3272
UseSFitting                                  ... on

GRIDX 3
-------
General Integration Accuracy     IntAcc      ... 4.871
Radial Grid Type                 RadialGrid  ... OptM3 with GC (2021)
Angular Grid (max. ang.)         AngularGrid ... 4 (Lebedev-302)
Angular grid pruning method      GridPruning ... 4 (adaptive)
Weight generation scheme         WeightScheme... Becke
Basis function cutoff            BFCut       ... 1.0000e-11
Integration weight cutoff        WCut        ... 1.0000e-14
Angular grids for H and He will be reduced by one unit
Partially contracted basis set               ... on
Rotationally invariant grid construction     ... off

Total number of grid points                  ...    95566
Total number of batches                      ...     1502
Average number of points per batch           ...       63
Average number of grid points per atom       ...     5973
UseSFitting                                  ... on

Time for X-Grid setup             =    5.372 sec

--------------
SCF ITERATIONS
--------------
ITER       Energy         Delta-E        Max-DP      RMS-DP      [F,P]     Damp
               ***  Starting incremental Fock matrix formation  ***
  0  -1377.9863349467   0.000000000000 0.51626821  0.00701911  0.2730543 0.7000
  1  -1378.8021795281  -0.815844581342 0.18045423  0.00354579  0.1473521 0.7000
                               ***Turning on DIIS***
  2  -1379.2387565307  -0.436577002567 0.41989988  0.00806228  0.0986824 0.0000
  3  -1380.3170518070  -1.078295276318 0.27436797  0.00361914  0.0485811 0.0000
  4  -1380.4343863392  -0.117334532201 0.17619162  0.00166718  0.0313421 0.0000
  5  -1380.4659443151  -0.031557975961 0.10996697  0.00105267  0.0068978 0.0000
  6  -1380.4761029637  -0.010158648586 0.06115417  0.00065149  0.0069063 0.0000
  7  -1380.4819615814  -0.005858617669 0.03819846  0.00051056  0.0059336 0.0000
  8  -1380.4869332921  -0.004971710742 0.02811373  0.00039915  0.0061776 0.0000
  9  -1380.4912816747  -0.004348382526 0.02504145  0.00034689  0.0058604 0.0000
 10  -1380.4953071543  -0.004025479666 0.02329879  0.00032509  0.0057772 0.0000
 11  -1380.4990669868  -0.003759832456 0.02902040  0.00036448  0.0053986 0.0000
 12  -1380.5030412440  -0.003974257260 0.02682375  0.00035209  0.0054445 0.0000
 13  -1380.5066567636  -0.003615519535 0.03941515  0.00045040  0.0049627 0.0000
 14  -1380.5105118403  -0.003855076708 0.02150213  0.00030349  0.0048237 0.0000
 15  -1380.5129461196  -0.002434279273 0.02678553  0.00035672  0.0038619 0.0000
 16  -1380.5150971880  -0.002151068419 0.01607205  0.00024942  0.0030611 0.0000
 17  -1380.5163556465  -0.001258458513 0.01033877  0.00020855  0.0021561 0.0000
 18  -1380.5171488723  -0.000793225761 0.00762633  0.00017074  0.0015599 0.0000
 19  -1380.5176533248  -0.000504452498 0.00461376  0.00013015  0.0010288 0.0000
               *** Restarting incremental Fock matrix formation ***
                                   *** Resetting DIIS ***
 20  -1380.5179953724  -0.000342047679 0.00538269  0.00014200  0.0007258 0.0000
               *** Restarting incremental Fock matrix formation ***
                                   *** Resetting DIIS ***
 21  -1380.5181652783  -0.000169905910 0.00520540  0.00008947  0.0006484 0.0000
 22  -1380.5182404830  -0.000075204709 0.00097191  0.00003328  0.0008329 0.0000
 23  -1380.5182671391  -0.000026656010 0.00247642  0.00006554  0.0003665 0.0000
 24  -1380.5183056475  -0.000038508430 0.00147167  0.00004516  0.0002768 0.0000
 25  -1380.5183220911  -0.000016443599 0.00140411  0.00003750  0.0002357 0.0000
 26  -1380.5183300409  -0.000007949817 0.00061178  0.00001636  0.0001267 0.0000
 27  -1380.5183317418  -0.000001700901 0.00037306  0.00000912  0.0000850 0.0000
 28  -1380.5183324453  -0.000000703530 0.00024732  0.00000617  0.0000429 0.0000
 29  -1380.5183327089  -0.000000263545 0.00013269  0.00000390  0.0000366 0.0000
 30  -1380.5183328079  -0.000000098983 0.00007055  0.00000252  0.0000181 0.0000
 31  -1380.5183328563  -0.000000048431 0.00005406  0.00000161  0.0000119 0.0000
 32  -1380.5183328729  -0.000000016582 0.00004754  0.00000109  0.0000083 0.0000
 33  -1380.5183328865  -0.000000013620 0.00003206  0.00000082  0.0000071 0.0000
 34  -1380.5183328877  -0.000000001240 0.00002068  0.00000053  0.0000074 0.0000
 35  -1380.5183328933  -0.000000005586 0.00001224  0.00000034  0.0000048 0.0000
 36  -1380.5183328945  -0.000000001153 0.00001483  0.00000036  0.0000038 0.0000
 37  -1380.5183328915   0.000000002980 0.00001000  0.00000021  0.0000025 0.0000
 38  -1380.5183328929  -0.000000001394 0.00000957  0.00000020  0.0000017 0.0000
 39  -1380.5183328894   0.000000003507 0.00000629  0.00000015  0.0000011 0.0000
                            ***DIIS convergence achieved***

               *****************************************************
               *                     SUCCESS                       *
               *           SCF CONVERGED AFTER  40 CYCLES          *
               *****************************************************

Old exchange energy                            =    -48.195404167 Eh
New exchange energy                            =    -48.195410146 Eh
Exchange energy change after final integration =     -0.000005980 Eh
Total energy after final integration           =  -1380.518338870 Eh
Final COS-X integration done in                =     7.696 sec

----------------
TOTAL SCF ENERGY
----------------

Total Energy       :        -1380.51833887 Eh          -37565.81381 eV

Components:
Nuclear Repulsion  :          756.39019852 Eh           20582.42369 eV
Electronic Energy  :        -2136.90853739 Eh          -58148.23750 eV
One Electron Energy:        -3424.07695852 Eh          -93173.87091 eV
Two Electron Energy:         1287.16842113 Eh           35025.63341 eV
Max COSX asymmetry :            0.00000077 Eh               0.00002 eV

Virial components:
Potential Energy   :        -2756.72663410 Eh          -75014.34537 eV
Kinetic Energy     :         1376.20829523 Eh           37448.53156 eV
Virial Ratio       :            2.00313183


DFT components:
N(Alpha)           :       48.999999235855 electrons
N(Beta)            :       47.999999916342 electrons
N(Total)           :       96.999999152196 electrons
E(X)               :      -64.172605765259 Eh       
E(C)               :       -4.556993087674 Eh       
E(XC)              :      -68.729598852933 Eh       
DFET-embed. en.    :        0.000000000000 Eh       

---------------
SCF CONVERGENCE
---------------

  Last Energy change         ...   -1.5277e-09  Tolerance :   1.0000e-08
  Last MAX-Density change    ...    0.0000e+00  Tolerance :   1.0000e-07
  Last RMS-Density change    ...    0.0000e+00  Tolerance :   5.0000e-09
  Last DIIS Error            ...    7.1770e-07  Tolerance :   5.0000e-07


================================================================================
MOs in valence range (operator=0) identified as core orbitals.
Correct this by swapping MOs
                           MOs 21 and 18
                           MOs 22 and 19
                                               done
MOs in valence range (operator=1) identified as core orbitals.
Correct this by swapping MOs
                           MOs 21 and 18
                           MOs 22 and 19
                                               done
================================================================================

             **** THE GBW FILE WAS UPDATED (pbeh-3c.gbw) ****
             **** DENSITY pbeh-3c.scfp WAS UPDATED ****
             **** ENERGY FILE WAS UPDATED (pbeh-3c.en.tmp) ****
----------------------
UHF SPIN CONTAMINATION
----------------------

Warning: in a DFT calculation there is little theoretical justification to 
         calculate <S**2> as in Hartree-Fock theory. We will do it anyways
         but you should keep in mind that the values have only limited relevance

Expectation value of <S**2>     :     0.760141
Ideal value S*(S+1) for S=0.5   :     0.750000
Deviation                       :     0.010141

             **** THE GBW FILE WAS UPDATED (pbeh-3c.gbw) ****
             **** DENSITY pbeh-3c.scfp WAS UPDATED ****
----------------
ORBITAL ENERGIES
----------------
                 SPIN UP ORBITALS
  NO   OCC          E(Eh)            E(eV) 
   0   1.0000     -66.745138     -1816.2275 
   1   1.0000     -66.708543     -1815.2318 
   2   1.0000     -56.599558     -1540.1523 
   3   1.0000     -47.383380     -1289.3673 
   4   1.0000     -47.372419     -1289.0691 
   5   1.0000     -19.523527      -531.2622 
   6   1.0000      -6.949259      -189.0989 
   7   1.0000      -6.936870      -188.7618 
   8   1.0000      -6.934153      -188.6879 
   9   1.0000      -5.513850      -150.0395 
  10   1.0000      -5.482212      -149.1786 
  11   1.0000      -4.335159      -117.9657 
  12   1.0000      -3.806240      -103.5730 
  13   1.0000      -3.804960      -103.5382 
  14   1.0000      -3.803088      -103.4873 
  15   1.0000      -3.773510      -102.6824 
  16   1.0000      -3.773190      -102.6737 
  17   1.0000      -3.770188      -102.5920 
  18   1.0000      -2.821605       -76.7798 
  19   1.0000      -2.820052       -76.7375 
  20   1.0000      -2.823221       -76.8237 
  21   1.0000      -3.332610       -90.6849 
  22   1.0000      -3.323989       -90.4503 
  23   1.0000      -2.111968       -57.4696 
  24   1.0000      -2.014629       -54.8208 
  25   1.0000      -2.014400       -54.8146 
  26   1.0000      -2.013435       -54.7883 
  27   1.0000      -2.008384       -54.6509 
  28   1.0000      -2.007431       -54.6250 
  29   1.0000      -2.005440       -54.5708 
  30   1.0000      -1.120874       -30.5005 
  31   1.0000      -0.698145       -18.9975 
  32   1.0000      -0.625640       -17.0245 
  33   1.0000      -0.596089       -16.2204 
  34   1.0000      -0.527140       -14.3442 
  35   1.0000      -0.494438       -13.4543 
  36   1.0000      -0.471250       -12.8234 
  37   1.0000      -0.436347       -11.8736 
  38   1.0000      -0.433938       -11.8081 
  39   1.0000      -0.424689       -11.5564 
  40   1.0000      -0.392854       -10.6901 
  41   1.0000      -0.358060        -9.7433 
  42   1.0000      -0.339461        -9.2372 
  43   1.0000      -0.305612        -8.3161 
  44   1.0000      -0.270304        -7.3554 
  45   1.0000      -0.247000        -6.7212 
  46   1.0000      -0.230306        -6.2670 
  47   1.0000      -0.217817        -5.9271 
  48   1.0000      -0.200438        -5.4542 
  49   0.0000      -0.067175        -1.8279 
  50   0.0000      -0.038525        -1.0483 
  51   0.0000      -0.016326        -0.4443 
  52   0.0000      -0.009991        -0.2719 
  53   0.0000       0.005108         0.1390 
  54   0.0000       0.012708         0.3458 
  55   0.0000       0.018070         0.4917 
  56   0.0000       0.031829         0.8661 
  57   0.0000       0.041989         1.1426 
  58   0.0000       0.055565         1.5120 
  59   0.0000       0.061848         1.6830 
  60   0.0000       0.063135         1.7180 
  61   0.0000       0.078272         2.1299 
  62   0.0000       0.085070         2.3149 
  63   0.0000       0.087900         2.3919 
  64   0.0000       0.096291         2.6202 
  65   0.0000       0.108152         2.9430 
  66   0.0000       0.119369         3.2482 
  67   0.0000       0.134255         3.6533 
  68   0.0000       0.143979         3.9179 
  69   0.0000       0.156670         4.2632 
  70   0.0000       0.157997         4.2993 
  71   0.0000       0.164762         4.4834 
  72   0.0000       0.170428         4.6376 
  73   0.0000       0.195045         5.3074 
  74   0.0000       0.205548         5.5932 
  75   0.0000       0.211093         5.7441 
  76   0.0000       0.214338         5.8324 
  77   0.0000       0.229737         6.2515 
  78   0.0000       0.240486         6.5440 
  79   0.0000       0.247952         6.7471 
  80   0.0000       0.256104         6.9690 
  81   0.0000       0.261062         7.1039 
  82   0.0000       0.271305         7.3826 
  83   0.0000       0.278474         7.5777 
  84   0.0000       0.288946         7.8626 
  85   0.0000       0.295220         8.0333 
  86   0.0000       0.296304         8.0628 
  87   0.0000       0.308322         8.3899 
  88   0.0000       0.326211         8.8766 
  89   0.0000       0.333856         9.0847 
  90   0.0000       0.341834         9.3018 
  91   0.0000       0.348967         9.4959 
  92   0.0000       0.361047         9.8246 
  93   0.0000       0.372225        10.1288 
  94   0.0000       0.383108        10.4249 
  95   0.0000       0.397319        10.8116 
  96   0.0000       0.405383        11.0310 
  97   0.0000       0.413775        11.2594 
  98   0.0000       0.429519        11.6878 
  99   0.0000       0.437260        11.8985 
 100   0.0000       0.447781        12.1847 
 101   0.0000       0.462520        12.5858 
 102   0.0000       0.471084        12.8189 
 103   0.0000       0.480119        13.0647 
 104   0.0000       0.491946        13.3865 
 105   0.0000       0.503599        13.7036 
 106   0.0000       0.512158        13.9365 
 107   0.0000       0.524346        14.2682 
 108   0.0000       0.531675        14.4676 
 109   0.0000       0.555068        15.1042 
 110   0.0000       0.567501        15.4425 
 111   0.0000       0.588532        16.0148 
 112   0.0000       0.599231        16.3059 
 113   0.0000       0.601338        16.3632 
 114   0.0000       0.606074        16.4921 
 115   0.0000       0.624168        16.9845 
 116   0.0000       0.643603        17.5133 
 117   0.0000       0.651660        17.7326 
 118   0.0000       0.664581        18.0842 
 119   0.0000       0.688695        18.7403 
 120   0.0000       0.699307        19.0291 
 121   0.0000       0.717792        19.5321 
 122   0.0000       0.728644        19.8274 
 123   0.0000       0.742863        20.2143 
 124   0.0000       0.763430        20.7740 
 125   0.0000       0.772698        21.0262 
 126   0.0000       0.806275        21.9399 
 127   0.0000       0.813942        22.1485 
 128   0.0000       0.837361        22.7858 
 129   0.0000       0.872132        23.7319 
 130   0.0000       0.893165        24.3043 
 131   0.0000       0.904360        24.6089 
 132   0.0000       0.924050        25.1447 
 133   0.0000       0.978600        26.6291 
 134   0.0000       0.995550        27.0903 
 135   0.0000       1.014187        27.5974 
 136   0.0000       1.027308        27.9545 
 137   0.0000       1.128596        30.7107 
 138   0.0000       1.207784        32.8655 
 139   0.0000       1.219686        33.1893 
 140   0.0000       1.254125        34.1265 
 141   0.0000       1.272920        34.6379 
 142   0.0000       1.307038        35.5663 
 143   0.0000       1.326633        36.0995 
 144   0.0000       1.338048        36.4101 
 145   0.0000       1.411506        38.4090 
 146   0.0000       1.742627        47.4193 
 147   0.0000       1.821072        49.5539 
 148   0.0000       1.833261        49.8856 
 149   0.0000       1.882265        51.2190 
 150   0.0000       1.896886        51.6169 
 151   0.0000       1.908054        51.9208 
 152   0.0000       1.924345        52.3641 
 153   0.0000       1.947379        52.9909 
 154   0.0000       1.956407        53.2365 
 155   0.0000       1.984862        54.0108 
 156   0.0000       1.992867        54.2287 
 157   0.0000       2.054297        55.9003 
 158   0.0000       2.101410        57.1823 
 159   0.0000       2.127884        57.9027 
 160   0.0000       2.152961        58.5850 
 161   0.0000       2.259784        61.4918 
 162   0.0000       2.297748        62.5249 
 163   0.0000       2.421377        65.8890 
 164   0.0000       2.486016        67.6479 
 165   0.0000       2.539232        69.0960 
 166   0.0000       2.725522        74.1652 
 167   0.0000       9.269462       252.2349 
 168   0.0000       9.305418       253.2133 
 169   0.0000       9.524983       259.1880 
 170   0.0000      25.461876       692.8529 

                 SPIN DOWN ORBITALS
  NO   OCC          E(Eh)            E(eV) 
   0   1.0000     -66.745161     -1816.2282 
   1   1.0000     -66.708084     -1815.2193 
   2   1.0000     -56.599255     -1540.1440 
   3   1.0000     -47.380585     -1289.2913 
   4   1.0000     -47.372328     -1289.0666 
   5   1.0000     -19.523563      -531.2632 
   6   1.0000      -6.948946      -189.0904 
   7   1.0000      -6.936454      -188.7505 
   8   1.0000      -6.933958      -188.6826 
   9   1.0000      -5.513874      -150.0401 
  10   1.0000      -5.481666      -149.1637 
  11   1.0000      -4.334716      -117.9536 
  12   1.0000      -3.806267      -103.5738 
  13   1.0000      -3.805252      -103.5462 
  14   1.0000      -3.802882      -103.4817 
  15   1.0000      -3.772873      -102.6651 
  16   1.0000      -3.771882      -102.6381 
  17   1.0000      -3.769737      -102.5798 
  18   1.0000      -2.821362       -76.7732 
  19   1.0000      -2.819972       -76.7353 
  20   1.0000      -2.821993       -76.7903 
  21   1.0000      -3.327135       -90.5359 
  22   1.0000      -3.323832       -90.4461 
  23   1.0000      -2.111979       -57.4699 
  24   1.0000      -2.011476       -54.7350 
  25   1.0000      -2.010379       -54.7052 
  26   1.0000      -2.009889       -54.6918 
  27   1.0000      -2.008283       -54.6481 
  28   1.0000      -2.007298       -54.6214 
  29   1.0000      -2.005214       -54.5646 
  30   1.0000      -1.120937       -30.5022 
  31   1.0000      -0.695590       -18.9280 
  32   1.0000      -0.625035       -17.0081 
  33   1.0000      -0.593926       -16.1616 
  34   1.0000      -0.524167       -14.2633 
  35   1.0000      -0.493174       -13.4199 
  36   1.0000      -0.468268       -12.7422 
  37   1.0000      -0.434228       -11.8159 
  38   1.0000      -0.431976       -11.7547 
  39   1.0000      -0.421931       -11.4813 
  40   1.0000      -0.391606       -10.6562 
  41   1.0000      -0.350024        -9.5246 
  42   1.0000      -0.337410        -9.1814 
  43   1.0000      -0.302820        -8.2401 
  44   1.0000      -0.268098        -7.2953 
  45   1.0000      -0.242211        -6.5909 
  46   1.0000      -0.228191        -6.2094 
  47   1.0000      -0.215835        -5.8732 
  48   0.0000      -0.089866        -2.4454 
  49   0.0000      -0.047619        -1.2958 
  50   0.0000      -0.033458        -0.9104 
  51   0.0000      -0.009759        -0.2655 
  52   0.0000      -0.003821        -0.1040 
  53   0.0000       0.013972         0.3802 
  54   0.0000       0.020439         0.5562 
  55   0.0000       0.023095         0.6284 
  56   0.0000       0.034760         0.9459 
  57   0.0000       0.046792         1.2733 
  58   0.0000       0.063163         1.7188 
  59   0.0000       0.066283         1.8036 
  60   0.0000       0.074782         2.0349 
  61   0.0000       0.080550         2.1919 
  62   0.0000       0.088550         2.4096 
  63   0.0000       0.091917         2.5012 
  64   0.0000       0.102275         2.7831 
  65   0.0000       0.116338         3.1657 
  66   0.0000       0.122744         3.3400 
  67   0.0000       0.135465         3.6862 
  68   0.0000       0.146063         3.9746 
  69   0.0000       0.158888         4.3236 
  70   0.0000       0.162645         4.4258 
  71   0.0000       0.170144         4.6298 
  72   0.0000       0.176279         4.7968 
  73   0.0000       0.198974         5.4144 
  74   0.0000       0.213084         5.7983 
  75   0.0000       0.215437         5.8623 
  76   0.0000       0.223561         6.0834 
  77   0.0000       0.238440         6.4883 
  78   0.0000       0.241653         6.5757 
  79   0.0000       0.251045         6.8313 
  80   0.0000       0.260286         7.0827 
  81   0.0000       0.267989         7.2924 
  82   0.0000       0.279220         7.5980 
  83   0.0000       0.287338         7.8189 
  84   0.0000       0.297079         8.0839 
  85   0.0000       0.300570         8.1789 
  86   0.0000       0.306081         8.3289 
  87   0.0000       0.313421         8.5286 
  88   0.0000       0.332959         9.0603 
  89   0.0000       0.337426         9.1818 
  90   0.0000       0.346469         9.4279 
  91   0.0000       0.354531         9.6473 
  92   0.0000       0.365380         9.9425 
  93   0.0000       0.374720        10.1967 
  94   0.0000       0.385482        10.4895 
  95   0.0000       0.399889        10.8815 
  96   0.0000       0.409857        11.1528 
  97   0.0000       0.415801        11.3145 
  98   0.0000       0.432398        11.7661 
  99   0.0000       0.440918        11.9980 
 100   0.0000       0.449474        12.2308 
 101   0.0000       0.465433        12.6651 
 102   0.0000       0.472864        12.8673 
 103   0.0000       0.482915        13.1408 
 104   0.0000       0.495143        13.4735 
 105   0.0000       0.505910        13.7665 
 106   0.0000       0.514215        13.9925 
 107   0.0000       0.527478        14.3534 
 108   0.0000       0.534380        14.5412 
 109   0.0000       0.557403        15.1677 
 110   0.0000       0.569058        15.4849 
 111   0.0000       0.590103        16.0575 
 112   0.0000       0.600453        16.3392 
 113   0.0000       0.604697        16.4546 
 114   0.0000       0.607903        16.5419 
 115   0.0000       0.626321        17.0431 
 116   0.0000       0.646124        17.5819 
 117   0.0000       0.653970        17.7954 
 118   0.0000       0.667465        18.1626 
 119   0.0000       0.690711        18.7952 
 120   0.0000       0.700285        19.0557 
 121   0.0000       0.722539        19.6613 
 122   0.0000       0.731469        19.9043 
 123   0.0000       0.744563        20.2606 
 124   0.0000       0.765305        20.8250 
 125   0.0000       0.773958        21.0605 
 126   0.0000       0.807463        21.9722 
 127   0.0000       0.816248        22.2112 
 128   0.0000       0.839321        22.8391 
 129   0.0000       0.873711        23.7749 
 130   0.0000       0.896440        24.3934 
 131   0.0000       0.905352        24.6359 
 132   0.0000       0.924904        25.1679 
 133   0.0000       0.979526        26.6543 
 134   0.0000       0.996930        27.1278 
 135   0.0000       1.015473        27.6324 
 136   0.0000       1.028673        27.9916 
 137   0.0000       1.128813        30.7166 
 138   0.0000       1.208951        32.8972 
 139   0.0000       1.220716        33.2174 
 140   0.0000       1.255383        34.1607 
 141   0.0000       1.275657        34.7124 
 142   0.0000       1.307255        35.5722 
 143   0.0000       1.327149        36.1136 
 144   0.0000       1.340086        36.4656 
 145   0.0000       1.411670        38.4135 
 146   0.0000       1.742939        47.4278 
 147   0.0000       1.821608        49.5685 
 148   0.0000       1.833382        49.8889 
 149   0.0000       1.882581        51.2276 
 150   0.0000       1.897159        51.6243 
 151   0.0000       1.908497        51.9328 
 152   0.0000       1.924793        52.3763 
 153   0.0000       1.947834        53.0033 
 154   0.0000       1.956895        53.2498 
 155   0.0000       1.986009        54.0421 
 156   0.0000       1.993411        54.2435 
 157   0.0000       2.055400        55.9303 
 158   0.0000       2.102082        57.2006 
 159   0.0000       2.128721        57.9254 
 160   0.0000       2.154450        58.6256 
 161   0.0000       2.261152        61.5291 
 162   0.0000       2.297967        62.5308 
 163   0.0000       2.422218        65.9119 
 164   0.0000       2.486042        67.6486 
 165   0.0000       2.539313        69.0982 
 166   0.0000       2.725890        74.1752 
 167   0.0000       9.269924       252.2475 
 168   0.0000       9.305832       253.2246 
 169   0.0000       9.525271       259.1958 
 170   0.0000      25.461832       692.8517 

                    ********************************
                    * MULLIKEN POPULATION ANALYSIS *
                    ********************************

--------------------------------------------
MULLIKEN ATOMIC CHARGES AND SPIN POPULATIONS
--------------------------------------------
   0 Si:    0.437837   -0.023181
   1 H :    0.454993   -0.000175
   2 O :   -0.807064   -0.000524
   3 B :   -0.440606    0.000033
   4 H :    0.109044   -0.000237
   5 B :   -0.289561   -0.009959
   6 H :    0.047630    0.038216
   7 Si:   -0.037593    0.115036
   8 Mg:   -0.050506    0.032056
   9 H :    0.021938    0.001764
  10 B :   -0.447071    0.019126
  11 Mg:    0.021149    0.731765
  12 H :   -0.211499   -0.000122
  13 H :    0.036921    0.000424
  14 Al:    0.348715    0.094154
  15 Li:    0.805672    0.001621
Sum of atomic charges         :   -0.0000000
Sum of atomic spin populations:    1.0000000

-----------------------------------------------------
MULLIKEN REDUCED ORBITAL CHARGES AND SPIN POPULATIONS
-----------------------------------------------------
CHARGE
  0 Sis       :     5.290357  s :     5.290357
      pz      :     2.641112  p :     8.008936
      px      :     2.710881
      py      :     2.656943
      dz2     :     0.049094  d :     0.262870
      dxz     :     0.065672
      dyz     :     0.075846
      dx2y2   :     0.037212
      dxy     :     0.035046
  1 H s       :     0.545007  s :     0.545007
  2 O s       :     3.818722  s :     3.818722
      pz      :     1.676360  p :     4.973289
      px      :     1.811874
      py      :     1.485055
      dz2     :     0.004949  d :     0.015054
      dxz     :     0.001437
      dyz     :     0.001075
      dx2y2   :     0.004966
      dxy     :     0.002628
  3 B s       :     3.139492  s :     3.139492
      pz      :     0.861082  p :     2.280804
      px      :     0.607329
      py      :     0.812393
      dz2     :     0.002507  d :     0.020311
      dxz     :     0.005545
      dyz     :     0.006530
      dx2y2   :     0.003580
      dxy     :     0.002149
  4 H s       :     0.890956  s :     0.890956
  5 B s       :     3.169214  s :     3.169214
      pz      :     0.668930  p :     2.097374
      px      :     0.765593
      py      :     0.662851
      dz2     :     0.001725  d :     0.022973
      dxz     :     0.005998
      dyz     :     0.005864
      dx2y2   :     0.007265
      dxy     :     0.002122
  6 H s       :     0.952370  s :     0.952370
  7 Sis       :     5.678880  s :     5.678880
      pz      :     2.657241  p :     8.251332
      px      :     2.811725
      py      :     2.782366
      dz2     :     0.028577  d :     0.107381
      dxz     :     0.021566
      dyz     :     0.023715
      dx2y2   :     0.019738
      dxy     :     0.013785
  8 Mgs       :     4.743995  s :     4.743995
      pz      :     2.446837  p :     6.913295
      px      :     2.211499
      py      :     2.254958
      dz2     :     0.128342  d :     0.393215
      dxz     :     0.050415
      dyz     :     0.091423
      dx2y2   :     0.093114
      dxy     :     0.029921
  9 H s       :     0.978062  s :     0.978062
 10 B s       :     3.247140  s :     3.247140
      pz      :     0.864320  p :     2.186470
      px      :     0.552186
      py      :     0.769964
      dz2     :     0.002785  d :     0.013460
      dxz     :     0.002590
      dyz     :     0.001776
      dx2y2   :     0.003315
      dxy     :     0.002993
 11 Mgs       :     5.018179  s :     5.018179
      pz      :     2.215853  p :     6.731137
      px      :     2.278875
      py      :     2.236409
      dz2     :     0.034850  d :     0.229535
      dxz     :     0.049285
      dyz     :     0.041033
      dx2y2   :     0.055072
      dxy     :     0.049294
 12 H s       :     1.211499  s :     1.211499
 13 H s       :     0.963079  s :     0.963079
 14 Als       :     5.692133  s :     5.692133
      pz      :     2.365753  p :     6.881200
      px      :     2.257039
      py      :     2.258408
      dz2     :     0.022715  d :     0.077952
      dxz     :     0.014310
      dyz     :     0.015324
      dx2y2   :     0.014879
      dxy     :     0.010724
 15 Lis       :     2.030592  s :     2.030592
      pz      :    -0.010059  p :     0.163736
      px      :     0.118918
      py      :     0.054877

SPIN
  0 Sis       :    -0.007035  s :    -0.007035
      pz      :    -0.009320  p :    -0.019458
      px      :    -0.019467
      py      :     0.009330
      dz2     :     0.000755  d :     0.003312
      dxz     :     0.000421
      dyz     :     0.000737
      dx2y2   :     0.000279
      dxy     :     0.001119
  1 H s       :    -0.000175  s :    -0.000175
  2 O s       :    -0.000091  s :    -0.000091
      pz      :     0.000585  p :    -0.000428
      px      :    -0.000963
      py      :    -0.000051
      dz2     :     0.000010  d :    -0.000005
      dxz     :    -0.000004
      dyz     :    -0.000006
      dx2y2   :     0.000004
      dxy     :    -0.000010
  3 B s       :     0.005439  s :     0.005439
      pz      :    -0.007564  p :    -0.006417
      px      :    -0.001731
      py      :     0.002878
      dz2     :    -0.000012  d :     0.001011
      dxz     :     0.000444
      dyz     :     0.000214
      dx2y2   :     0.000051
      dxy     :     0.000313
  4 H s       :    -0.000237  s :    -0.000237
  5 B s       :     0.002328  s :     0.002328
      pz      :    -0.006620  p :    -0.012712
      px      :    -0.005764
      py      :    -0.000328
      dz2     :    -0.000003  d :     0.000426
      dxz     :    -0.000016
      dyz     :     0.000046
      dx2y2   :     0.000158
      dxy     :     0.000242
  6 H s       :     0.038216  s :     0.038216
  7 Sis       :     0.007968  s :     0.007968
      pz      :     0.020013  p :     0.103521
      px      :     0.085437
      py      :    -0.001929
      dz2     :    -0.000500  d :     0.003547
      dxz     :     0.000805
      dyz     :     0.001373
      dx2y2   :     0.001682
      dxy     :     0.000187
  8 Mgs       :     0.007512  s :     0.007512
      pz      :     0.005747  p :     0.015838
      px      :     0.000877
      py      :     0.009214
      dz2     :     0.005649  d :     0.008707
      dxz     :     0.000455
      dyz     :     0.001527
      dx2y2   :     0.000601
      dxy     :     0.000474
  9 H s       :     0.001764  s :     0.001764
 10 B s       :    -0.000201  s :    -0.000201
      pz      :    -0.002335  p :     0.019114
      px      :     0.012824
      py      :     0.008625
      dz2     :     0.000051  d :     0.000213
      dxz     :    -0.000011
      dyz     :    -0.000004
      dx2y2   :    -0.000047
      dxy     :     0.000224
 11 Mgs       :     0.534392  s :     0.534392
      pz      :     0.021666  p :     0.197845
      px      :     0.123430
      py      :     0.052750
      dz2     :     0.001371  d :    -0.000472
      dxz     :     0.002314
      dyz     :    -0.003604
      dx2y2   :    -0.002864
      dxy     :     0.002312
 12 H s       :    -0.000122  s :    -0.000122
 13 H s       :     0.000424  s :     0.000424
 14 Als       :     0.013384  s :     0.013384
      pz      :     0.001938  p :     0.073583
      px      :     0.018943
      py      :     0.052702
      dz2     :     0.000347  d :     0.007187
      dxz     :     0.000348
      dyz     :    -0.000299
      dx2y2   :     0.006836
      dxy     :    -0.000044
 15 Lis       :     0.001512  s :     0.001512
      pz      :     0.000507  p :     0.000109
      px      :     0.000021
      py      :    -0.000419


                     *******************************
                     * LOEWDIN POPULATION ANALYSIS *
                     *******************************

-------------------------------------------
LOEWDIN ATOMIC CHARGES AND SPIN POPULATIONS
-------------------------------------------
   0 Si:    0.423562   -0.000198
   1 H :    0.343363   -0.000035
   2 O :   -0.440609   -0.000983
   3 B :   -0.414094    0.014306
   4 H :    0.048392    0.000736
   5 B :   -0.199572    0.007724
   6 H :    0.129659    0.025625
   7 Si:    0.406736    0.098456
   8 Mg:   -0.411064    0.034856
   9 H :    0.116866    0.005150
  10 B :   -0.263387    0.023925
  11 Mg:   -0.346539    0.662439
  12 H :   -0.017590   -0.000036
  13 H :    0.116170    0.000662
  14 Al:    0.225115    0.126632
  15 Li:    0.282993    0.000741

----------------------------------------------------
LOEWDIN REDUCED ORBITAL CHARGES AND SPIN POPULATIONS
----------------------------------------------------
CHARGE
  0 Sis       :     4.914130  s :     4.914130
      pz      :     2.707644  p :     8.227039
      px      :     2.756382
      py      :     2.763013
      dz2     :     0.092794  d :     0.435269
      dxz     :     0.104084
      dyz     :     0.125173
      dx2y2   :     0.059494
      dxy     :     0.053723
  1 H s       :     0.656637  s :     0.656637
  2 O s       :     3.508427  s :     3.508427
      pz      :     1.671737  p :     4.908153
      px      :     1.780084
      py      :     1.456332
      dz2     :     0.008342  d :     0.024029
      dxz     :     0.002287
      dyz     :     0.002573
      dx2y2   :     0.006670
      dxy     :     0.004157
  3 B s       :     2.760051  s :     2.760051
      pz      :     0.919848  p :     2.616603
      px      :     0.784208
      py      :     0.912547
      dz2     :     0.004054  d :     0.037440
      dxz     :     0.010319
      dyz     :     0.011889
      dx2y2   :     0.007296
      dxy     :     0.003881
  4 H s       :     0.951608  s :     0.951608
  5 B s       :     2.674800  s :     2.674800
      pz      :     0.753545  p :     2.481450
      px      :     0.897481
      py      :     0.830424
      dz2     :     0.003730  d :     0.043322
      dxz     :     0.011027
      dyz     :     0.009707
      dx2y2   :     0.013700
      dxy     :     0.005158
  6 H s       :     0.870341  s :     0.870341
  7 Sis       :     5.090485  s :     5.090485
      pz      :     2.768144  p :     8.355903
      px      :     2.768640
      py      :     2.819120
      dz2     :     0.036957  d :     0.146875
      dxz     :     0.029732
      dyz     :     0.032300
      dx2y2   :     0.029344
      dxy     :     0.018543
  8 Mgs       :     4.462562  s :     4.462562
      pz      :     2.522145  p :     7.110713
      px      :     2.256573
      py      :     2.331994
      dz2     :     0.261467  d :     0.837790
      dxz     :     0.104425
      dyz     :     0.179473
      dx2y2   :     0.189425
      dxy     :     0.103000
  9 H s       :     0.883134  s :     0.883134
 10 B s       :     2.701708  s :     2.701708
      pz      :     0.814596  p :     2.534540
      px      :     0.765261
      py      :     0.954682
      dz2     :     0.005570  d :     0.027139
      dxz     :     0.004322
      dyz     :     0.003466
      dx2y2   :     0.006816
      dxy     :     0.006965
 11 Mgs       :     4.724432  s :     4.724432
      pz      :     2.307473  p :     7.017666
      px      :     2.367386
      py      :     2.342808
      dz2     :     0.080578  d :     0.604440
      dxz     :     0.129021
      dyz     :     0.135708
      dx2y2   :     0.115602
      dxy     :     0.143532
 12 H s       :     1.017590  s :     1.017590
 13 H s       :     0.883830  s :     0.883830
 14 Als       :     5.347260  s :     5.347260
      pz      :     2.490853  p :     7.298140
      px      :     2.418198
      py      :     2.389089
      dz2     :     0.036277  d :     0.129485
      dxz     :     0.022766
      dyz     :     0.027911
      dx2y2   :     0.026666
      dxy     :     0.015865
 15 Lis       :     2.185460  s :     2.185460
      pz      :     0.130043  p :     0.531547
      px      :     0.281464
      py      :     0.120040

SPIN
  0 Sis       :    -0.000258  s :    -0.000258
      pz      :    -0.003788  p :    -0.005763
      px      :    -0.013282
      py      :     0.011308
      dz2     :     0.001207  d :     0.005822
      dxz     :     0.000792
      dyz     :     0.001755
      dx2y2   :     0.000406
      dxy     :     0.001662
  1 H s       :    -0.000035  s :    -0.000035
  2 O s       :    -0.000153  s :    -0.000153
      pz      :     0.000487  p :    -0.000825
      px      :    -0.001274
      py      :    -0.000038
      dz2     :     0.000030  d :    -0.000004
      dxz     :    -0.000011
      dyz     :    -0.000012
      dx2y2   :     0.000004
      dxy     :    -0.000015
  3 B s       :     0.007298  s :     0.007298
      pz      :    -0.002209  p :     0.004977
      px      :     0.003375
      py      :     0.003811
      dz2     :    -0.000014  d :     0.002032
      dxz     :     0.000840
      dyz     :     0.000443
      dx2y2   :     0.000093
      dxy     :     0.000670
  4 H s       :     0.000736  s :     0.000736
  5 B s       :     0.006513  s :     0.006513
      pz      :    -0.001976  p :     0.000383
      px      :     0.000348
      py      :     0.002010
      dz2     :    -0.000010  d :     0.000828
      dxz     :    -0.000014
      dyz     :     0.000044
      dx2y2   :     0.000268
      dxy     :     0.000541
  6 H s       :     0.025625  s :     0.025625
  7 Sis       :     0.004481  s :     0.004481
      pz      :     0.023828  p :     0.088568
      px      :     0.065687
      py      :    -0.000948
      dz2     :    -0.000353  d :     0.005406
      dxz     :     0.000903
      dyz     :     0.001888
      dx2y2   :     0.002304
      dxy     :     0.000665
  8 Mgs       :     0.006689  s :     0.006689
      pz      :     0.005446  p :     0.014793
      px      :     0.001159
      py      :     0.008188
      dz2     :     0.006221  d :     0.013373
      dxz     :     0.000370
      dyz     :     0.000738
      dx2y2   :     0.002108
      dxy     :     0.003937
  9 H s       :     0.005150  s :     0.005150
 10 B s       :     0.002681  s :     0.002681
      pz      :     0.000395  p :     0.020756
      px      :     0.009433
      py      :     0.010928
      dz2     :     0.000112  d :     0.000488
      dxz     :     0.000017
      dyz     :     0.000008
      dx2y2   :    -0.000094
      dxy     :     0.000444
 11 Mgs       :     0.402239  s :     0.402239
      pz      :     0.024031  p :     0.258265
      px      :     0.136281
      py      :     0.097954
      dz2     :     0.000218  d :     0.001935
      dxz     :     0.002835
      dyz     :    -0.001091
      dx2y2   :     0.000648
      dxy     :    -0.000674
 12 H s       :    -0.000036  s :    -0.000036
 13 H s       :     0.000662  s :     0.000662
 14 Als       :     0.007252  s :     0.007252
      pz      :     0.008356  p :     0.106840
      px      :     0.018538
      py      :     0.079946
      dz2     :     0.000671  d :     0.012540
      dxz     :     0.000476
      dyz     :    -0.000472
      dx2y2   :     0.011885
      dxy     :    -0.000020
 15 Lis       :     0.001112  s :     0.001112
      pz      :    -0.000061  p :    -0.000370
      px      :     0.000072
      py      :    -0.000381


                      *****************************
                      * MAYER POPULATION ANALYSIS *
                      *****************************

  NA   - Mulliken gross atomic population
  ZA   - Total nuclear charge
  QA   - Mulliken gross atomic charge
  VA   - Mayer's total valence
  BVA  - Mayer's bonded valence
  FA   - Mayer's free valence

  ATOM       NA         ZA         QA         VA         BVA        FA
  0 Si    13.5622    14.0000     0.4378     3.4350     3.4335     0.0015
  1 H      0.5450     1.0000     0.4550     0.7739     0.7739     0.0000
  2 O      8.8071     8.0000    -0.8071     1.8320     1.8320     0.0000
  3 B      5.4406     5.0000    -0.4406     3.6234     3.6221     0.0013
  4 H      0.8910     1.0000     0.1090     0.9794     0.9794     0.0000
  5 B      5.2896     5.0000    -0.2896     3.6183     3.6179     0.0004
  6 H      0.9524     1.0000     0.0476     0.9635     0.9620     0.0014
  7 Si    14.0376    14.0000    -0.0376     2.9586     2.9455     0.0132
  8 Mg    12.0505    12.0000    -0.0505     3.0794     3.0781     0.0013
  9 H      0.9781     1.0000     0.0219     0.9665     0.9665     0.0000
 10 B      5.4471     5.0000    -0.4471     3.3177     3.3171     0.0006
 11 Mg    11.9789    12.0000     0.0211     2.6456     2.1061     0.5396
 12 H      1.2115     1.0000    -0.2115     0.9503     0.9503     0.0000
 13 H      0.9631     1.0000     0.0369     0.9830     0.9830     0.0000
 14 Al    12.6513    13.0000     0.3487     1.8867     1.8653     0.0214
 15 Li     2.1943     3.0000     0.8057     0.3907     0.3907     0.0000

  Mayer bond orders larger than 0.100000
B(  0-Si,  2-O ) :   0.7435 B(  0-Si,  3-B ) :   0.6704 B(  0-Si,  7-Si) :   0.2023 
B(  0-Si,  8-Mg) :   0.1583 B(  0-Si, 10-B ) :   1.0306 B(  0-Si, 14-Al) :   0.5796 
B(  1-H ,  2-O ) :   0.7499 B(  2-O , 15-Li) :   0.2644 B(  3-B ,  4-H ) :   0.9600 
B(  3-B ,  6-H ) :   0.6904 B(  3-B ,  7-Si) :   0.7191 B(  3-B ,  8-Mg) :   0.4024 
B(  5-B ,  7-Si) :   0.3196 B(  5-B ,  8-Mg) :   0.3585 B(  5-B ,  9-H ) :   0.7782 
B(  5-B , 10-B ) :   0.8654 B(  5-B , 11-Mg) :   0.3756 B(  5-B , 13-H ) :   0.8042 
B(  6-H ,  8-Mg) :   0.2431 B(  7-Si,  8-Mg) :   0.3146 B(  7-Si, 10-B ) :   0.4966 
B(  7-Si, 11-Mg) :   0.5565 B(  7-Si, 14-Al) :   0.3485 B(  8-Mg, 10-B ) :   0.3833 
B(  8-Mg, 12-H ) :   0.8218 B(  8-Mg, 13-H ) :   0.1770 B(  9-H , 11-Mg) :   0.2002 
B( 10-B , 11-Mg) :   0.3352 B( 10-B , 14-Al) :   0.2644 B( 11-Mg, 14-Al) :   0.4269 
B( 12-H , 15-Li) :   0.1294 

-------
TIMINGS
-------

Total SCF time: 0 days 0 hours 9 min 2 sec 

Total time                  ....     542.900 sec
Sum of individual times     ....     524.064 sec  ( 96.5%)

Fock matrix formation       ....     461.717 sec  ( 85.0%)
  Split-RI-J                ....      40.632 sec  (  8.8% of F)
  Chain of spheres X        ....     193.627 sec  ( 41.9% of F)
  XC integration            ....     117.645 sec  ( 25.5% of F)
    Basis function eval.    ....      17.043 sec  ( 14.5% of XC)
    Density eval.           ....      21.211 sec  ( 18.0% of XC)
    XC-Functional eval.     ....       6.764 sec  (  5.7% of XC)
    XC-Potential eval.      ....      16.366 sec  ( 13.9% of XC)
Diagonalization             ....      15.536 sec  (  2.9%)
Density matrix formation    ....       0.464 sec  (  0.1%)
Population analysis         ....       1.457 sec  (  0.3%)
Initial guess               ....       0.025 sec  (  0.0%)
Orbital Transformation      ....       0.000 sec  (  0.0%)
Orbital Orthonormalization  ....       0.000 sec  (  0.0%)
DIIS solution               ....      34.705 sec  (  6.4%)
Grid generation             ....      10.160 sec  (  1.9%)

Maximum memory used throughout the entire SCF-calculation: 60.7 MB


-------------------------------------------------------------------------------
                          DFT DISPERSION CORRECTION                            
                                                                               
                              DFTD3 V3.1  Rev 1                                
                          USING Becke-Johnson damping                          
-------------------------------------------------------------------------------
The PBEh-3c composite method is recognized
Using three-body term ABC
Active option DFTDOPT                   ...         4   

molecular C6(AA) [au] = 10184.861904 


            DFT-D V3
 parameters
 s6 scaling factor         :     1.0000 
 a1 scaling factor         :     0.4860 
 s8 scaling factor         :     0.0000 
 a2 scaling factor         :     4.5000 
 Damping factor alpha9(ATM):    16.0000 
 ad hoc parameters k1-k3   :    16.0000     1.3333    -4.0000 

 Edisp/kcal,au: -7.750428457175  -0.012351092614 
 E6   /kcal   :  -7.795049567 
 E8   /kcal   :  -0.000000000 
 E6(ABC)      :   0.044621110 
 % E8         :   0.000000000 
 % E6(ABC)    :  -0.575724425 

-------------------------   ----------------
Dispersion correction           -0.012351093
-------------------------   ----------------

------------------   -----------------
gCP correction             0.025607971
------------------   -----------------

-------------------------   --------------------
FINAL SINGLE POINT ENERGY     -1380.505081991652
-------------------------   --------------------


                            ***************************************
                            *     ORCA property calculations      *
                            ***************************************

                                    ---------------------
                                    Active property flags
                                    ---------------------
   (+) Dipole Moment


------------------------------------------------------------------------------
                       ORCA ELECTRIC PROPERTIES CALCULATION
------------------------------------------------------------------------------

Dipole Moment Calculation                       ... on
Quadrupole Moment Calculation                   ... off
Polarizability Calculation                      ... off
GBWName                                         ... pbeh-3c.gbw
Electron density                                ... pbeh-3c.scfp
The origin for moment calculation is the CENTER OF MASS  = ( 0.729091, -0.483766  0.957069)

-------------
DIPOLE MOMENT
-------------
                                X             Y             Z
Electronic contribution:      5.21288      -3.90600       1.27228
Nuclear contribution   :     -5.10275       3.94260      -3.12877
                        -----------------------------------------
Total Dipole Moment    :      0.11012       0.03661      -1.85649
                        -----------------------------------------
Magnitude (a.u.)       :      1.86012
Magnitude (Debye)      :      4.72804



--------------------
Rotational spectrum 
--------------------
 
Rotational constants in cm-1:     0.035312     0.026594     0.021901 
Rotational constants in MHz :  1058.615555   797.255861   656.572814 

 Dipole components along the rotational axes: 
x,y,z [a.u.] :    -1.313007    -0.447263    -1.239356 
x,y,z [Debye]:    -3.337398    -1.136852    -3.150192 

 

Timings for individual modules:

Sum of individual times         ...      548.221 sec (=   9.137 min)
GTO integral calculation        ...        3.918 sec (=   0.065 min)   0.7 %
SCF iterations                  ...      544.302 sec (=   9.072 min)  99.3 %
                             ****ORCA TERMINATED NORMALLY****
TOTAL RUN TIME: 0 days 0 hours 9 minutes 15 seconds 114 msec
