
                                 *****************
                                 * O   R   C   A *
                                 *****************

                                            #,                                       
                                            ###                                      
                                            ####                                     
                                            #####                                    
                                            ######                                   
                                           ########,                                 
                                     ,,################,,,,,                         
                               ,,#################################,,                 
                          ,,##########################################,,             
                       ,#########################################, ''#####,          
                    ,#############################################,,   '####,        
                  ,##################################################,,,,####,       
                ,###########''''           ''''###############################       
              ,#####''   ,,,,##########,,,,          '''####'''          '####       
            ,##' ,,,,###########################,,,                        '##       
           ' ,,###''''                  '''############,,,                           
         ,,##''                                '''############,,,,        ,,,,,,###''
      ,#''                                            '''#######################'''  
     '                                                          ''''####''''         
             ,#######,   #######,   ,#######,      ##                                
            ,#'     '#,  ##    ##  ,#'     '#,    #''#        ######   ,####,        
            ##       ##  ##   ,#'  ##            #'  '#       #        #'  '#        
            ##       ##  #######   ##           ,######,      #####,   #    #        
            '#,     ,#'  ##    ##  '#,     ,#' ,#      #,         ##   #,  ,#        
             '#######'   ##     ##  '#######'  #'      '#     #####' # '####'        



                  #######################################################
                  #                        -***-                        #
                  #          Department of theory and spectroscopy      #
                  #    Directorship and core code : Frank Neese         #
                  #        Max Planck Institute fuer Kohlenforschung    #
                  #                Kaiser Wilhelm Platz 1               #
                  #                 D-45470 Muelheim/Ruhr               #
                  #                      Germany                        #
                  #                                                     #
                  #                  All rights reserved                #
                  #                        -***-                        #
                  #######################################################


                         Program Version 5.0.3 -  RELEASE  -


 With contributions from (in alphabetic order):
   Daniel Aravena         : Magnetic Suceptibility
   Michael Atanasov       : Ab Initio Ligand Field Theory (pilot matlab implementation)
   Alexander A. Auer      : GIAO ZORA, VPT2 properties, NMR spectrum
   Ute Becker             : Parallelization
   Giovanni Bistoni       : ED, misc. LED, open-shell LED, HFLD
   Martin Brehm           : Molecular dynamics
   Dmytro Bykov           : SCF Hessian
   Vijay G. Chilkuri      : MRCI spin determinant printing, contributions to CSF-ICE
   Dipayan Datta          : RHF DLPNO-CCSD density
   Achintya Kumar Dutta   : EOM-CC, STEOM-CC
   Dmitry Ganyushin       : Spin-Orbit,Spin-Spin,Magnetic field MRCI
   Miquel Garcia          : C-PCM and meta-GGA Hessian, CC/C-PCM, Gaussian charge scheme
   Yang Guo               : DLPNO-NEVPT2, F12-NEVPT2, CIM, IAO-localization
   Andreas Hansen         : Spin unrestricted coupled pair/coupled cluster methods
   Benjamin Helmich-Paris : MC-RPA, TRAH-SCF, COSX integrals
   Lee Huntington         : MR-EOM, pCC
   Robert Izsak           : Overlap fitted RIJCOSX, COSX-SCS-MP3, EOM
   Marcus Kettner         : VPT2
   Christian Kollmar      : KDIIS, OOCD, Brueckner-CCSD(T), CCSD density, CASPT2, CASPT2-K
   Simone Kossmann        : Meta GGA functionals, TD-DFT gradient, OOMP2, MP2 Hessian
   Martin Krupicka        : Initial AUTO-CI
   Lucas Lang             : DCDCAS
   Marvin Lechner         : AUTO-CI (C++ implementation), FIC-MRCC
   Dagmar Lenk            : GEPOL surface, SMD
   Dimitrios Liakos       : Extrapolation schemes; Compound Job, initial MDCI parallelization
   Dimitrios Manganas     : Further ROCIS development; embedding schemes
   Dimitrios Pantazis     : SARC Basis sets
   Anastasios Papadopoulos: AUTO-CI, single reference methods and gradients
   Taras Petrenko         : DFT Hessian,TD-DFT gradient, ASA, ECA, R-Raman, ABS, FL, XAS/XES, NRVS
   Peter Pinski           : DLPNO-MP2, DLPNO-MP2 Gradient
   Christoph Reimann      : Effective Core Potentials
   Marius Retegan         : Local ZFS, SOC
   Christoph Riplinger    : Optimizer, TS searches, QM/MM, DLPNO-CCSD(T), (RO)-DLPNO pert. Triples
   Tobias Risthaus        : Range-separated hybrids, TD-DFT gradient, RPA, STAB
   Michael Roemelt        : Original ROCIS implementation
   Masaaki Saitow         : Open-shell DLPNO-CCSD energy and density
   Barbara Sandhoefer     : DKH picture change effects
   Avijit Sen             : IP-ROCIS
   Kantharuban Sivalingam : CASSCF convergence, NEVPT2, FIC-MRCI
   Bernardo de Souza      : ESD, SOC TD-DFT
   Georgi Stoychev        : AutoAux, RI-MP2 NMR, DLPNO-MP2 response
   Willem Van den Heuvel  : Paramagnetic NMR
   Boris Wezisla          : Elementary symmetry handling
   Frank Wennmohs         : Technical directorship


 We gratefully acknowledge several colleagues who have allowed us to
 interface, adapt or use parts of their codes:
   Stefan Grimme, W. Hujo, H. Kruse, P. Pracht,  : VdW corrections, initial TS optimization,
                  C. Bannwarth, S. Ehlert          DFT functionals, gCP, sTDA/sTD-DF
   Ed Valeev, F. Pavosevic, A. Kumar             : LibInt (2-el integral package), F12 methods
   Garnet Chan, S. Sharma, J. Yang, R. Olivares  : DMRG
   Ulf Ekstrom                                   : XCFun DFT Library
   Mihaly Kallay                                 : mrcc  (arbitrary order and MRCC methods)
   Jiri Pittner, Ondrej Demel                    : Mk-CCSD
   Frank Weinhold                                : gennbo (NPA and NBO analysis)
   Christopher J. Cramer and Donald G. Truhlar   : smd solvation model
   Lars Goerigk                                  : TD-DFT with DH, B97 family of functionals
   V. Asgeirsson, H. Jonsson                     : NEB implementation
   FAccTs GmbH                                   : IRC, NEB, NEB-TS, DLPNO-Multilevel, CI-OPT
                                                   MM, QMMM, 2- and 3-layer-ONIOM, Crystal-QMMM,
                                                   LR-CPCM, SF, NACMEs, symmetry and pop. for TD-DFT,
                                                   nearIR, NL-DFT gradient (VV10), updates on ESD,
                                                   ML-optimized integration grids
   S Lehtola, MJT Oliveira, MAL Marques          : LibXC Library
   Liviu Ungur et al                             : ANISO software


 Your calculation uses the libint2 library for the computation of 2-el integrals
 For citations please refer to: http://libint.valeyev.net

 Your ORCA version has been built with support for libXC version: 5.1.0
 For citations please refer to: https://tddft.org/programs/libxc/

 This ORCA versions uses:
   CBLAS   interface :  Fast vector & matrix operations
   LAPACKE interface :  Fast linear algebra routines
   SCALAPACK package :  Parallel linear algebra routines
   Shared memory     :  Shared parallel matrices
   BLAS/LAPACK       :  OpenBLAS 0.3.15  USE64BITINT DYNAMIC_ARCH NO_AFFINITY Haswell SINGLE_THREADED
        Core in use  :  Haswell
   Copyright (c) 2011-2014, The OpenBLAS Project




***************************************
The coordinates will be read from file: P5.xyz
***************************************


Your calculation utilizes the geometrical counterpoise correction gCP
Please cite in your paper:
H.Kruse, S. Grimme J.Chem.Phys., 136, (2012), 154101 
   

Your calculation utilizes the atom-pairwise dispersion correction
with the Becke-Johnson damping scheme (D3BJ)
Cite in your paper:
S.Grimme, S.Ehrlich, L.Goerigk, J Comput Chem, (2011), 32, 1456–1465 
S.Grimme, J.Antony, S.Ehrlich and H.Krieg, J.Chem.Phys., 132, (2010), 154104 
   

Your calculation employs the composite approach PBEh-3c.
Please cite in your paper:
S. Grimme, J. G. Brandenburg, C. Bannwarth, A. Hansen J.Chem.Phys., 143, (2015), 054107 
   

================================================================================

----- Orbital basis set information -----
Your calculation utilizes the basis: def2-mSVP

----- AuxJ basis set information -----
Your calculation utilizes the auxiliary basis: def2/J
   F. Weigend, Phys. Chem. Chem. Phys. 8, 1057 (2006).

================================================================================
                                        WARNINGS
                       Please study these warnings very carefully!
================================================================================


WARNING: your system is open-shell and RHF/RKS was chosen
  ===> : WILL SWITCH to UHF/UKS


INFO   : the flag for use of the SHARK integral package has been found!

================================================================================
                                       INPUT FILE
================================================================================
NAME = pbeh-3c.inp
|  1> ! PBEh-3c def2/J TightSCF DefGrid3
|  2> 
|  3> %maxcore 60000
|  4> 
|  5> %pal
|  6> nprocs 4
|  7> end
|  8> 
|  9> *xyzfile 0 2 P5.xyz
| 10> 
| 11>                          ****END OF INPUT****
================================================================================

                       ****************************
                       * Single Point Calculation *
                       ****************************

---------------------------------
CARTESIAN COORDINATES (ANGSTROEM)
---------------------------------
  C      0.053534   -0.501035    0.000000
  C      0.028986    0.955979    0.000000
  Cl    -1.686858   -1.139469    0.000000
  Cl     0.877330   -1.136480   -1.478200
  Cl     0.877330   -1.136480    1.478200
  H     -0.075161    1.478742   -0.939036
  H     -0.075161    1.478742    0.939036

----------------------------
CARTESIAN COORDINATES (A.U.)
----------------------------
  NO LB      ZA    FRAG     MASS         X           Y           Z
   0 C     6.0000    0    12.011    0.101164   -0.946820    0.000000
   1 C     6.0000    0    12.011    0.054776    1.806539    0.000000
   2 Cl   17.0000    0    35.453   -3.187700   -2.153284    0.000000
   3 Cl   17.0000    0    35.453    1.657913   -2.147636   -2.793393
   4 Cl   17.0000    0    35.453    1.657913   -2.147636    2.793393
   5 H     1.0000    0     1.008   -0.142033    2.794418   -1.774520
   6 H     1.0000    0     1.008   -0.142033    2.794418    1.774520

--------------------------------
INTERNAL COORDINATES (ANGSTROEM)
--------------------------------
 C      0   0   0     0.000000000000     0.00000000     0.00000000
 C      1   0   0     1.457221672735     0.00000000     0.00000000
 Cl     1   2   0     1.853796599683   109.17947755     0.00000000
 Cl     1   2   3     1.807623852082   111.04879412   118.80975538
 Cl     1   2   3     1.807623852082   111.04879412   241.19024462
 H      2   1   3     1.079775538218   119.05810490   275.79651434
 H      2   1   3     1.079775538218   119.05810490    84.20348566

---------------------------
INTERNAL COORDINATES (A.U.)
---------------------------
 C      0   0   0     0.000000000000     0.00000000     0.00000000
 C      1   0   0     2.753749877883     0.00000000     0.00000000
 Cl     1   2   0     3.503167881395   109.17947755     0.00000000
 Cl     1   2   3     3.415914033579   111.04879412   118.80975538
 Cl     1   2   3     3.415914033579   111.04879412   241.19024462
 H      2   1   3     2.040480053339   119.05810490   275.79651434
 H      2   1   3     2.040480053339   119.05810490    84.20348566

---------------------
BASIS SET INFORMATION
---------------------
There are 3 groups of distinct atoms

 Group   1 Type C   : 8s4p1d contracted to 4s2p1d pattern {5111/31/1}
 Group   2 Type Cl  : 10s7p1d contracted to 4s3p1d pattern {5311/511/1}
 Group   3 Type H   : 4s contracted to 2s pattern {31}

Atom   0C    basis set group =>   1
Atom   1C    basis set group =>   1
Atom   2Cl   basis set group =>   2
Atom   3Cl   basis set group =>   2
Atom   4Cl   basis set group =>   2
Atom   5H    basis set group =>   3
Atom   6H    basis set group =>   3
---------------------------------
AUXILIARY/J BASIS SET INFORMATION
---------------------------------
There are 3 groups of distinct atoms

 Group   1 Type C   : 12s5p4d2f1g contracted to 6s4p3d1f1g pattern {711111/2111/211/2/1}
 Group   2 Type Cl  : 14s5p5d2f1g contracted to 8s4p3d1f1g pattern {71111111/2111/311/2/1}
 Group   3 Type H   : 5s2p1d contracted to 3s1p1d pattern {311/2/1}

Atom   0C    basis set group =>   1
Atom   1C    basis set group =>   1
Atom   2Cl   basis set group =>   2
Atom   3Cl   basis set group =>   2
Atom   4Cl   basis set group =>   2
Atom   5H    basis set group =>   3
Atom   6H    basis set group =>   3


           ************************************************************
           *        Program running with 4 parallel MPI-processes     *
           *              working on a common directory               *
           ************************************************************
------------------------------------------------------------------------------
                           ORCA GTO INTEGRAL CALCULATION
                           -- RI-GTO INTEGRALS CHOSEN --
------------------------------------------------------------------------------
------------------------------------------------------------------------------
                   ___                                                        
                  /   \      - P O W E R E D   B Y -                         
                 /     \                                                     
                 |  |  |   _    _      __       _____    __    __             
                 |  |  |  | |  | |    /  \     |  _  \  |  |  /  |          
                  \  \/   | |  | |   /    \    | | | |  |  | /  /          
                 / \  \   | |__| |  /  /\  \   | |_| |  |  |/  /          
                |  |  |   |  __  | /  /__\  \  |    /   |      \           
                |  |  |   | |  | | |   __   |  |    \   |  |\   \          
                \     /   | |  | | |  |  |  |  | |\  \  |  | \   \       
                 \___/    |_|  |_| |__|  |__|  |_| \__\ |__|  \__/        
                                                                              
                      - O R C A' S   B I G   F R I E N D -                    
                                      &                                       
                       - I N T E G R A L  F E E D E R -                       
                                                                              
 v1 FN, 2020, v2 2021                                                         
------------------------------------------------------------------------------


Reading SHARK input file pbeh-3c.SHARKINP.tmp ... ok
----------------------
SHARK INTEGRAL PACKAGE
----------------------

Number of atoms                             ...      7
Number of basis functions                   ...     88
Number of shells                            ...     42
Maximum angular momentum                    ...      2
Integral batch strategy                     ... SHARK/LIBINT Hybrid
RI-J (if used) integral strategy            ... SPLIT-RIJ (Revised 2003 algorithm where possible)
Printlevel                                  ...      1
Contraction scheme used                     ... SEGMENTED contraction
Coulomb Range Separation                    ... NOT USED
Exchange Range Separation                   ... NOT USED
Finite Nucleus Model                        ... NOT USED
Auxiliary Coulomb fitting basis             ... AVAILABLE
   # of basis functions in Aux-J            ...    273
   # of shells in Aux-J                     ...     91
   Maximum angular momentum in Aux-J        ...      4
Auxiliary J/K fitting basis                 ... NOT available
Auxiliary Correlation fitting basis         ... NOT available
Auxiliary 'external' fitting basis          ... NOT available
Integral threshold                          ...     2.500000e-11
Primitive cut-off                           ...     2.500000e-12
Primitive pair pre-selection threshold      ...     2.500000e-12

Calculating pre-screening integrals         ... done (  0.1 sec) Dimension = 42
Organizing shell pair data                  ... done (  0.4 sec)
Shell pair information
Total number of shell pairs                 ...       903
Shell pairs after pre-screening             ...       848
Total number of primitive shell pairs       ...      4017
Primitive shell pairs kept                  ...      2713
          la=0 lb=0:    267 shell pairs
          la=1 lb=0:    293 shell pairs
          la=1 lb=1:     88 shell pairs
          la=2 lb=0:    120 shell pairs
          la=2 lb=1:     65 shell pairs
          la=2 lb=2:     15 shell pairs

Calculating one electron integrals          ... done (  0.0 sec)
Calculating RI/J V-Matrix + Cholesky decomp.... done (  0.5 sec)
Calculating Nuclear repulsion               ... done (  0.1 sec) ENN=    342.790734864394 Eh

SHARK setup successfully completed in   2.4 seconds

Maximum memory used throughout the entire GTOINT-calculation: 9.6 MB


           ************************************************************
           *        Program running with 4 parallel MPI-processes     *
           *              working on a common directory               *
           ************************************************************
-------------------------------------------------------------------------------
                                 ORCA SCF
-------------------------------------------------------------------------------

------------
SCF SETTINGS
------------
Hamiltonian:
 Density Functional     Method          .... DFT(GTOs)
 Exchange Functional    Exchange        .... PBE
   PBE kappa parameter   XKappa         ....  1.024500
   PBE mue parameter    XMuePBE         ....  0.123457
 Correlation Functional Correlation     .... PBE
   PBE beta parameter  CBetaPBE         ....  0.030000
 LDA part of GGA corr.  LDAOpt          .... PW91-LDA
 Gradients option       PostSCFGGA      .... off
 Hybrid DFT is turned on
   Fraction HF Exchange ScalHFX         ....  0.420000
   Scaling of DF-GGA-X  ScalDFX         ....  0.580000
   Scaling of DF-GGA-C  ScalDFC         ....  1.000000
   Scaling of DF-LDA-C  ScalLDAC        ....  1.000000
   Perturbative correction              ....  0.000000
   Density functional embedding theory  .... OFF
 RI-approximation to the Coulomb term is turned on
   Number of AuxJ basis functions       .... 273
   RIJ-ON(X) (HFX calculated with O(N)) .... on
   Number of AuxJ basis functions       .... 273
   RIJ-COSX (HFX calculated with COS-X)).... on


General Settings:
 Integral files         IntName         .... pbeh-3c
 Hartree-Fock type      HFTyp           .... UHF
 Total Charge           Charge          ....    0
 Multiplicity           Mult            ....    2
 Number of Electrons    NEL             ....   65
 Basis Dimension        Dim             ....   88
 Nuclear Repulsion      ENuc            ....    342.7907348644 Eh

Convergence Acceleration:
 DIIS                   CNVDIIS         .... on
   Start iteration      DIISMaxIt       ....    12
   Startup error        DIISStart       ....  0.200000
   # of expansion vecs  DIISMaxEq       ....     5
   Bias factor          DIISBfac        ....   1.050
   Max. coefficient     DIISMaxC        ....  10.000
 Trust-Rad. Augm. Hess. CNVTRAH         .... auto
   Auto Start mean grad. ratio tolernc. ....  1.125000
   Auto Start start iteration           ....    20
   Auto Start num. interpolation iter.  ....    10
   Max. Number of Micro iterations      ....    16
   Max. Number of Macro iterations      .... Maxiter - #DIIS iter
   Number of Davidson start vectors     ....     2
   Converg. threshold I  (grad. norm)   ....   1.000e-05
   Converg. threshold II (energy diff.) ....   1.000e-08
   Grad. Scal. Fac. for Micro threshold ....   0.100
   Minimum threshold for Micro iter.    ....   0.010
   NR start threshold (gradient norm)   ....   0.001
   Initial trust radius                 ....   0.400
   Minimum AH scaling param. (alpha)    ....   1.000
   Maximum AH scaling param. (alpha)    .... 1000.000
   Orbital update algorithm             .... Taylor
   White noise on init. David. guess    .... on
   Maximum white noise                  ....   0.010
   Quad. conv. algorithm                .... NR
   COSX micro iterations for RIJONX calc.... off
 SOSCF                  CNVSOSCF        .... off
 Level Shifting         CNVShift        .... on
   Level shift para.    LevelShift      ....    0.2500
   Turn off err/grad.   ShiftErr        ....    0.0010
 Zerner damping         CNVZerner       .... off
 Static damping         CNVDamp         .... on
   Fraction old density DampFac         ....    0.7000
   Max. Damping (<1)    DampMax         ....    0.9800
   Min. Damping (>=0)   DampMin         ....    0.0000
   Turn off err/grad.   DampErr         ....    0.1000
 Fernandez-Rico         CNVRico         .... off

SCF Procedure:
 Maximum # iterations   MaxIter         ....   125
 SCF integral mode      SCFMode         .... Direct
   Integral package                     .... SHARK and LIBINT hybrid scheme
 Reset frequency        DirectResetFreq ....    20
 Integral Threshold     Thresh          ....  2.500e-11 Eh
 Primitive CutOff       TCut            ....  2.500e-12 Eh

Convergence Tolerance:
 Convergence Check Mode ConvCheckMode   .... Total+1el-Energy
 Convergence forced     ConvForced      .... 0
 Energy Change          TolE            ....  1.000e-08 Eh
 1-El. energy change                    ....  1.000e-05 Eh
 DIIS Error             TolErr          ....  5.000e-07


Diagonalization of the overlap matrix:
Smallest eigenvalue                        ... 8.746e-03
Time for diagonalization                   ...    0.018 sec
Threshold for overlap eigenvalues          ... 1.000e-08
Number of eigenvalues below threshold      ... 0
Time for construction of square roots      ...    0.340 sec
Total time needed                          ...    0.406 sec

--------------------------------
INITIAL GUESS: MINIMAL BASIS EHT
--------------------------------
The minimal basis has 39 functions
EHT matrix was diagonalized
Basis set overlap was calculated now projecting the orbitals
Using GuessMode=FMatrix for the initial guess
C*T matrix was formed
Effective Fockian was calculated
Effective Fockian was diagonalized
Initial density was built
                      ------------------
                      INITIAL GUESS DONE
                      ------------------
-------------------
DFT GRID GENERATION
-------------------

General Integration Accuracy     IntAcc      ... 4.959
Radial Grid Type                 RadialGrid  ... OptM3 with GC (2021)
Angular Grid (max. ang.)         AngularGrid ... 6 (Lebedev-590)
Angular grid pruning method      GridPruning ... 4 (adaptive)
Weight generation scheme         WeightScheme... Becke
Basis function cutoff            BFCut       ... 1.0000e-11
Integration weight cutoff        WCut        ... 1.0000e-14
Angular grids for H and He will be reduced by one unit
Partially contracted basis set               ... off
Rotationally invariant grid construction     ... off

Total number of grid points                  ...    95268
Total number of batches                      ...     1491
Average number of points per batch           ...       63
Average number of grid points per atom       ...    13610
Time for grid setup =    2.299 sec

--------------------
COSX GRID GENERATION
--------------------

GRIDX 1
-------
General Integration Accuracy     IntAcc      ... 4.020
Radial Grid Type                 RadialGrid  ... OptM3 with GC (2021)
Angular Grid (max. ang.)         AngularGrid ... 2 (Lebedev-110)
Angular grid pruning method      GridPruning ... 4 (adaptive)
Weight generation scheme         WeightScheme... Becke
Basis function cutoff            BFCut       ... 1.0000e-11
Integration weight cutoff        WCut        ... 1.0000e-14
Angular grids for H and He will be reduced by one unit
Partially contracted basis set               ... on
Rotationally invariant grid construction     ... off

Total number of grid points                  ...    11175
Total number of batches                      ...      178
Average number of points per batch           ...       62
Average number of grid points per atom       ...     1596
UseSFitting                                  ... on

GRIDX 2
-------
General Integration Accuracy     IntAcc      ... 4.338
Radial Grid Type                 RadialGrid  ... OptM3 with GC (2021)
Angular Grid (max. ang.)         AngularGrid ... 3 (Lebedev-194)
Angular grid pruning method      GridPruning ... 4 (adaptive)
Weight generation scheme         WeightScheme... Becke
Basis function cutoff            BFCut       ... 1.0000e-11
Integration weight cutoff        WCut        ... 1.0000e-14
Angular grids for H and He will be reduced by one unit
Partially contracted basis set               ... on
Rotationally invariant grid construction     ... off

Total number of grid points                  ...    26504
Total number of batches                      ...      419
Average number of points per batch           ...       63
Average number of grid points per atom       ...     3786
UseSFitting                                  ... on

GRIDX 3
-------
General Integration Accuracy     IntAcc      ... 4.871
Radial Grid Type                 RadialGrid  ... OptM3 with GC (2021)
Angular Grid (max. ang.)         AngularGrid ... 4 (Lebedev-302)
Angular grid pruning method      GridPruning ... 4 (adaptive)
Weight generation scheme         WeightScheme... Becke
Basis function cutoff            BFCut       ... 1.0000e-11
Integration weight cutoff        WCut        ... 1.0000e-14
Angular grids for H and He will be reduced by one unit
Partially contracted basis set               ... on
Rotationally invariant grid construction     ... off

Total number of grid points                  ...    47828
Total number of batches                      ...      750
Average number of points per batch           ...       63
Average number of grid points per atom       ...     6833
UseSFitting                                  ... on

Time for X-Grid setup             =    4.687 sec

--------------
SCF ITERATIONS
--------------
ITER       Energy         Delta-E        Max-DP      RMS-DP      [F,P]     Damp
               ***  Starting incremental Fock matrix formation  ***
  0  -1455.4158146605   0.000000000000 0.06683035  0.00359397  0.1743181 0.7000
  1  -1455.7130329422  -0.297218281710 0.05531183  0.00243426  0.1211524 0.7000
                               ***Turning on DIIS***
  2  -1455.8793061062  -0.166273164003 0.15417945  0.00539470  0.0837905 0.0000
  3  -1456.2586054588  -0.379299352602 0.04005576  0.00199643  0.0289726 0.0000
  4  -1456.2693871671  -0.010781708335 0.01281034  0.00048424  0.0183068 0.0000
  5  -1456.2759187650  -0.006531597847 0.00600732  0.00018608  0.0040628 0.0000
  6  -1456.2763717594  -0.000452994446 0.00218356  0.00007396  0.0011505 0.0000
  7  -1456.2764175958  -0.000045836401 0.00159521  0.00004768  0.0005795 0.0000
               *** Restarting incremental Fock matrix formation ***
                                   *** Resetting DIIS ***
  8  -1456.2764334498  -0.000015854040 0.00035469  0.00001565  0.0002061 0.0000
  9  -1456.2764340188  -0.000000568923 0.00020008  0.00000631  0.0001609 0.0000
 10  -1456.2764343545  -0.000000335742 0.00010276  0.00000350  0.0000525 0.0000
 11  -1456.2764343986  -0.000000044066 0.00003735  0.00000169  0.0000310 0.0000
 12  -1456.2764344182  -0.000000019583 0.00002251  0.00000074  0.0000089 0.0000
                 **** Energy Check signals convergence ****

               *****************************************************
               *                     SUCCESS                       *
               *           SCF CONVERGED AFTER  13 CYCLES          *
               *****************************************************

Old exchange energy                            =    -39.333845265 Eh
New exchange energy                            =    -39.333839287 Eh
Exchange energy change after final integration =      0.000005978 Eh
Total energy after final integration           =  -1456.276428442 Eh
Final COS-X integration done in                =     1.529 sec

----------------
TOTAL SCF ENERGY
----------------

Total Energy       :        -1456.27642844 Eh          -39627.29623 eV

Components:
Nuclear Repulsion  :          342.79073486 Eh            9327.81011 eV
Electronic Energy  :        -1799.06716331 Eh          -48955.10634 eV
One Electron Energy:        -2691.87496910 Eh          -73249.64185 eV
Two Electron Energy:          892.80780579 Eh           24294.53551 eV
Max COSX asymmetry :            0.00000034 Eh               0.00001 eV

Virial components:
Potential Energy   :        -2910.21388865 Eh          -79190.94590 eV
Kinetic Energy     :         1453.93746021 Eh           39563.64967 eV
Virial Ratio       :            2.00160871


DFT components:
N(Alpha)           :       32.999999777288 electrons
N(Beta)            :       32.000000021942 electrons
N(Total)           :       64.999999799230 electrons
E(X)               :      -52.475362110111 Eh       
E(C)               :       -3.254612605927 Eh       
E(XC)              :      -55.729974716037 Eh       
DFET-embed. en.    :        0.000000000000 Eh       

---------------
SCF CONVERGENCE
---------------

  Last Energy change         ...   -2.0170e-09  Tolerance :   1.0000e-08
  Last MAX-Density change    ...    0.0000e+00  Tolerance :   1.0000e-07
  Last RMS-Density change    ...    0.0000e+00  Tolerance :   5.0000e-09
  Last DIIS Error            ...    2.5096e-06  Tolerance :   5.0000e-07

             **** THE GBW FILE WAS UPDATED (pbeh-3c.gbw) ****
             **** DENSITY pbeh-3c.scfp WAS UPDATED ****
             **** ENERGY FILE WAS UPDATED (pbeh-3c.en.tmp) ****
----------------------
UHF SPIN CONTAMINATION
----------------------

Warning: in a DFT calculation there is little theoretical justification to 
         calculate <S**2> as in Hartree-Fock theory. We will do it anyways
         but you should keep in mind that the values have only limited relevance

Expectation value of <S**2>     :     0.756463
Ideal value S*(S+1) for S=0.5   :     0.750000
Deviation                       :     0.006463

             **** THE GBW FILE WAS UPDATED (pbeh-3c.gbw) ****
             **** DENSITY pbeh-3c.scfp WAS UPDATED ****
----------------
ORBITAL ENERGIES
----------------
                 SPIN UP ORBITALS
  NO   OCC          E(Eh)            E(eV) 
   0   1.0000    -102.324022     -2784.3782 
   1   1.0000    -102.323971     -2784.3768 
   2   1.0000    -102.316854     -2784.1831 
   3   1.0000     -10.645303      -289.6734 
   4   1.0000     -10.501276      -285.7542 
   5   1.0000      -9.791328      -266.4356 
   6   1.0000      -9.791299      -266.4348 
   7   1.0000      -9.783783      -266.2303 
   8   1.0000      -7.479579      -203.5297 
   9   1.0000      -7.479558      -203.5291 
  10   1.0000      -7.472804      -203.3453 
  11   1.0000      -7.470280      -203.2767 
  12   1.0000      -7.470274      -203.2765 
  13   1.0000      -7.470164      -203.2735 
  14   1.0000      -7.470152      -203.2732 
  15   1.0000      -7.462897      -203.0757 
  16   1.0000      -7.462439      -203.0633 
  17   1.0000      -1.041192       -28.3323 
  18   1.0000      -0.926833       -25.2204 
  19   1.0000      -0.919519       -25.0214 
  20   1.0000      -0.852300       -23.1923 
  21   1.0000      -0.672357       -18.2958 
  22   1.0000      -0.570810       -15.5325 
  23   1.0000      -0.544438       -14.8149 
  24   1.0000      -0.537868       -14.6361 
  25   1.0000      -0.485534       -13.2120 
  26   1.0000      -0.410944       -11.1824 
  27   1.0000      -0.403659       -10.9841 
  28   1.0000      -0.388667       -10.5762 
  29   1.0000      -0.373109       -10.1528 
  30   1.0000      -0.371503       -10.1091 
  31   1.0000      -0.357443        -9.7265 
  32   1.0000      -0.310411        -8.4467 
  33   0.0000      -0.009061        -0.2466 
  34   0.0000       0.036609         0.9962 
  35   0.0000       0.049404         1.3443 
  36   0.0000       0.153023         4.1640 
  37   0.0000       0.201697         5.4884 
  38   0.0000       0.230324         6.2674 
  39   0.0000       0.416017        11.3204 
  40   0.0000       0.439985        11.9726 
  41   0.0000       0.458538        12.4775 
  42   0.0000       0.470040        12.7904 
  43   0.0000       0.510626        13.8948 
  44   0.0000       0.521843        14.2001 
  45   0.0000       0.560757        15.2590 
  46   0.0000       0.605427        16.4745 
  47   0.0000       0.607705        16.5365 
  48   0.0000       0.746049        20.3010 
  49   0.0000       0.757039        20.6001 
  50   0.0000       0.780187        21.2300 
  51   0.0000       0.781355        21.2618 
  52   0.0000       0.785349        21.3704 
  53   0.0000       0.788571        21.4581 
  54   0.0000       0.789513        21.4837 
  55   0.0000       0.814512        22.1640 
  56   0.0000       0.817391        22.2423 
  57   0.0000       0.819451        22.2984 
  58   0.0000       0.819519        22.3003 
  59   0.0000       0.846039        23.0219 
  60   0.0000       0.858621        23.3643 
  61   0.0000       0.888289        24.1716 
  62   0.0000       0.898039        24.4369 
  63   0.0000       0.934285        25.4232 
  64   0.0000       0.955261        25.9940 
  65   0.0000       0.980023        26.6678 
  66   0.0000       1.013833        27.5878 
  67   0.0000       1.077965        29.3329 
  68   0.0000       1.097584        29.8668 
  69   0.0000       1.150308        31.3015 
  70   0.0000       1.213144        33.0113 
  71   0.0000       1.220459        33.2104 
  72   0.0000       1.270585        34.5744 
  73   0.0000       1.303628        35.4735 
  74   0.0000       1.327531        36.1240 
  75   0.0000       1.441133        39.2152 
  76   0.0000       1.610726        43.8301 
  77   0.0000       1.724483        46.9256 
  78   0.0000       1.756534        47.7977 
  79   0.0000       1.922690        52.3191 
  80   0.0000       2.057047        55.9751 
  81   0.0000       2.149351        58.4868 
  82   0.0000       2.183487        59.4157 
  83   0.0000       2.276613        61.9498 
  84   0.0000       2.456188        66.8363 
  85   0.0000       2.578249        70.1577 
  86   0.0000      13.443993       365.8296 
  87   0.0000      13.851121       376.9082 

                 SPIN DOWN ORBITALS
  NO   OCC          E(Eh)            E(eV) 
   0   1.0000    -102.323797     -2784.3721 
   1   1.0000    -102.323746     -2784.3707 
   2   1.0000    -102.315695     -2784.1516 
   3   1.0000     -10.647046      -289.7208 
   4   1.0000     -10.485472      -285.3242 
   5   1.0000      -9.791102      -266.4294 
   6   1.0000      -9.791074      -266.4287 
   7   1.0000      -9.782616      -266.1985 
   8   1.0000      -7.479047      -203.5152 
   9   1.0000      -7.479026      -203.5146 
  10   1.0000      -7.470087      -203.2714 
  11   1.0000      -7.470073      -203.2710 
  12   1.0000      -7.469862      -203.2653 
  13   1.0000      -7.469858      -203.2652 
  14   1.0000      -7.469736      -203.2619 
  15   1.0000      -7.461729      -203.0440 
  16   1.0000      -7.461378      -203.0344 
  17   1.0000      -1.035948       -28.1896 
  18   1.0000      -0.925378       -25.1808 
  19   1.0000      -0.913323       -24.8528 
  20   1.0000      -0.817584       -22.2476 
  21   1.0000      -0.660266       -17.9667 
  22   1.0000      -0.563871       -15.3437 
  23   1.0000      -0.537789       -14.6340 
  24   1.0000      -0.523646       -14.2491 
  25   1.0000      -0.480593       -13.0776 
  26   1.0000      -0.404280       -11.0010 
  27   1.0000      -0.400786       -10.9059 
  28   1.0000      -0.380382       -10.3507 
  29   1.0000      -0.370895       -10.0926 
  30   1.0000      -0.369192       -10.0462 
  31   1.0000      -0.355882        -9.6840 
  32   0.0000      -0.080255        -2.1838 
  33   0.0000      -0.006590        -0.1793 
  34   0.0000       0.036267         0.9869 
  35   0.0000       0.068805         1.8723 
  36   0.0000       0.171226         4.6593 
  37   0.0000       0.209683         5.7058 
  38   0.0000       0.237037         6.4501 
  39   0.0000       0.421886        11.4801 
  40   0.0000       0.444313        12.0904 
  41   0.0000       0.461915        12.5694 
  42   0.0000       0.502286        13.6679 
  43   0.0000       0.525693        14.3048 
  44   0.0000       0.537673        14.6308 
  45   0.0000       0.587528        15.9874 
  46   0.0000       0.608482        16.5576 
  47   0.0000       0.627840        17.0844 
  48   0.0000       0.756797        20.5935 
  49   0.0000       0.764510        20.8034 
  50   0.0000       0.783081        21.3087 
  51   0.0000       0.786767        21.4090 
  52   0.0000       0.786914        21.4130 
  53   0.0000       0.789788        21.4912 
  54   0.0000       0.791223        21.5303 
  55   0.0000       0.816000        22.2045 
  56   0.0000       0.820613        22.3300 
  57   0.0000       0.821350        22.3501 
  58   0.0000       0.822343        22.3771 
  59   0.0000       0.851098        23.1595 
  60   0.0000       0.861608        23.4456 
  61   0.0000       0.890378        24.2284 
  62   0.0000       0.899394        24.4737 
  63   0.0000       0.942043        25.6343 
  64   0.0000       0.961798        26.1718 
  65   0.0000       0.984933        26.8014 
  66   0.0000       1.032188        28.0873 
  67   0.0000       1.078654        29.3517 
  68   0.0000       1.100057        29.9341 
  69   0.0000       1.160579        31.5810 
  70   0.0000       1.225000        33.3339 
  71   0.0000       1.230532        33.4845 
  72   0.0000       1.273128        34.6436 
  73   0.0000       1.308242        35.5991 
  74   0.0000       1.329152        36.1681 
  75   0.0000       1.444727        39.3130 
  76   0.0000       1.632000        44.4090 
  77   0.0000       1.756153        47.7874 
  78   0.0000       1.785227        48.5785 
  79   0.0000       1.951539        53.1041 
  80   0.0000       2.077234        56.5244 
  81   0.0000       2.149432        58.4890 
  82   0.0000       2.218522        60.3690 
  83   0.0000       2.303255        62.6748 
  84   0.0000       2.464336        67.0580 
  85   0.0000       2.590643        70.4950 
  86   0.0000      13.456771       366.1774 
  87   0.0000      13.858978       377.1220 

                    ********************************
                    * MULLIKEN POPULATION ANALYSIS *
                    ********************************

--------------------------------------------
MULLIKEN ATOMIC CHARGES AND SPIN POPULATIONS
--------------------------------------------
   0 C :   -0.172849   -0.074234
   1 C :   -0.325280    1.043238
   2 Cl:   -0.028549    0.105234
   3 Cl:   -0.005926    0.018981
   4 Cl:   -0.005926    0.018981
   5 H :    0.269265   -0.056100
   6 H :    0.269265   -0.056100
Sum of atomic charges         :    0.0000000
Sum of atomic spin populations:    1.0000000

-----------------------------------------------------
MULLIKEN REDUCED ORBITAL CHARGES AND SPIN POPULATIONS
-----------------------------------------------------
CHARGE
  0 C s       :     3.396708  s :     3.396708
      pz      :     0.849730  p :     2.698692
      px      :     0.856428
      py      :     0.992535
      dz2     :     0.017049  d :     0.077449
      dxz     :     0.015652
      dyz     :     0.013295
      dx2y2   :     0.016100
      dxy     :     0.015354
  1 C s       :     3.332470  s :     3.332470
      pz      :     1.171133  p :     2.964238
      px      :     0.950767
      py      :     0.842338
      dz2     :     0.009070  d :     0.028571
      dxz     :     0.000787
      dyz     :     0.010236
      dx2y2   :     0.006055
      dxy     :     0.002425
  2 Cls       :     5.945552  s :     5.945552
      pz      :     3.940458  p :    11.055194
      px      :     3.260355
      py      :     3.854382
      dz2     :     0.005102  d :     0.027803
      dxz     :     0.003681
      dyz     :     0.000446
      dx2y2   :     0.010281
      dxy     :     0.008293
  3 Cls       :     5.942007  s :     5.942007
      pz      :     3.404866  p :    11.032238
      px      :     3.764487
      py      :     3.862886
      dz2     :     0.008783  d :     0.031680
      dxz     :     0.010653
      dyz     :     0.007373
      dx2y2   :     0.002206
      dxy     :     0.002665
  4 Cls       :     5.942007  s :     5.942007
      pz      :     3.404866  p :    11.032238
      px      :     3.764487
      py      :     3.862886
      dz2     :     0.008783  d :     0.031680
      dxz     :     0.010653
      dyz     :     0.007373
      dx2y2   :     0.002206
      dxy     :     0.002665
  5 H s       :     0.730735  s :     0.730735
  6 H s       :     0.730735  s :     0.730735

SPIN
  0 C s       :    -0.020448  s :    -0.020448
      pz      :    -0.007861  p :    -0.061591
      px      :    -0.018612
      py      :    -0.035118
      dz2     :     0.000734  d :     0.007805
      dxz     :    -0.000024
      dyz     :     0.000030
      dx2y2   :     0.000052
      dxy     :     0.007013
  1 C s       :     0.098144  s :     0.098144
      pz      :     0.047868  p :     0.948354
      px      :     0.868791
      py      :     0.031695
      dz2     :    -0.001008  d :    -0.003260
      dxz     :    -0.000061
      dyz     :    -0.000151
      dx2y2   :    -0.002092
      dxy     :     0.000052
  2 Cls       :    -0.001472  s :    -0.001472
      pz      :     0.000031  p :     0.106934
      px      :     0.044352
      py      :     0.062551
      dz2     :    -0.000249  d :    -0.000227
      dxz     :     0.000035
      dyz     :     0.000028
      dx2y2   :     0.000411
      dxy     :    -0.000452
  3 Cls       :    -0.000412  s :    -0.000412
      pz      :     0.011274  p :     0.019540
      px      :    -0.001979
      py      :     0.010245
      dz2     :    -0.000044  d :    -0.000147
      dxz     :    -0.000002
      dyz     :    -0.000148
      dx2y2   :    -0.000001
      dxy     :     0.000048
  4 Cls       :    -0.000412  s :    -0.000412
      pz      :     0.011274  p :     0.019540
      px      :    -0.001979
      py      :     0.010245
      dz2     :    -0.000044  d :    -0.000147
      dxz     :    -0.000002
      dyz     :    -0.000148
      dx2y2   :    -0.000001
      dxy     :     0.000048
  5 H s       :    -0.056100  s :    -0.056100
  6 H s       :    -0.056100  s :    -0.056100


                     *******************************
                     * LOEWDIN POPULATION ANALYSIS *
                     *******************************

-------------------------------------------
LOEWDIN ATOMIC CHARGES AND SPIN POPULATIONS
-------------------------------------------
   0 C :   -0.220865   -0.026490
   1 C :   -0.244003    0.930641
   2 Cl:    0.026937    0.109050
   3 Cl:    0.062754    0.021003
   4 Cl:    0.062754    0.021003
   5 H :    0.156211   -0.027603
   6 H :    0.156211   -0.027603

----------------------------------------------------
LOEWDIN REDUCED ORBITAL CHARGES AND SPIN POPULATIONS
----------------------------------------------------
CHARGE
  0 C s       :     3.027973  s :     3.027973
      pz      :     0.953450  p :     3.036108
      px      :     0.955358
      py      :     1.127301
      dz2     :     0.035040  d :     0.156783
      dxz     :     0.030661
      dyz     :     0.025875
      dx2y2   :     0.035602
      dxy     :     0.029605
  1 C s       :     3.023567  s :     3.023567
      pz      :     1.148243  p :     3.163461
      px      :     0.964064
      py      :     1.051154
      dz2     :     0.016423  d :     0.056975
      dxz     :     0.001170
      dyz     :     0.020059
      dx2y2   :     0.013846
      dxy     :     0.005478
  2 Cls       :     5.837405  s :     5.837405
      pz      :     3.938693  p :    11.101411
      px      :     3.321773
      py      :     3.840946
      dz2     :     0.006305  d :     0.034246
      dxz     :     0.004559
      dyz     :     0.000487
      dx2y2   :     0.012965
      dxy     :     0.009930
  3 Cls       :     5.814844  s :     5.814844
      pz      :     3.454589  p :    11.083815
      px      :     3.780401
      py      :     3.848824
      dz2     :     0.010850  d :     0.038587
      dxz     :     0.013374
      dyz     :     0.008688
      dx2y2   :     0.002594
      dxy     :     0.003082
  4 Cls       :     5.814844  s :     5.814844
      pz      :     3.454589  p :    11.083815
      px      :     3.780401
      py      :     3.848824
      dz2     :     0.010850  d :     0.038587
      dxz     :     0.013374
      dyz     :     0.008688
      dx2y2   :     0.002594
      dxy     :     0.003082
  5 H s       :     0.843789  s :     0.843789
  6 H s       :     0.843789  s :     0.843789

SPIN
  0 C s       :    -0.008833  s :    -0.008833
      pz      :    -0.004370  p :    -0.035101
      px      :    -0.013310
      py      :    -0.017421
      dz2     :     0.001996  d :     0.017444
      dxz     :     0.000036
      dyz     :     0.000302
      dx2y2   :     0.001121
      dxy     :     0.013990
  1 C s       :     0.042731  s :     0.042731
      pz      :     0.021948  p :     0.892632
      px      :     0.846486
      py      :     0.024198
      dz2     :    -0.001466  d :    -0.004722
      dxz     :    -0.000089
      dyz     :    -0.000785
      dx2y2   :    -0.002170
      dxy     :    -0.000212
  2 Cls       :     0.003126  s :     0.003126
      pz      :     0.000065  p :     0.106222
      px      :     0.041750
      py      :     0.064407
      dz2     :    -0.000207  d :    -0.000298
      dxz     :     0.000034
      dyz     :     0.000025
      dx2y2   :     0.000148
      dxy     :    -0.000297
  3 Cls       :     0.000592  s :     0.000592
      pz      :     0.010972  p :     0.020632
      px      :    -0.001509
      py      :     0.011169
      dz2     :    -0.000104  d :    -0.000221
      dxz     :    -0.000049
      dyz     :    -0.000115
      dx2y2   :     0.000011
      dxy     :     0.000036
  4 Cls       :     0.000592  s :     0.000592
      pz      :     0.010972  p :     0.020632
      px      :    -0.001509
      py      :     0.011169
      dz2     :    -0.000104  d :    -0.000221
      dxz     :    -0.000049
      dyz     :    -0.000115
      dx2y2   :     0.000011
      dxy     :     0.000036
  5 H s       :    -0.027603  s :    -0.027603
  6 H s       :    -0.027603  s :    -0.027603


                      *****************************
                      * MAYER POPULATION ANALYSIS *
                      *****************************

  NA   - Mulliken gross atomic population
  ZA   - Total nuclear charge
  QA   - Mulliken gross atomic charge
  VA   - Mayer's total valence
  BVA  - Mayer's bonded valence
  FA   - Mayer's free valence

  ATOM       NA         ZA         QA         VA         BVA        FA
  0 C      6.1728     6.0000    -0.1728     3.9521     3.9494     0.0027
  1 C      6.3253     6.0000    -0.3253     3.6048     2.8162     0.7887
  2 Cl    17.0285    17.0000    -0.0285     1.1120     1.0979     0.0141
  3 Cl    17.0059    17.0000    -0.0059     1.1233     1.1227     0.0006
  4 Cl    17.0059    17.0000    -0.0059     1.1233     1.1227     0.0006
  5 H      0.7307     1.0000     0.2693     0.9057     0.9026     0.0031
  6 H      0.7307     1.0000     0.2693     0.9057     0.9026     0.0031

  Mayer bond orders larger than 0.100000
B(  0-C ,  1-C ) :   0.9588 B(  0-C ,  2-Cl) :   0.9696 B(  0-C ,  3-Cl) :   1.0192 
B(  0-C ,  4-Cl) :   1.0192 B(  1-C ,  5-H ) :   0.8987 B(  1-C ,  6-H ) :   0.8987 


-------
TIMINGS
-------

Total SCF time: 0 days 0 hours 2 min 14 sec 

Total time                  ....     134.324 sec
Sum of individual times     ....     122.308 sec  ( 91.1%)

Fock matrix formation       ....      98.387 sec  ( 73.2%)
  Split-RI-J                ....      10.637 sec  ( 10.8% of F)
  Chain of spheres X        ....      16.097 sec  ( 16.4% of F)
  XC integration            ....      29.379 sec  ( 29.9% of F)
    Basis function eval.    ....       1.450 sec  (  4.9% of XC)
    Density eval.           ....       1.755 sec  (  6.0% of XC)
    XC-Functional eval.     ....       1.319 sec  (  4.5% of XC)
    XC-Potential eval.      ....       0.872 sec  (  3.0% of XC)
Diagonalization             ....       2.882 sec  (  2.1%)
Density matrix formation    ....       0.223 sec  (  0.2%)
Population analysis         ....       2.901 sec  (  2.2%)
Initial guess               ....       0.208 sec  (  0.2%)
Orbital Transformation      ....       0.000 sec  (  0.0%)
Orbital Orthonormalization  ....       0.000 sec  (  0.0%)
DIIS solution               ....      10.722 sec  (  8.0%)
Grid generation             ....       6.986 sec  (  5.2%)

Maximum memory used throughout the entire SCF-calculation: 48.4 MB


-------------------------------------------------------------------------------
                          DFT DISPERSION CORRECTION                            
                                                                               
                              DFTD3 V3.1  Rev 1                                
                          USING Becke-Johnson damping                          
-------------------------------------------------------------------------------
The PBEh-3c composite method is recognized
Using three-body term ABC
Active option DFTDOPT                   ...         4   

molecular C6(AA) [au] = 1702.374048 


            DFT-D V3
 parameters
 s6 scaling factor         :     1.0000 
 a1 scaling factor         :     0.4860 
 s8 scaling factor         :     0.0000 
 a2 scaling factor         :     4.5000 
 Damping factor alpha9(ATM):    16.0000 
 ad hoc parameters k1-k3   :    16.0000     1.3333    -4.0000 

 Edisp/kcal,au: -2.496948189099  -0.003979139799 
 E6   /kcal   :  -2.499446261 
 E8   /kcal   :  -0.000000000 
 E6(ABC)      :   0.002498072 
 % E8         :   0.000000000 
 % E6(ABC)    :  -0.100044998 

-------------------------   ----------------
Dispersion correction           -0.003979140
-------------------------   ----------------

------------------   -----------------
gCP correction             0.007690990
------------------   -----------------

-------------------------   --------------------
FINAL SINGLE POINT ENERGY     -1456.272716591796
-------------------------   --------------------


                            ***************************************
                            *     ORCA property calculations      *
                            ***************************************

                                    ---------------------
                                    Active property flags
                                    ---------------------
   (+) Dipole Moment


------------------------------------------------------------------------------
                       ORCA ELECTRIC PROPERTIES CALCULATION
------------------------------------------------------------------------------

Dipole Moment Calculation                       ... on
Quadrupole Moment Calculation                   ... off
Polarizability Calculation                      ... off
GBWName                                         ... pbeh-3c.gbw
Electron density                                ... pbeh-3c.scfp
The origin for moment calculation is the CENTER OF MASS  = ( 0.046294, -1.606237  0.000000)

-------------
DIPOLE MOMENT
-------------
                                X             Y             Z
Electronic contribution:      0.18814      -4.76575      -0.00000
Nuclear contribution   :     -0.17936       5.52713       0.00000
                        -----------------------------------------
Total Dipole Moment    :      0.00879       0.76138      -0.00000
                        -----------------------------------------
Magnitude (a.u.)       :      0.76143
Magnitude (Debye)      :      1.93541



--------------------
Rotational spectrum 
--------------------
 
Rotational constants in cm-1:     0.078119     0.077659     0.054005 
Rotational constants in MHz :  2341.946152  2328.158049  1619.042551 

 Dipole components along the rotational axes: 
x,y,z [a.u.] :    -0.000000    -0.008709     0.761384 
x,y,z [Debye]:    -0.000000    -0.022136     1.935285 

 

Timings for individual modules:

Sum of individual times         ...      139.178 sec (=   2.320 min)
GTO integral calculation        ...        3.675 sec (=   0.061 min)   2.6 %
SCF iterations                  ...      135.504 sec (=   2.258 min)  97.4 %
                             ****ORCA TERMINATED NORMALLY****
TOTAL RUN TIME: 0 days 0 hours 2 minutes 25 seconds 570 msec
