
                                 *****************
                                 * O   R   C   A *
                                 *****************

                                            #,                                       
                                            ###                                      
                                            ####                                     
                                            #####                                    
                                            ######                                   
                                           ########,                                 
                                     ,,################,,,,,                         
                               ,,#################################,,                 
                          ,,##########################################,,             
                       ,#########################################, ''#####,          
                    ,#############################################,,   '####,        
                  ,##################################################,,,,####,       
                ,###########''''           ''''###############################       
              ,#####''   ,,,,##########,,,,          '''####'''          '####       
            ,##' ,,,,###########################,,,                        '##       
           ' ,,###''''                  '''############,,,                           
         ,,##''                                '''############,,,,        ,,,,,,###''
      ,#''                                            '''#######################'''  
     '                                                          ''''####''''         
             ,#######,   #######,   ,#######,      ##                                
            ,#'     '#,  ##    ##  ,#'     '#,    #''#        ######   ,####,        
            ##       ##  ##   ,#'  ##            #'  '#       #        #'  '#        
            ##       ##  #######   ##           ,######,      #####,   #    #        
            '#,     ,#'  ##    ##  '#,     ,#' ,#      #,         ##   #,  ,#        
             '#######'   ##     ##  '#######'  #'      '#     #####' # '####'        



                  #######################################################
                  #                        -***-                        #
                  #          Department of theory and spectroscopy      #
                  #    Directorship and core code : Frank Neese         #
                  #        Max Planck Institute fuer Kohlenforschung    #
                  #                Kaiser Wilhelm Platz 1               #
                  #                 D-45470 Muelheim/Ruhr               #
                  #                      Germany                        #
                  #                                                     #
                  #                  All rights reserved                #
                  #                        -***-                        #
                  #######################################################


                         Program Version 5.0.3 -  RELEASE  -


 With contributions from (in alphabetic order):
   Daniel Aravena         : Magnetic Suceptibility
   Michael Atanasov       : Ab Initio Ligand Field Theory (pilot matlab implementation)
   Alexander A. Auer      : GIAO ZORA, VPT2 properties, NMR spectrum
   Ute Becker             : Parallelization
   Giovanni Bistoni       : ED, misc. LED, open-shell LED, HFLD
   Martin Brehm           : Molecular dynamics
   Dmytro Bykov           : SCF Hessian
   Vijay G. Chilkuri      : MRCI spin determinant printing, contributions to CSF-ICE
   Dipayan Datta          : RHF DLPNO-CCSD density
   Achintya Kumar Dutta   : EOM-CC, STEOM-CC
   Dmitry Ganyushin       : Spin-Orbit,Spin-Spin,Magnetic field MRCI
   Miquel Garcia          : C-PCM and meta-GGA Hessian, CC/C-PCM, Gaussian charge scheme
   Yang Guo               : DLPNO-NEVPT2, F12-NEVPT2, CIM, IAO-localization
   Andreas Hansen         : Spin unrestricted coupled pair/coupled cluster methods
   Benjamin Helmich-Paris : MC-RPA, TRAH-SCF, COSX integrals
   Lee Huntington         : MR-EOM, pCC
   Robert Izsak           : Overlap fitted RIJCOSX, COSX-SCS-MP3, EOM
   Marcus Kettner         : VPT2
   Christian Kollmar      : KDIIS, OOCD, Brueckner-CCSD(T), CCSD density, CASPT2, CASPT2-K
   Simone Kossmann        : Meta GGA functionals, TD-DFT gradient, OOMP2, MP2 Hessian
   Martin Krupicka        : Initial AUTO-CI
   Lucas Lang             : DCDCAS
   Marvin Lechner         : AUTO-CI (C++ implementation), FIC-MRCC
   Dagmar Lenk            : GEPOL surface, SMD
   Dimitrios Liakos       : Extrapolation schemes; Compound Job, initial MDCI parallelization
   Dimitrios Manganas     : Further ROCIS development; embedding schemes
   Dimitrios Pantazis     : SARC Basis sets
   Anastasios Papadopoulos: AUTO-CI, single reference methods and gradients
   Taras Petrenko         : DFT Hessian,TD-DFT gradient, ASA, ECA, R-Raman, ABS, FL, XAS/XES, NRVS
   Peter Pinski           : DLPNO-MP2, DLPNO-MP2 Gradient
   Christoph Reimann      : Effective Core Potentials
   Marius Retegan         : Local ZFS, SOC
   Christoph Riplinger    : Optimizer, TS searches, QM/MM, DLPNO-CCSD(T), (RO)-DLPNO pert. Triples
   Tobias Risthaus        : Range-separated hybrids, TD-DFT gradient, RPA, STAB
   Michael Roemelt        : Original ROCIS implementation
   Masaaki Saitow         : Open-shell DLPNO-CCSD energy and density
   Barbara Sandhoefer     : DKH picture change effects
   Avijit Sen             : IP-ROCIS
   Kantharuban Sivalingam : CASSCF convergence, NEVPT2, FIC-MRCI
   Bernardo de Souza      : ESD, SOC TD-DFT
   Georgi Stoychev        : AutoAux, RI-MP2 NMR, DLPNO-MP2 response
   Willem Van den Heuvel  : Paramagnetic NMR
   Boris Wezisla          : Elementary symmetry handling
   Frank Wennmohs         : Technical directorship


 We gratefully acknowledge several colleagues who have allowed us to
 interface, adapt or use parts of their codes:
   Stefan Grimme, W. Hujo, H. Kruse, P. Pracht,  : VdW corrections, initial TS optimization,
                  C. Bannwarth, S. Ehlert          DFT functionals, gCP, sTDA/sTD-DF
   Ed Valeev, F. Pavosevic, A. Kumar             : LibInt (2-el integral package), F12 methods
   Garnet Chan, S. Sharma, J. Yang, R. Olivares  : DMRG
   Ulf Ekstrom                                   : XCFun DFT Library
   Mihaly Kallay                                 : mrcc  (arbitrary order and MRCC methods)
   Jiri Pittner, Ondrej Demel                    : Mk-CCSD
   Frank Weinhold                                : gennbo (NPA and NBO analysis)
   Christopher J. Cramer and Donald G. Truhlar   : smd solvation model
   Lars Goerigk                                  : TD-DFT with DH, B97 family of functionals
   V. Asgeirsson, H. Jonsson                     : NEB implementation
   FAccTs GmbH                                   : IRC, NEB, NEB-TS, DLPNO-Multilevel, CI-OPT
                                                   MM, QMMM, 2- and 3-layer-ONIOM, Crystal-QMMM,
                                                   LR-CPCM, SF, NACMEs, symmetry and pop. for TD-DFT,
                                                   nearIR, NL-DFT gradient (VV10), updates on ESD,
                                                   ML-optimized integration grids
   S Lehtola, MJT Oliveira, MAL Marques          : LibXC Library
   Liviu Ungur et al                             : ANISO software


 Your calculation uses the libint2 library for the computation of 2-el integrals
 For citations please refer to: http://libint.valeyev.net

 Your ORCA version has been built with support for libXC version: 5.1.0
 For citations please refer to: https://tddft.org/programs/libxc/

 This ORCA versions uses:
   CBLAS   interface :  Fast vector & matrix operations
   LAPACKE interface :  Fast linear algebra routines
   SCALAPACK package :  Parallel linear algebra routines
   Shared memory     :  Shared parallel matrices
   BLAS/LAPACK       :  OpenBLAS 0.3.15  USE64BITINT DYNAMIC_ARCH NO_AFFINITY Haswell SINGLE_THREADED
        Core in use  :  Haswell
   Copyright (c) 2011-2014, The OpenBLAS Project




***************************************
The coordinates will be read from file: 53.xyz
***************************************


Your calculation utilizes the geometrical counterpoise correction gCP
Please cite in your paper:
H.Kruse, S. Grimme J.Chem.Phys., 136, (2012), 154101 
   

Your calculation utilizes the atom-pairwise dispersion correction
with the Becke-Johnson damping scheme (D3BJ)
Cite in your paper:
S.Grimme, S.Ehrlich, L.Goerigk, J Comput Chem, (2011), 32, 1456–1465 
S.Grimme, J.Antony, S.Ehrlich and H.Krieg, J.Chem.Phys., 132, (2010), 154104 
   

Your calculation employs the composite approach PBEh-3c.
Please cite in your paper:
S. Grimme, J. G. Brandenburg, C. Bannwarth, A. Hansen J.Chem.Phys., 143, (2015), 054107 
   

================================================================================

----- Orbital basis set information -----
Your calculation utilizes the basis: def2-mSVP

----- AuxJ basis set information -----
Your calculation utilizes the auxiliary basis: def2/J
   F. Weigend, Phys. Chem. Chem. Phys. 8, 1057 (2006).

================================================================================
                                        WARNINGS
                       Please study these warnings very carefully!
================================================================================


INFO   : the flag for use of the SHARK integral package has been found!

================================================================================
                                       INPUT FILE
================================================================================
NAME = pbeh-3c.inp
|  1> ! PBEh-3c def2/J TightSCF DefGrid3
|  2> 
|  3> %maxcore 60000
|  4> 
|  5> %pal
|  6> nprocs 4
|  7> end
|  8> 
|  9> *xyzfile 0 1 53.xyz
| 10> 
| 11>                          ****END OF INPUT****
================================================================================

                       ****************************
                       * Single Point Calculation *
                       ****************************

---------------------------------
CARTESIAN COORDINATES (ANGSTROEM)
---------------------------------
  C      0.856839    0.515004   -1.325351
  H      1.515103    1.059151   -0.662339
  C      1.344175   -0.518907   -2.123948
  H      2.394162   -0.776873   -2.093142
  C      0.479085   -1.220230   -2.962921
  H      0.857362   -2.022436   -3.581929
  C     -0.873552   -0.886085   -3.005557
  H     -1.544128   -1.429228   -3.657521
  C     -1.361119    0.149458   -2.209258
  H     -2.410293    0.409939   -2.244326
  C     -0.497166    0.849628   -1.368113
  H     -0.864833    1.646811   -0.737068
  C      0.083207    0.654002    2.429623
  O      0.329697    1.697428    1.842384
  N     -0.220840   -0.501004    1.778456
  H     -0.195639   -0.508020    0.771819
  H     -0.376616   -1.356496    2.274158
  C      0.106052    0.559110    3.938041
  H      1.137766    0.643323    4.273114
  H     -0.315852   -0.367532    4.319066
  H     -0.443412    1.402957    4.344811

----------------------------
CARTESIAN COORDINATES (A.U.)
----------------------------
  NO LB      ZA    FRAG     MASS         X           Y           Z
   0 C     6.0000    0    12.011    1.619191    0.973216   -2.504550
   1 H     1.0000    0     1.008    2.863131    2.001505   -1.251640
   2 C     6.0000    0    12.011    2.540123   -0.980592   -4.013679
   3 H     1.0000    0     1.008    4.524310   -1.468077   -3.955465
   4 C     6.0000    0    12.011    0.905339   -2.305900   -5.599109
   5 H     1.0000    0     1.008    1.620180   -3.821850   -6.768865
   6 C     6.0000    0    12.011   -1.650773   -1.674457   -5.679679
   7 H     1.0000    0     1.008   -2.917978   -2.700850   -6.911713
   8 C     6.0000    0    12.011   -2.572142    0.282434   -4.174894
   9 H     1.0000    0     1.008   -4.554793    0.774672   -4.241162
  10 C     6.0000    0    12.011   -0.939507    1.605565   -2.585359
  11 H     1.0000    0     1.008   -1.634297    3.112022   -1.392857
  12 C     6.0000    0    12.011    0.157239    1.235885    4.591323
  13 O     8.0000    0    15.999    0.623037    3.207675    3.481601
  14 N     7.0000    0    14.007   -0.417327   -0.946761    3.360795
  15 H     1.0000    0     1.008   -0.369705   -0.960018    1.458527
  16 H     1.0000    0     1.008   -0.711701   -2.563407    4.297535
  17 C     6.0000    0    12.011    0.200410    1.056566    7.441818
  18 H     1.0000    0     1.008    2.150066    1.215704    8.075016
  19 H     1.0000    0     1.008   -0.596873   -0.694536    8.161852
  20 H     1.0000    0     1.008   -0.837928    2.651204    8.210503

--------------------------------
INTERNAL COORDINATES (ANGSTROEM)
--------------------------------
 C      0   0   0     0.000000000000     0.00000000     0.00000000
 H      1   0   0     1.081199672048     0.00000000     0.00000000
 C      1   2   0     1.394354894443   120.77074142     0.00000000
 H      3   1   2     1.081650270877   119.98715091   359.27344420
 C      3   1   2     1.394313646371   120.04874450   179.30761639
 H      5   3   1     1.081573049860   120.02924470   180.02607084
 C      5   3   1     1.393949665375   119.99245631     0.12523132
 H      7   5   3     1.081542828958   119.98005564   179.90713059
 C      7   5   3     1.394331464803   119.99175162     0.00000000
 H      9   7   5     1.081594005530   119.96962485   179.85831568
 C      9   7   5     1.394338442457   120.05237053   359.87508083
 H     11   9   7     1.081155513282   120.77411798   180.72902051
 C      2   1   3     3.431428918797   103.83190602   237.19092497
 O     13   2   1     1.222434083244    51.84558443   237.92537480
 N     13   2   1     1.360332068452    76.24265014    31.97178228
 H     15  13   2     1.006976322507   118.60985228   339.08186163
 H     15  13   2     1.000926355280   121.56160108   152.87133705
 C     13   2   1     1.511571826493   154.19707328   152.32690482
 H     18  13   2     1.088025392475   108.46917501   357.75325742
 H     18  13   2     1.087129464604   113.41577801   236.47222340
 H     18  13   2     1.086024822103   108.50236840   114.49983129

---------------------------
INTERNAL COORDINATES (A.U.)
---------------------------
 C      0   0   0     0.000000000000     0.00000000     0.00000000
 H      1   0   0     2.043171276256     0.00000000     0.00000000
 C      1   2   0     2.634948883989   120.77074142     0.00000000
 H      3   1   2     2.044022784639   119.98715091   359.27344420
 C      3   1   2     2.634870936430   120.04874450   179.30761639
 H      5   3   1     2.043876858065   120.02924470   180.02607084
 C      5   3   1     2.634183112030   119.99245631     0.12523132
 H      7   5   3     2.043819748838   119.98005564   179.90713059
 C      7   5   3     2.634904608386   119.99175162     0.00000000
 H      9   7   5     2.043916458543   119.96962485   179.85831568
 C      9   7   5     2.634917794242   120.05237053   359.87508083
 H     11   9   7     2.043087828282   120.77411798   180.72902051
 C      2   1   3     6.484460904544   103.83190602   237.19092497
 O     13   2   1     2.310065634103    51.84558443   237.92537480
 N     13   2   1     2.570655060564    76.24265014    31.97178228
 H     15  13   2     1.902909472881   118.60985228   339.08186163
 H     15  13   2     1.891476691703   121.56160108   152.87133705
 C     13   2   1     2.856456783823   154.19707328   152.32690482
 H     18  13   2     2.056070018530   108.46917501   357.75325742
 H     18  13   2     2.054376960219   113.41577801   236.47222340
 H     18  13   2     2.052289488415   108.50236840   114.49983129

---------------------
BASIS SET INFORMATION
---------------------
There are 4 groups of distinct atoms

 Group   1 Type C   : 8s4p1d contracted to 4s2p1d pattern {5111/31/1}
 Group   2 Type H   : 4s contracted to 2s pattern {31}
 Group   3 Type O   : 8s4p1d contracted to 4s2p1d pattern {5111/31/1}
 Group   4 Type N   : 8s4p1d contracted to 4s2p1d pattern {5111/31/1}

Atom   0C    basis set group =>   1
Atom   1H    basis set group =>   2
Atom   2C    basis set group =>   1
Atom   3H    basis set group =>   2
Atom   4C    basis set group =>   1
Atom   5H    basis set group =>   2
Atom   6C    basis set group =>   1
Atom   7H    basis set group =>   2
Atom   8C    basis set group =>   1
Atom   9H    basis set group =>   2
Atom  10C    basis set group =>   1
Atom  11H    basis set group =>   2
Atom  12C    basis set group =>   1
Atom  13O    basis set group =>   3
Atom  14N    basis set group =>   4
Atom  15H    basis set group =>   2
Atom  16H    basis set group =>   2
Atom  17C    basis set group =>   1
Atom  18H    basis set group =>   2
Atom  19H    basis set group =>   2
Atom  20H    basis set group =>   2
---------------------------------
AUXILIARY/J BASIS SET INFORMATION
---------------------------------
There are 4 groups of distinct atoms

 Group   1 Type C   : 12s5p4d2f1g contracted to 6s4p3d1f1g pattern {711111/2111/211/2/1}
 Group   2 Type H   : 5s2p1d contracted to 3s1p1d pattern {311/2/1}
 Group   3 Type O   : 12s5p4d2f1g contracted to 6s4p3d1f1g pattern {711111/2111/211/2/1}
 Group   4 Type N   : 12s5p4d2f1g contracted to 6s4p3d1f1g pattern {711111/2111/211/2/1}

Atom   0C    basis set group =>   1
Atom   1H    basis set group =>   2
Atom   2C    basis set group =>   1
Atom   3H    basis set group =>   2
Atom   4C    basis set group =>   1
Atom   5H    basis set group =>   2
Atom   6C    basis set group =>   1
Atom   7H    basis set group =>   2
Atom   8C    basis set group =>   1
Atom   9H    basis set group =>   2
Atom  10C    basis set group =>   1
Atom  11H    basis set group =>   2
Atom  12C    basis set group =>   1
Atom  13O    basis set group =>   3
Atom  14N    basis set group =>   4
Atom  15H    basis set group =>   2
Atom  16H    basis set group =>   2
Atom  17C    basis set group =>   1
Atom  18H    basis set group =>   2
Atom  19H    basis set group =>   2
Atom  20H    basis set group =>   2


           ************************************************************
           *        Program running with 4 parallel MPI-processes     *
           *              working on a common directory               *
           ************************************************************
------------------------------------------------------------------------------
                           ORCA GTO INTEGRAL CALCULATION
                           -- RI-GTO INTEGRALS CHOSEN --
------------------------------------------------------------------------------
------------------------------------------------------------------------------
                   ___                                                        
                  /   \      - P O W E R E D   B Y -                         
                 /     \                                                     
                 |  |  |   _    _      __       _____    __    __             
                 |  |  |  | |  | |    /  \     |  _  \  |  |  /  |          
                  \  \/   | |  | |   /    \    | | | |  |  | /  /          
                 / \  \   | |__| |  /  /\  \   | |_| |  |  |/  /          
                |  |  |   |  __  | /  /__\  \  |    /   |      \           
                |  |  |   | |  | | |   __   |  |    \   |  |\   \          
                \     /   | |  | | |  |  |  |  | |\  \  |  | \   \       
                 \___/    |_|  |_| |__|  |__|  |_| \__\ |__|  \__/        
                                                                              
                      - O R C A' S   B I G   F R I E N D -                    
                                      &                                       
                       - I N T E G R A L  F E E D E R -                       
                                                                              
 v1 FN, 2020, v2 2021                                                         
------------------------------------------------------------------------------


Reading SHARK input file pbeh-3c.SHARKINP.tmp ... ok
----------------------
SHARK INTEGRAL PACKAGE
----------------------

Number of atoms                             ...     21
Number of basis functions                   ...    172
Number of shells                            ...     92
Maximum angular momentum                    ...      2
Integral batch strategy                     ... SHARK/LIBINT Hybrid
RI-J (if used) integral strategy            ... SPLIT-RIJ (Revised 2003 algorithm where possible)
Printlevel                                  ...      1
Contraction scheme used                     ... SEGMENTED contraction
Coulomb Range Separation                    ... NOT USED
Exchange Range Separation                   ... NOT USED
Finite Nucleus Model                        ... NOT USED
Auxiliary Coulomb fitting basis             ... AVAILABLE
   # of basis functions in Aux-J            ...    611
   # of shells in Aux-J                     ...    205
   Maximum angular momentum in Aux-J        ...      4
Auxiliary J/K fitting basis                 ... NOT available
Auxiliary Correlation fitting basis         ... NOT available
Auxiliary 'external' fitting basis          ... NOT available
Integral threshold                          ...     2.500000e-11
Primitive cut-off                           ...     2.500000e-12
Primitive pair pre-selection threshold      ...     2.500000e-12

Calculating pre-screening integrals         ... done (  0.1 sec) Dimension = 92
Organizing shell pair data                  ... done (  0.5 sec)
Shell pair information
Total number of shell pairs                 ...      4278
Shell pairs after pre-screening             ...      3435
Total number of primitive shell pairs       ...     15388
Primitive shell pairs kept                  ...      8446
          la=0 lb=0:   1457 shell pairs
          la=1 lb=0:   1090 shell pairs
          la=1 lb=1:    202 shell pairs
          la=2 lb=0:    467 shell pairs
          la=2 lb=1:    176 shell pairs
          la=2 lb=2:     43 shell pairs

Calculating one electron integrals          ... done (  0.0 sec)
Calculating RI/J V-Matrix + Cholesky decomp.... done (  0.5 sec)
Calculating Nuclear repulsion               ... done (  0.1 sec) ENN=    475.548369486899 Eh

SHARK setup successfully completed in   2.5 seconds

Maximum memory used throughout the entire GTOINT-calculation: 12.0 MB


           ************************************************************
           *        Program running with 4 parallel MPI-processes     *
           *              working on a common directory               *
           ************************************************************
-------------------------------------------------------------------------------
                                 ORCA SCF
-------------------------------------------------------------------------------

------------
SCF SETTINGS
------------
Hamiltonian:
 Density Functional     Method          .... DFT(GTOs)
 Exchange Functional    Exchange        .... PBE
   PBE kappa parameter   XKappa         ....  1.024500
   PBE mue parameter    XMuePBE         ....  0.123457
 Correlation Functional Correlation     .... PBE
   PBE beta parameter  CBetaPBE         ....  0.030000
 LDA part of GGA corr.  LDAOpt          .... PW91-LDA
 Gradients option       PostSCFGGA      .... off
 Hybrid DFT is turned on
   Fraction HF Exchange ScalHFX         ....  0.420000
   Scaling of DF-GGA-X  ScalDFX         ....  0.580000
   Scaling of DF-GGA-C  ScalDFC         ....  1.000000
   Scaling of DF-LDA-C  ScalLDAC        ....  1.000000
   Perturbative correction              ....  0.000000
   Density functional embedding theory  .... OFF
 RI-approximation to the Coulomb term is turned on
   Number of AuxJ basis functions       .... 611
   RIJ-ON(X) (HFX calculated with O(N)) .... on
   Number of AuxJ basis functions       .... 611
   RIJ-COSX (HFX calculated with COS-X)).... on


General Settings:
 Integral files         IntName         .... pbeh-3c
 Hartree-Fock type      HFTyp           .... RHF
 Total Charge           Charge          ....    0
 Multiplicity           Mult            ....    1
 Number of Electrons    NEL             ....   74
 Basis Dimension        Dim             ....  172
 Nuclear Repulsion      ENuc            ....    475.5483694869 Eh

Convergence Acceleration:
 DIIS                   CNVDIIS         .... on
   Start iteration      DIISMaxIt       ....    12
   Startup error        DIISStart       ....  0.200000
   # of expansion vecs  DIISMaxEq       ....     5
   Bias factor          DIISBfac        ....   1.050
   Max. coefficient     DIISMaxC        ....  10.000
 Trust-Rad. Augm. Hess. CNVTRAH         .... auto
   Auto Start mean grad. ratio tolernc. ....  1.125000
   Auto Start start iteration           ....    20
   Auto Start num. interpolation iter.  ....    10
   Max. Number of Micro iterations      ....    16
   Max. Number of Macro iterations      .... Maxiter - #DIIS iter
   Number of Davidson start vectors     ....     2
   Converg. threshold I  (grad. norm)   ....   1.000e-05
   Converg. threshold II (energy diff.) ....   1.000e-08
   Grad. Scal. Fac. for Micro threshold ....   0.100
   Minimum threshold for Micro iter.    ....   0.010
   NR start threshold (gradient norm)   ....   0.001
   Initial trust radius                 ....   0.400
   Minimum AH scaling param. (alpha)    ....   1.000
   Maximum AH scaling param. (alpha)    .... 1000.000
   Orbital update algorithm             .... Taylor
   White noise on init. David. guess    .... on
   Maximum white noise                  ....   0.010
   Quad. conv. algorithm                .... NR
   COSX micro iterations for RIJONX calc.... off
 SOSCF                  CNVSOSCF        .... on
   Start iteration      SOSCFMaxIt      ....   150
   Startup grad/error   SOSCFStart      ....  0.003300
 Level Shifting         CNVShift        .... on
   Level shift para.    LevelShift      ....    0.2500
   Turn off err/grad.   ShiftErr        ....    0.0010
 Zerner damping         CNVZerner       .... off
 Static damping         CNVDamp         .... on
   Fraction old density DampFac         ....    0.7000
   Max. Damping (<1)    DampMax         ....    0.9800
   Min. Damping (>=0)   DampMin         ....    0.0000
   Turn off err/grad.   DampErr         ....    0.1000
 Fernandez-Rico         CNVRico         .... off

SCF Procedure:
 Maximum # iterations   MaxIter         ....   125
 SCF integral mode      SCFMode         .... Direct
   Integral package                     .... SHARK and LIBINT hybrid scheme
 Reset frequency        DirectResetFreq ....    20
 Integral Threshold     Thresh          ....  2.500e-11 Eh
 Primitive CutOff       TCut            ....  2.500e-12 Eh

Convergence Tolerance:
 Convergence Check Mode ConvCheckMode   .... Total+1el-Energy
 Convergence forced     ConvForced      .... 0
 Energy Change          TolE            ....  1.000e-08 Eh
 1-El. energy change                    ....  1.000e-05 Eh
 Orbital Gradient       TolG            ....  1.000e-05
 Orbital Rotation angle TolX            ....  1.000e-05
 DIIS Error             TolErr          ....  5.000e-07


Diagonalization of the overlap matrix:
Smallest eigenvalue                        ... 4.865e-04
Time for diagonalization                   ...    0.005 sec
Threshold for overlap eigenvalues          ... 1.000e-08
Number of eigenvalues below threshold      ... 0
Time for construction of square roots      ...    0.221 sec
Total time needed                          ...    0.250 sec

--------------------------------
INITIAL GUESS: MINIMAL BASIS EHT
--------------------------------
The minimal basis has 61 functions
EHT matrix was diagonalized
Basis set overlap was calculated now projecting the orbitals
Using GuessMode=FMatrix for the initial guess
C*T matrix was formed
Effective Fockian was calculated
Effective Fockian was diagonalized
Initial density was built
                      ------------------
                      INITIAL GUESS DONE
                      ------------------
-------------------
DFT GRID GENERATION
-------------------

General Integration Accuracy     IntAcc      ... 4.959
Radial Grid Type                 RadialGrid  ... OptM3 with GC (2021)
Angular Grid (max. ang.)         AngularGrid ... 6 (Lebedev-590)
Angular grid pruning method      GridPruning ... 4 (adaptive)
Weight generation scheme         WeightScheme... Becke
Basis function cutoff            BFCut       ... 1.0000e-11
Integration weight cutoff        WCut        ... 1.0000e-14
Angular grids for H and He will be reduced by one unit
Partially contracted basis set               ... off
Rotationally invariant grid construction     ... off

Total number of grid points                  ...   239084
Total number of batches                      ...     3744
Average number of points per batch           ...       63
Average number of grid points per atom       ...    11385
Time for grid setup =    4.650 sec

--------------------
COSX GRID GENERATION
--------------------

GRIDX 1
-------
General Integration Accuracy     IntAcc      ... 4.020
Radial Grid Type                 RadialGrid  ... OptM3 with GC (2021)
Angular Grid (max. ang.)         AngularGrid ... 2 (Lebedev-110)
Angular grid pruning method      GridPruning ... 4 (adaptive)
Weight generation scheme         WeightScheme... Becke
Basis function cutoff            BFCut       ... 1.0000e-11
Integration weight cutoff        WCut        ... 1.0000e-14
Angular grids for H and He will be reduced by one unit
Partially contracted basis set               ... on
Rotationally invariant grid construction     ... off

Total number of grid points                  ...    26348
Total number of batches                      ...      422
Average number of points per batch           ...       62
Average number of grid points per atom       ...     1255
UseSFitting                                  ... on

GRIDX 2
-------
General Integration Accuracy     IntAcc      ... 4.338
Radial Grid Type                 RadialGrid  ... OptM3 with GC (2021)
Angular Grid (max. ang.)         AngularGrid ... 3 (Lebedev-194)
Angular grid pruning method      GridPruning ... 4 (adaptive)
Weight generation scheme         WeightScheme... Becke
Basis function cutoff            BFCut       ... 1.0000e-11
Integration weight cutoff        WCut        ... 1.0000e-14
Angular grids for H and He will be reduced by one unit
Partially contracted basis set               ... on
Rotationally invariant grid construction     ... off

Total number of grid points                  ...    57734
Total number of batches                      ...      913
Average number of points per batch           ...       63
Average number of grid points per atom       ...     2749
UseSFitting                                  ... on

GRIDX 3
-------
General Integration Accuracy     IntAcc      ... 4.871
Radial Grid Type                 RadialGrid  ... OptM3 with GC (2021)
Angular Grid (max. ang.)         AngularGrid ... 4 (Lebedev-302)
Angular grid pruning method      GridPruning ... 4 (adaptive)
Weight generation scheme         WeightScheme... Becke
Basis function cutoff            BFCut       ... 1.0000e-11
Integration weight cutoff        WCut        ... 1.0000e-14
Angular grids for H and He will be reduced by one unit
Partially contracted basis set               ... on
Rotationally invariant grid construction     ... off

Total number of grid points                  ...   110806
Total number of batches                      ...     1741
Average number of points per batch           ...       63
Average number of grid points per atom       ...     5276
UseSFitting                                  ... on

Time for X-Grid setup             =    3.853 sec

--------------
SCF ITERATIONS
--------------
ITER       Energy         Delta-E        Max-DP      RMS-DP      [F,P]     Damp
               ***  Starting incremental Fock matrix formation  ***
  0   -439.1922120988   0.000000000000 0.20248844  0.00507712  0.5708545 0.7000
  1   -439.6517150940  -0.459502995240 0.11144693  0.00295221  0.2926961 0.7000
  2   -439.9032169442  -0.251501850242 0.05393621  0.00178460  0.2066148 0.7000
                               ***Turning on DIIS***
  3   -440.0826156979  -0.179398753637 0.03846134  0.00126273  0.1452129 0.7000
  4   -440.2118731864  -0.129257488535 0.02521753  0.00096934  0.1018614 0.7000
  5   -440.3033367529  -0.091463566494 0.06835794  0.00240576  0.0715091 0.0000
  6   -440.5208504556  -0.217513702700 0.00721196  0.00012521  0.0054574 0.0000
                      *** Initiating the SOSCF procedure ***
                           *** Shutting down DIIS ***
                      *** Re-Reading the Fockian *** 
                      *** Removing any level shift *** 
ITER      Energy       Delta-E        Grad      Rot      Max-DP    RMS-DP
  7   -440.52098691  -0.0001364558  0.000780  0.000780  0.002037  0.000062
               *** Restarting incremental Fock matrix formation ***
  8   -440.52102566  -0.0000387527  0.001201  0.003123  0.002605  0.000049
  9   -440.52103132  -0.0000056597  0.000575  0.000395  0.001585  0.000038
 10   -440.52103652  -0.0000051987  0.000085  0.000256  0.000459  0.000011
 11   -440.52103675  -0.0000002299  0.000051  0.000061  0.000127  0.000002
 12   -440.52103678  -0.0000000269  0.000024  0.000031  0.000076  0.000002
                  ***Gradient check signals convergence***
              ***Rediagonalizing the Fockian in SOSCF/NRSCF***

               *****************************************************
               *                     SUCCESS                       *
               *           SCF CONVERGED AFTER  13 CYCLES          *
               *****************************************************

Old exchange energy                            =    -25.283444926 Eh
New exchange energy                            =    -25.283443656 Eh
Exchange energy change after final integration =      0.000001269 Eh
Total energy after final integration           =   -440.521035523 Eh
Final COS-X integration done in                =     6.281 sec

----------------
TOTAL SCF ENERGY
----------------

Total Energy       :         -440.52103552 Eh          -11987.18679 eV

Components:
Nuclear Repulsion  :          475.54836949 Eh           12940.32901 eV
Electronic Energy  :         -916.06940501 Eh          -24927.51580 eV
One Electron Energy:        -1539.46625723 Eh          -41891.00656 eV
Two Electron Energy:          623.39685222 Eh           16963.49076 eV
Max COSX asymmetry :            0.00000281 Eh               0.00008 eV

Virial components:
Potential Energy   :         -877.61754973 Eh          -23881.18762 eV
Kinetic Energy     :          437.09651421 Eh           11894.00083 eV
Virial Ratio       :            2.00783470


DFT components:
N(Alpha)           :       36.999999602700 electrons
N(Beta)            :       36.999999602700 electrons
N(Total)           :       73.999999205401 electrons
E(X)               :      -33.592845690295 Eh       
E(C)               :       -3.205453525439 Eh       
E(XC)              :      -36.798299215734 Eh       
DFET-embed. en.    :        0.000000000000 Eh       

---------------
SCF CONVERGENCE
---------------

  Last Energy change         ...   -1.3474e-08  Tolerance :   1.0000e-08
  Last MAX-Density change    ...    1.7764e-15  Tolerance :   1.0000e-07
  Last RMS-Density change    ...    4.2376e-17  Tolerance :   5.0000e-09
  Last Orbital Gradient      ...    1.5599e-06  Tolerance :   1.0000e-05
  Last Orbital Rotation      ...    4.9221e-06  Tolerance :   1.0000e-05

             **** THE GBW FILE WAS UPDATED (pbeh-3c.gbw) ****
             **** DENSITY pbeh-3c.scfp WAS UPDATED ****
             **** ENERGY FILE WAS UPDATED (pbeh-3c.en.tmp) ****
             **** THE GBW FILE WAS UPDATED (pbeh-3c.gbw) ****
             **** DENSITY pbeh-3c.scfp WAS UPDATED ****
----------------
ORBITAL ENERGIES
----------------

  NO   OCC          E(Eh)            E(eV) 
   0   2.0000     -19.449871      -529.2579 
   1   2.0000     -14.649045      -398.6208 
   2   2.0000     -10.547185      -287.0035 
   3   2.0000     -10.449413      -284.3430 
   4   2.0000     -10.448919      -284.3295 
   5   2.0000     -10.448267      -284.3118 
   6   2.0000     -10.448145      -284.3085 
   7   2.0000     -10.445028      -284.2237 
   8   2.0000     -10.444408      -284.2068 
   9   2.0000     -10.440024      -284.0875 
  10   2.0000      -1.134791       -30.8792 
  11   2.0000      -0.997730       -27.1496 
  12   2.0000      -0.951927       -25.9032 
  13   2.0000      -0.834944       -22.7200 
  14   2.0000      -0.834896       -22.7187 
  15   2.0000      -0.825279       -22.4570 
  16   2.0000      -0.678326       -18.4582 
  17   2.0000      -0.676976       -18.4215 
  18   2.0000      -0.656854       -17.8739 
  19   2.0000      -0.602509       -16.3951 
  20   2.0000      -0.589705       -16.0467 
  21   2.0000      -0.534089       -14.5333 
  22   2.0000      -0.523498       -14.2451 
  23   2.0000      -0.507304       -13.8044 
  24   2.0000      -0.505243       -13.7484 
  25   2.0000      -0.480636       -13.0788 
  26   2.0000      -0.479125       -13.0377 
  27   2.0000      -0.460015       -12.5176 
  28   2.0000      -0.456257       -12.4154 
  29   2.0000      -0.421049       -11.4573 
  30   2.0000      -0.419231       -11.4079 
  31   2.0000      -0.396236       -10.7821 
  32   2.0000      -0.395655       -10.7663 
  33   2.0000      -0.314467        -8.5571 
  34   2.0000      -0.306312        -8.3352 
  35   2.0000      -0.293183        -7.9779 
  36   2.0000      -0.290463        -7.9039 
  37   0.0000       0.017790         0.4841 
  38   0.0000       0.018089         0.4922 
  39   0.0000       0.069990         1.9045 
  40   0.0000       0.127208         3.4615 
  41   0.0000       0.144692         3.9373 
  42   0.0000       0.182052         4.9539 
  43   0.0000       0.191699         5.2164 
  44   0.0000       0.195447         5.3184 
  45   0.0000       0.203810         5.5460 
  46   0.0000       0.207277         5.6403 
  47   0.0000       0.218536         5.9467 
  48   0.0000       0.227325         6.1858 
  49   0.0000       0.227721         6.1966 
  50   0.0000       0.232918         6.3380 
  51   0.0000       0.254256         6.9187 
  52   0.0000       0.259788         7.0692 
  53   0.0000       0.326710         8.8902 
  54   0.0000       0.329028         8.9533 
  55   0.0000       0.331565         9.0223 
  56   0.0000       0.333879         9.0853 
  57   0.0000       0.366240         9.9659 
  58   0.0000       0.435613        11.8536 
  59   0.0000       0.462599        12.5880 
  60   0.0000       0.515834        14.0366 
  61   0.0000       0.530377        14.4323 
  62   0.0000       0.536881        14.6093 
  63   0.0000       0.558519        15.1981 
  64   0.0000       0.573948        15.6179 
  65   0.0000       0.578190        15.7333 
  66   0.0000       0.590987        16.0816 
  67   0.0000       0.593015        16.1367 
  68   0.0000       0.596189        16.2231 
  69   0.0000       0.605069        16.4648 
  70   0.0000       0.620224        16.8771 
  71   0.0000       0.622365        16.9354 
  72   0.0000       0.633782        17.2461 
  73   0.0000       0.635919        17.3042 
  74   0.0000       0.647366        17.6157 
  75   0.0000       0.659216        17.9382 
  76   0.0000       0.676280        18.4025 
  77   0.0000       0.714281        19.4366 
  78   0.0000       0.730775        19.8854 
  79   0.0000       0.745398        20.2833 
  80   0.0000       0.746975        20.3262 
  81   0.0000       0.794185        21.6109 
  82   0.0000       0.831099        22.6153 
  83   0.0000       0.850048        23.1310 
  84   0.0000       0.918596        24.9963 
  85   0.0000       0.949526        25.8379 
  86   0.0000       0.950786        25.8722 
  87   0.0000       0.966038        26.2872 
  88   0.0000       0.970081        26.3972 
  89   0.0000       0.983231        26.7551 
  90   0.0000       0.997940        27.1553 
  91   0.0000       1.012420        27.5494 
  92   0.0000       1.025053        27.8931 
  93   0.0000       1.039621        28.2895 
  94   0.0000       1.051098        28.6018 
  95   0.0000       1.062337        28.9077 
  96   0.0000       1.077433        29.3185 
  97   0.0000       1.086181        29.5565 
  98   0.0000       1.089706        29.6524 
  99   0.0000       1.093177        29.7469 
 100   0.0000       1.094511        29.7831 
 101   0.0000       1.155289        31.4370 
 102   0.0000       1.199948        32.6522 
 103   0.0000       1.220317        33.2065 
 104   0.0000       1.256436        34.1894 
 105   0.0000       1.293860        35.2077 
 106   0.0000       1.305414        35.5221 
 107   0.0000       1.322725        35.9932 
 108   0.0000       1.331279        36.2259 
 109   0.0000       1.371518        37.3209 
 110   0.0000       1.405341        38.2413 
 111   0.0000       1.444194        39.2985 
 112   0.0000       1.493672        40.6449 
 113   0.0000       1.537390        41.8345 
 114   0.0000       1.538355        41.8608 
 115   0.0000       1.567109        42.6432 
 116   0.0000       1.568675        42.6858 
 117   0.0000       1.582476        43.0614 
 118   0.0000       1.601616        43.5822 
 119   0.0000       1.727921        47.0191 
 120   0.0000       1.814389        49.3720 
 121   0.0000       1.818581        49.4861 
 122   0.0000       1.823782        49.6276 
 123   0.0000       1.837281        49.9949 
 124   0.0000       1.874746        51.0144 
 125   0.0000       1.890215        51.4354 
 126   0.0000       1.914999        52.1098 
 127   0.0000       2.025666        55.1212 
 128   0.0000       2.055355        55.9291 
 129   0.0000       2.063512        56.1510 
 130   0.0000       2.076153        56.4950 
 131   0.0000       2.109781        57.4101 
 132   0.0000       2.136219        58.1295 
 133   0.0000       2.140602        58.2487 
 134   0.0000       2.194897        59.7262 
 135   0.0000       2.199398        59.8487 
 136   0.0000       2.204530        59.9883 
 137   0.0000       2.206126        60.0318 
 138   0.0000       2.255319        61.3704 
 139   0.0000       2.272299        61.8324 
 140   0.0000       2.298359        62.5415 
 141   0.0000       2.372426        64.5570 
 142   0.0000       2.373424        64.5842 
 143   0.0000       2.375984        64.6538 
 144   0.0000       2.398423        65.2644 
 145   0.0000       2.469446        67.1970 
 146   0.0000       2.495749        67.9128 
 147   0.0000       2.583091        70.2895 
 148   0.0000       2.589625        70.4673 
 149   0.0000       2.654103        72.2218 
 150   0.0000       2.728433        74.2444 
 151   0.0000       2.729669        74.2781 
 152   0.0000       2.744496        74.6815 
 153   0.0000       2.751560        74.8738 
 154   0.0000       2.790263        75.9269 
 155   0.0000       2.792430        75.9859 
 156   0.0000       2.840617        77.2971 
 157   0.0000       2.911530        79.2268 
 158   0.0000       3.016124        82.0729 
 159   0.0000       3.061702        83.3132 
 160   0.0000       3.168774        86.2267 
 161   0.0000       3.451761        93.9272 
 162   0.0000      13.248617       360.5132 
 163   0.0000      13.632240       370.9521 
 164   0.0000      13.644633       371.2893 
 165   0.0000      13.687054       372.4437 
 166   0.0000      14.038461       382.0059 
 167   0.0000      14.104436       383.8012 
 168   0.0000      14.118474       384.1832 
 169   0.0000      14.543429       395.7468 
 170   0.0000      19.220678       523.0212 
 171   0.0000      25.742521       700.4896 

                    ********************************
                    * MULLIKEN POPULATION ANALYSIS *
                    ********************************

-----------------------
MULLIKEN ATOMIC CHARGES
-----------------------
   0 C :   -0.261211
   1 H :    0.258089
   2 C :   -0.221889
   3 H :    0.221190
   4 C :   -0.222017
   5 H :    0.219663
   6 C :   -0.221836
   7 H :    0.219775
   8 C :   -0.221702
   9 H :    0.221769
  10 C :   -0.261772
  11 H :    0.259738
  12 C :    0.499668
  13 O :   -0.432305
  14 N :   -0.806182
  15 H :    0.408946
  16 H :    0.358106
  17 C :   -0.744359
  18 H :    0.255364
  19 H :    0.209908
  20 H :    0.261058
Sum of atomic charges:   -0.0000000

--------------------------------
MULLIKEN REDUCED ORBITAL CHARGES
--------------------------------
  0 C s       :     3.262754  s :     3.262754
      pz      :     1.003565  p :     2.958840
      px      :     0.982335
      py      :     0.972940
      dz2     :     0.004790  d :     0.039616
      dxz     :     0.009878
      dyz     :     0.006097
      dx2y2   :     0.008849
      dxy     :     0.010002
  1 H s       :     0.741911  s :     0.741911
  2 C s       :     3.248132  s :     3.248132
      pz      :     0.946747  p :     2.934169
      px      :     1.036645
      py      :     0.950777
      dz2     :     0.008112  d :     0.039588
      dxz     :     0.006289
      dyz     :     0.006155
      dx2y2   :     0.010828
      dxy     :     0.008204
  3 H s       :     0.778810  s :     0.778810
  4 C s       :     3.246564  s :     3.246564
      pz      :     0.996353  p :     2.935861
      px      :     0.919687
      py      :     1.019821
      dz2     :     0.004850  d :     0.039593
      dxz     :     0.009069
      dyz     :     0.006798
      dx2y2   :     0.009053
      dxy     :     0.009823
  5 H s       :     0.780337  s :     0.780337
  6 C s       :     3.246581  s :     3.246581
      pz      :     1.001337  p :     2.935664
      px      :     0.957414
      py      :     0.976914
      dz2     :     0.004665  d :     0.039591
      dxz     :     0.009906
      dyz     :     0.006101
      dx2y2   :     0.008682
      dxy     :     0.010237
  7 H s       :     0.780225  s :     0.780225
  8 C s       :     3.248360  s :     3.248360
      pz      :     0.946207  p :     2.933754
      px      :     1.042044
      py      :     0.945503
      dz2     :     0.008101  d :     0.039587
      dxz     :     0.006240
      dyz     :     0.006215
      dx2y2   :     0.011000
      dxy     :     0.008031
  9 H s       :     0.778231  s :     0.778231
 10 C s       :     3.263324  s :     3.263324
      pz      :     0.996203  p :     2.958836
      px      :     0.930776
      py      :     1.031857
      dz2     :     0.004942  d :     0.039612
      dxz     :     0.009035
      dyz     :     0.006846
      dx2y2   :     0.008958
      dxy     :     0.009831
 11 H s       :     0.740262  s :     0.740262
 12 C s       :     2.984704  s :     2.984704
      pz      :     0.869569  p :     2.392003
      px      :     0.750180
      py      :     0.772255
      dz2     :     0.029762  d :     0.123624
      dxz     :     0.010018
      dyz     :     0.036085
      dx2y2   :     0.021519
      dxy     :     0.026241
 13 O s       :     3.762846  s :     3.762846
      pz      :     1.697360  p :     4.640610
      px      :     1.465783
      py      :     1.477467
      dz2     :     0.003834  d :     0.028850
      dxz     :     0.002777
      dyz     :     0.007510
      dx2y2   :     0.006692
      dxy     :     0.008036
 14 N s       :     3.563928  s :     3.563928
      pz      :     1.275612  p :     4.215808
      px      :     1.723054
      py      :     1.217143
      dz2     :     0.009395  d :     0.026446
      dxz     :     0.001065
      dyz     :     0.008007
      dx2y2   :     0.005330
      dxy     :     0.002649
 15 H s       :     0.591054  s :     0.591054
 16 H s       :     0.641894  s :     0.641894
 17 C s       :     3.401427  s :     3.401427
      pz      :     0.975291  p :     3.309043
      px      :     1.172823
      py      :     1.160929
      dz2     :     0.009913  d :     0.033889
      dxz     :     0.004545
      dyz     :     0.005683
      dx2y2   :     0.007437
      dxy     :     0.006311
 18 H s       :     0.744636  s :     0.744636
 19 H s       :     0.790092  s :     0.790092
 20 H s       :     0.738942  s :     0.738942


                     *******************************
                     * LOEWDIN POPULATION ANALYSIS *
                     *******************************

----------------------
LOEWDIN ATOMIC CHARGES
----------------------
   0 C :   -0.144931
   1 H :    0.149771
   2 C :   -0.140181
   3 H :    0.135975
   4 C :   -0.138692
   5 H :    0.135262
   6 C :   -0.138572
   7 H :    0.135321
   8 C :   -0.139656
   9 H :    0.136270
  10 C :   -0.144767
  11 H :    0.150389
  12 C :    0.101708
  13 O :   -0.286651
  14 N :   -0.373162
  15 H :    0.266554
  16 H :    0.249863
  17 C :   -0.393433
  18 H :    0.156025
  19 H :    0.126095
  20 H :    0.156810

-------------------------------
LOEWDIN REDUCED ORBITAL CHARGES
-------------------------------
  0 C s       :     2.898790  s :     2.898790
      pz      :     1.029749  p :     3.156906
      px      :     1.087976
      py      :     1.039181
      dz2     :     0.010218  d :     0.089236
      dxz     :     0.021273
      dyz     :     0.012278
      dx2y2   :     0.021635
      dxy     :     0.023832
  1 H s       :     0.850229  s :     0.850229
  2 C s       :     2.895349  s :     2.895349
      pz      :     1.032783  p :     3.155262
      px      :     1.076334
      py      :     1.046145
      dz2     :     0.016508  d :     0.089569
      dxz     :     0.015065
      dyz     :     0.015719
      dx2y2   :     0.023220
      dxy     :     0.019057
  3 H s       :     0.864025  s :     0.864025
  4 C s       :     2.894835  s :     2.894835
      pz      :     1.029208  p :     3.154379
      px      :     1.085685
      py      :     1.039486
      dz2     :     0.010447  d :     0.089478
      dxz     :     0.021606
      dyz     :     0.012129
      dx2y2   :     0.022483
      dxy     :     0.022814
  5 H s       :     0.864738  s :     0.864738
  6 C s       :     2.894849  s :     2.894849
      pz      :     1.028727  p :     3.154252
      px      :     1.082491
      py      :     1.043034
      dz2     :     0.010086  d :     0.089471
      dxz     :     0.021350
      dyz     :     0.012300
      dx2y2   :     0.021409
      dxy     :     0.024325
  7 H s       :     0.864679  s :     0.864679
  8 C s       :     2.895382  s :     2.895382
      pz      :     1.032406  p :     3.154713
      px      :     1.077997
      py      :     1.044310
      dz2     :     0.016475  d :     0.089561
      dxz     :     0.014933
      dyz     :     0.015881
      dx2y2   :     0.023579
      dxy     :     0.018694
  9 H s       :     0.863730  s :     0.863730
 10 C s       :     2.898911  s :     2.898911
      pz      :     1.029370  p :     3.156638
      px      :     1.086780
      py      :     1.040488
      dz2     :     0.010543  d :     0.089218
      dxz     :     0.021629
      dyz     :     0.012053
      dx2y2   :     0.022162
      dxy     :     0.022831
 11 H s       :     0.849611  s :     0.849611
 12 C s       :     2.831494  s :     2.831494
      pz      :     1.028205  p :     2.788084
      px      :     0.780698
      py      :     0.979181
      dz2     :     0.070252  d :     0.278713
      dxz     :     0.019546
      dyz     :     0.081809
      dx2y2   :     0.051222
      dxy     :     0.055885
 13 O s       :     3.523263  s :     3.523263
      pz      :     1.713081  p :     4.708523
      px      :     1.463950
      py      :     1.531492
      dz2     :     0.007881  d :     0.054865
      dxz     :     0.003914
      dyz     :     0.017849
      dx2y2   :     0.013420
      dxy     :     0.011801
 14 N s       :     3.153698  s :     3.153698
      pz      :     1.241604  p :     4.162755
      px      :     1.688601
      py      :     1.232550
      dz2     :     0.018364  d :     0.056709
      dxz     :     0.002239
      dyz     :     0.019916
      dx2y2   :     0.010272
      dxy     :     0.005918
 15 H s       :     0.733446  s :     0.733446
 16 H s       :     0.750137  s :     0.750137
 17 C s       :     2.963750  s :     2.963750
      pz      :     1.080502  p :     3.366385
      px      :     1.148747
      py      :     1.137136
      dz2     :     0.021308  d :     0.063299
      dxz     :     0.008967
      dyz     :     0.011273
      dx2y2   :     0.011757
      dxy     :     0.009993
 18 H s       :     0.843975  s :     0.843975
 19 H s       :     0.873905  s :     0.873905
 20 H s       :     0.843190  s :     0.843190


                      *****************************
                      * MAYER POPULATION ANALYSIS *
                      *****************************

  NA   - Mulliken gross atomic population
  ZA   - Total nuclear charge
  QA   - Mulliken gross atomic charge
  VA   - Mayer's total valence
  BVA  - Mayer's bonded valence
  FA   - Mayer's free valence

  ATOM       NA         ZA         QA         VA         BVA        FA
  0 C      6.2612     6.0000    -0.2612     3.8044     3.8044    -0.0000
  1 H      0.7419     1.0000     0.2581     0.9048     0.9048     0.0000
  2 C      6.2219     6.0000    -0.2219     3.8007     3.8007    -0.0000
  3 H      0.7788     1.0000     0.2212     0.9117     0.9117     0.0000
  4 C      6.2220     6.0000    -0.2220     3.8176     3.8176     0.0000
  5 H      0.7803     1.0000     0.2197     0.9118     0.9118     0.0000
  6 C      6.2218     6.0000    -0.2218     3.8173     3.8173     0.0000
  7 H      0.7802     1.0000     0.2198     0.9118     0.9118     0.0000
  8 C      6.2217     6.0000    -0.2217     3.8006     3.8006     0.0000
  9 H      0.7782     1.0000     0.2218     0.9116     0.9116     0.0000
 10 C      6.2618     6.0000    -0.2618     3.8040     3.8040     0.0000
 11 H      0.7403     1.0000     0.2597     0.9042     0.9042     0.0000
 12 C      5.5003     6.0000     0.4997     4.0639     4.0639    -0.0000
 13 O      8.4323     8.0000    -0.4323     2.1689     2.1689    -0.0000
 14 N      7.8062     7.0000    -0.8062     2.9020     2.9020     0.0000
 15 H      0.5911     1.0000     0.4089     0.8182     0.8182     0.0000
 16 H      0.6419     1.0000     0.3581     0.8506     0.8506    -0.0000
 17 C      6.7444     6.0000    -0.7444     3.6832     3.6832    -0.0000
 18 H      0.7446     1.0000     0.2554     0.8987     0.8987    -0.0000
 19 H      0.7901     1.0000     0.2099     0.9146     0.9146    -0.0000
 20 H      0.7389     1.0000     0.2611     0.9005     0.9005    -0.0000

  Mayer bond orders larger than 0.100000
B(  0-C ,  1-H ) :   0.9010 B(  0-C ,  2-C ) :   1.4123 B(  0-C , 10-C ) :   1.4279 
B(  2-C ,  3-H ) :   0.9206 B(  2-C ,  4-C ) :   1.4246 B(  4-C ,  5-H ) :   0.9205 
B(  4-C ,  6-C ) :   1.4267 B(  6-C ,  7-H ) :   0.9205 B(  6-C ,  8-C ) :   1.4244 
B(  8-C ,  9-H ) :   0.9204 B(  8-C , 10-C ) :   1.4122 B( 10-C , 11-H ) :   0.9003 
B( 12-C , 13-O ) :   1.9977 B( 12-C , 14-N ) :   1.1662 B( 12-C , 17-C ) :   0.9280 
B( 14-N , 15-H ) :   0.7847 B( 14-N , 16-H ) :   0.8331 B( 17-C , 18-H ) :   0.9090 
B( 17-C , 19-H ) :   0.9225 B( 17-C , 20-H ) :   0.9119 

-------
TIMINGS
-------

Total SCF time: 0 days 0 hours 1 min 53 sec 

Total time                  ....     113.963 sec
Sum of individual times     ....     108.035 sec  ( 94.8%)

Fock matrix formation       ....      94.732 sec  ( 83.1%)
  Split-RI-J                ....       9.599 sec  ( 10.1% of F)
  Chain of spheres X        ....      45.414 sec  ( 47.9% of F)
  XC integration            ....      24.281 sec  ( 25.6% of F)
    Basis function eval.    ....       4.540 sec  ( 18.7% of XC)
    Density eval.           ....       2.634 sec  ( 10.8% of XC)
    XC-Functional eval.     ....       1.719 sec  (  7.1% of XC)
    XC-Potential eval.      ....       1.716 sec  (  7.1% of XC)
Diagonalization             ....       1.043 sec  (  0.9%)
Density matrix formation    ....       0.109 sec  (  0.1%)
Population analysis         ....       0.968 sec  (  0.8%)
Initial guess               ....       0.019 sec  (  0.0%)
Orbital Transformation      ....       0.000 sec  (  0.0%)
Orbital Orthonormalization  ....       0.000 sec  (  0.0%)
DIIS solution               ....       1.693 sec  (  1.5%)
SOSCF solution              ....       0.968 sec  (  0.8%)
Grid generation             ....       8.503 sec  (  7.5%)

Maximum memory used throughout the entire SCF-calculation: 60.1 MB


-------------------------------------------------------------------------------
                          DFT DISPERSION CORRECTION                            
                                                                               
                              DFTD3 V3.1  Rev 1                                
                          USING Becke-Johnson damping                          
-------------------------------------------------------------------------------
The PBEh-3c composite method is recognized
Using three-body term ABC
Active option DFTDOPT                   ...         4   

molecular C6(AA) [au] = 4389.510963 


            DFT-D V3
 parameters
 s6 scaling factor         :     1.0000 
 a1 scaling factor         :     0.4860 
 s8 scaling factor         :     0.0000 
 a2 scaling factor         :     4.5000 
 Damping factor alpha9(ATM):    16.0000 
 ad hoc parameters k1-k3   :    16.0000     1.3333    -4.0000 

 Edisp/kcal,au: -6.825855906503  -0.010877692625 
 E6   /kcal   :  -6.851627049 
 E8   /kcal   :  -0.000000000 
 E6(ABC)      :   0.025771142 
 % E8         :   0.000000000 
 % E6(ABC)    :  -0.377551809 

-------------------------   ----------------
Dispersion correction           -0.010877693
-------------------------   ----------------

------------------   -----------------
gCP correction             0.030235360
------------------   -----------------

-------------------------   --------------------
FINAL SINGLE POINT ENERGY      -440.501677856132
-------------------------   --------------------


                            ***************************************
                            *     ORCA property calculations      *
                            ***************************************

                                    ---------------------
                                    Active property flags
                                    ---------------------
   (+) Dipole Moment


------------------------------------------------------------------------------
                       ORCA ELECTRIC PROPERTIES CALCULATION
------------------------------------------------------------------------------

Dipole Moment Calculation                       ... on
Quadrupole Moment Calculation                   ... off
Polarizability Calculation                      ... off
GBWName                                         ... pbeh-3c.gbw
Electron density                                ... pbeh-3c.scfp
The origin for moment calculation is the CENTER OF MASS  = ( 0.049384,  0.276274 -0.305604)

-------------
DIPOLE MOMENT
-------------
                                X             Y             Z
Electronic contribution:      0.24149       1.33015      -4.06221
Nuclear contribution   :     -0.49771      -2.70751       4.53001
                        -----------------------------------------
Total Dipole Moment    :     -0.25622      -1.37736       0.46780
                        -----------------------------------------
Magnitude (a.u.)       :      1.47702
Magnitude (Debye)      :      3.75430



--------------------
Rotational spectrum 
--------------------
 
Rotational constants in cm-1:     0.101234     0.018034     0.017768 
Rotational constants in MHz :  3034.933409   540.633457   532.672736 

 Dipole components along the rotational axes: 
x,y,z [a.u.] :     0.151766    -0.189392     1.456948 
x,y,z [Debye]:     0.385757    -0.481396     3.703267 

 

Timings for individual modules:

Sum of individual times         ...      118.509 sec (=   1.975 min)
GTO integral calculation        ...        3.388 sec (=   0.056 min)   2.9 %
SCF iterations                  ...      115.121 sec (=   1.919 min)  97.1 %
                             ****ORCA TERMINATED NORMALLY****
TOTAL RUN TIME: 0 days 0 hours 2 minutes 3 seconds 563 msec
