
                                 *****************
                                 * O   R   C   A *
                                 *****************

                                            #,                                       
                                            ###                                      
                                            ####                                     
                                            #####                                    
                                            ######                                   
                                           ########,                                 
                                     ,,################,,,,,                         
                               ,,#################################,,                 
                          ,,##########################################,,             
                       ,#########################################, ''#####,          
                    ,#############################################,,   '####,        
                  ,##################################################,,,,####,       
                ,###########''''           ''''###############################       
              ,#####''   ,,,,##########,,,,          '''####'''          '####       
            ,##' ,,,,###########################,,,                        '##       
           ' ,,###''''                  '''############,,,                           
         ,,##''                                '''############,,,,        ,,,,,,###''
      ,#''                                            '''#######################'''  
     '                                                          ''''####''''         
             ,#######,   #######,   ,#######,      ##                                
            ,#'     '#,  ##    ##  ,#'     '#,    #''#        ######   ,####,        
            ##       ##  ##   ,#'  ##            #'  '#       #        #'  '#        
            ##       ##  #######   ##           ,######,      #####,   #    #        
            '#,     ,#'  ##    ##  '#,     ,#' ,#      #,         ##   #,  ,#        
             '#######'   ##     ##  '#######'  #'      '#     #####' # '####'        



                  #######################################################
                  #                        -***-                        #
                  #          Department of theory and spectroscopy      #
                  #    Directorship and core code : Frank Neese         #
                  #        Max Planck Institute fuer Kohlenforschung    #
                  #                Kaiser Wilhelm Platz 1               #
                  #                 D-45470 Muelheim/Ruhr               #
                  #                      Germany                        #
                  #                                                     #
                  #                  All rights reserved                #
                  #                        -***-                        #
                  #######################################################


                         Program Version 5.0.3 -  RELEASE  -


 With contributions from (in alphabetic order):
   Daniel Aravena         : Magnetic Suceptibility
   Michael Atanasov       : Ab Initio Ligand Field Theory (pilot matlab implementation)
   Alexander A. Auer      : GIAO ZORA, VPT2 properties, NMR spectrum
   Ute Becker             : Parallelization
   Giovanni Bistoni       : ED, misc. LED, open-shell LED, HFLD
   Martin Brehm           : Molecular dynamics
   Dmytro Bykov           : SCF Hessian
   Vijay G. Chilkuri      : MRCI spin determinant printing, contributions to CSF-ICE
   Dipayan Datta          : RHF DLPNO-CCSD density
   Achintya Kumar Dutta   : EOM-CC, STEOM-CC
   Dmitry Ganyushin       : Spin-Orbit,Spin-Spin,Magnetic field MRCI
   Miquel Garcia          : C-PCM and meta-GGA Hessian, CC/C-PCM, Gaussian charge scheme
   Yang Guo               : DLPNO-NEVPT2, F12-NEVPT2, CIM, IAO-localization
   Andreas Hansen         : Spin unrestricted coupled pair/coupled cluster methods
   Benjamin Helmich-Paris : MC-RPA, TRAH-SCF, COSX integrals
   Lee Huntington         : MR-EOM, pCC
   Robert Izsak           : Overlap fitted RIJCOSX, COSX-SCS-MP3, EOM
   Marcus Kettner         : VPT2
   Christian Kollmar      : KDIIS, OOCD, Brueckner-CCSD(T), CCSD density, CASPT2, CASPT2-K
   Simone Kossmann        : Meta GGA functionals, TD-DFT gradient, OOMP2, MP2 Hessian
   Martin Krupicka        : Initial AUTO-CI
   Lucas Lang             : DCDCAS
   Marvin Lechner         : AUTO-CI (C++ implementation), FIC-MRCC
   Dagmar Lenk            : GEPOL surface, SMD
   Dimitrios Liakos       : Extrapolation schemes; Compound Job, initial MDCI parallelization
   Dimitrios Manganas     : Further ROCIS development; embedding schemes
   Dimitrios Pantazis     : SARC Basis sets
   Anastasios Papadopoulos: AUTO-CI, single reference methods and gradients
   Taras Petrenko         : DFT Hessian,TD-DFT gradient, ASA, ECA, R-Raman, ABS, FL, XAS/XES, NRVS
   Peter Pinski           : DLPNO-MP2, DLPNO-MP2 Gradient
   Christoph Reimann      : Effective Core Potentials
   Marius Retegan         : Local ZFS, SOC
   Christoph Riplinger    : Optimizer, TS searches, QM/MM, DLPNO-CCSD(T), (RO)-DLPNO pert. Triples
   Tobias Risthaus        : Range-separated hybrids, TD-DFT gradient, RPA, STAB
   Michael Roemelt        : Original ROCIS implementation
   Masaaki Saitow         : Open-shell DLPNO-CCSD energy and density
   Barbara Sandhoefer     : DKH picture change effects
   Avijit Sen             : IP-ROCIS
   Kantharuban Sivalingam : CASSCF convergence, NEVPT2, FIC-MRCI
   Bernardo de Souza      : ESD, SOC TD-DFT
   Georgi Stoychev        : AutoAux, RI-MP2 NMR, DLPNO-MP2 response
   Willem Van den Heuvel  : Paramagnetic NMR
   Boris Wezisla          : Elementary symmetry handling
   Frank Wennmohs         : Technical directorship


 We gratefully acknowledge several colleagues who have allowed us to
 interface, adapt or use parts of their codes:
   Stefan Grimme, W. Hujo, H. Kruse, P. Pracht,  : VdW corrections, initial TS optimization,
                  C. Bannwarth, S. Ehlert          DFT functionals, gCP, sTDA/sTD-DF
   Ed Valeev, F. Pavosevic, A. Kumar             : LibInt (2-el integral package), F12 methods
   Garnet Chan, S. Sharma, J. Yang, R. Olivares  : DMRG
   Ulf Ekstrom                                   : XCFun DFT Library
   Mihaly Kallay                                 : mrcc  (arbitrary order and MRCC methods)
   Jiri Pittner, Ondrej Demel                    : Mk-CCSD
   Frank Weinhold                                : gennbo (NPA and NBO analysis)
   Christopher J. Cramer and Donald G. Truhlar   : smd solvation model
   Lars Goerigk                                  : TD-DFT with DH, B97 family of functionals
   V. Asgeirsson, H. Jonsson                     : NEB implementation
   FAccTs GmbH                                   : IRC, NEB, NEB-TS, DLPNO-Multilevel, CI-OPT
                                                   MM, QMMM, 2- and 3-layer-ONIOM, Crystal-QMMM,
                                                   LR-CPCM, SF, NACMEs, symmetry and pop. for TD-DFT,
                                                   nearIR, NL-DFT gradient (VV10), updates on ESD,
                                                   ML-optimized integration grids
   S Lehtola, MJT Oliveira, MAL Marques          : LibXC Library
   Liviu Ungur et al                             : ANISO software


 Your calculation uses the libint2 library for the computation of 2-el integrals
 For citations please refer to: http://libint.valeyev.net

 Your ORCA version has been built with support for libXC version: 5.1.0
 For citations please refer to: https://tddft.org/programs/libxc/

 This ORCA versions uses:
   CBLAS   interface :  Fast vector & matrix operations
   LAPACKE interface :  Fast linear algebra routines
   SCALAPACK package :  Parallel linear algebra routines
   Shared memory     :  Shared parallel matrices
   BLAS/LAPACK       :  OpenBLAS 0.3.15  USE64BITINT DYNAMIC_ARCH NO_AFFINITY Haswell SINGLE_THREADED
        Core in use  :  Haswell
   Copyright (c) 2011-2014, The OpenBLAS Project




***************************************
The coordinates will be read from file: 2h.xyz
***************************************


Your calculation utilizes the geometrical counterpoise correction gCP
Please cite in your paper:
H.Kruse, S. Grimme J.Chem.Phys., 136, (2012), 154101 
   

Your calculation utilizes the atom-pairwise dispersion correction
with the Becke-Johnson damping scheme (D3BJ)
Cite in your paper:
S.Grimme, S.Ehrlich, L.Goerigk, J Comput Chem, (2011), 32, 1456–1465 
S.Grimme, J.Antony, S.Ehrlich and H.Krieg, J.Chem.Phys., 132, (2010), 154104 
   

Your calculation employs the composite approach PBEh-3c.
Please cite in your paper:
S. Grimme, J. G. Brandenburg, C. Bannwarth, A. Hansen J.Chem.Phys., 143, (2015), 054107 
   

================================================================================

----- Orbital basis set information -----
Your calculation utilizes the basis: def2-mSVP

----- AuxJ basis set information -----
Your calculation utilizes the auxiliary basis: def2/J
   F. Weigend, Phys. Chem. Chem. Phys. 8, 1057 (2006).

================================================================================
                                        WARNINGS
                       Please study these warnings very carefully!
================================================================================


INFO   : the flag for use of the SHARK integral package has been found!

================================================================================
                                       INPUT FILE
================================================================================
NAME = pbeh-3c.inp
|  1> ! PBEh-3c def2/J TightSCF DefGrid3
|  2> 
|  3> %maxcore 60000
|  4> 
|  5> %pal
|  6> nprocs 4
|  7> end
|  8> 
|  9> *xyzfile -1 1 2h.xyz
| 10> 
| 11>                          ****END OF INPUT****
================================================================================

                       ****************************
                       * Single Point Calculation *
                       ****************************

---------------------------------
CARTESIAN COORDINATES (ANGSTROEM)
---------------------------------
  H     -0.637688    5.379018    1.694885
  O     -0.395624    4.743736    1.002023
  C     -1.476014    4.688996    0.051872
  H     -1.688804    5.686887   -0.350996
  H     -2.386506    4.292287    0.521157
  C     -1.080818    3.761994   -1.080588
  H     -1.943797    3.628910   -1.738732
  O     -0.003962    4.364418   -1.870142
  C      1.143975    3.522348   -1.858016
  H      1.247638    2.975872   -2.798891
  N      2.340886    4.366308   -1.750566
  C      2.452532    5.235587   -0.689483
  H      1.604519    5.224356   -0.008669
  C      3.518893    6.053403   -0.519446
  H      3.572776    6.726061    0.326160
  C      4.592751    6.045156   -1.483692
  O      5.618076    6.735370   -1.453605
  N      4.379495    5.158443   -2.550251
  H      5.095959    5.130460   -3.271231
  C      3.309812    4.311087   -2.755812
  O      3.223768    3.582799   -3.742316
  C     -0.565748    2.391948   -0.623729
  H     -0.927758    2.114885    0.367773
  C      0.959301    2.551247   -0.674464
  H      1.303762    3.017416    0.250964
  O      1.672011    1.337735   -0.832477
  H      1.159144    0.815149   -1.479252
  O     -0.903385    1.367777   -1.587676
  P     -2.260231    0.474974   -1.258231
  O     -2.438836   -0.396673   -2.463561
  O     -3.338995    1.374773   -0.738254
  O     -1.791554   -0.420501    0.031403
  C     -0.746304   -1.388919   -0.172501
  H      0.157867   -0.901667   -0.554170
  H     -1.081096   -2.135736   -0.901808
  C     -0.404509   -2.041494    1.144662
  H     -0.075058   -1.291463    1.873349
  O     -1.569986   -2.727607    1.683857
  C     -1.183400   -3.929482    2.325456
  H     -1.514104   -3.933858    3.365484
  N     -1.866165   -5.077676    1.653334
  C     -2.481148   -4.961531    0.435012
  H     -2.456104   -3.966566    0.009768
  C     -3.092997   -6.006079   -0.177922
  H     -3.574787   -5.879680   -1.138170
  C     -3.117564   -7.299452    0.455980
  O     -3.637206   -8.331224    0.012658
  N     -2.475688   -7.324710    1.704396
  H     -2.465335   -8.213933    2.197935
  C     -1.845896   -6.282819    2.349721
  O     -1.303100   -6.398145    3.448312
  C      0.653825   -3.137672    1.009432
  H      0.530127   -3.688433    0.070685
  C      0.341518   -4.041752    2.218812
  H      0.669206   -5.076583    2.079150
  O      0.914319   -3.475955    3.395536
  H      1.726744   -3.020122    3.092231
  O      1.955098   -2.556708    1.094758
  H      2.586165   -3.152959    0.657887

----------------------------
CARTESIAN COORDINATES (A.U.)
----------------------------
  NO LB      ZA    FRAG     MASS         X           Y           Z
   0 H     1.0000    0     1.008   -1.205055   10.164872    3.202869
   1 O     8.0000    0    15.999   -0.747620    8.964361    1.893549
   2 C     6.0000    0    12.011   -2.789262    8.860918    0.098024
   3 H     1.0000    0     1.008   -3.191377   10.746659   -0.663287
   4 H     1.0000    0     1.008   -4.509843    8.111246    0.984844
   5 C     6.0000    0    12.011   -2.042451    7.109138   -2.042016
   6 H     1.0000    0     1.008   -3.673244    6.857646   -3.285728
   7 O     8.0000    0    15.999   -0.007487    8.247554   -3.534055
   8 C     6.0000    0    12.011    2.161800    6.656273   -3.511142
   9 H     1.0000    0     1.008    2.357693    5.623583   -5.289138
  10 N     7.0000    0    14.007    4.423634    8.251126   -3.308091
  11 C     6.0000    0    12.011    4.634613    9.893826   -1.302934
  12 H     1.0000    0     1.008    3.032101    9.872602   -0.016382
  13 C     6.0000    0    12.011    6.649743   11.439273   -0.981611
  14 H     1.0000    0     1.008    6.751568   12.710413    0.616353
  15 C     6.0000    0    12.011    8.679041   11.423689   -2.803771
  16 O     8.0000    0    15.999   10.616626   12.728005   -2.746915
  17 N     7.0000    0    14.007    8.276046    9.748045   -4.819276
  18 H     1.0000    0     1.008    9.629968    9.695165   -6.181730
  19 C     6.0000    0    12.011    6.254638    8.146775   -5.207730
  20 O     8.0000    0    15.999    6.092039    6.770508   -7.071951
  21 C     6.0000    0    12.011   -1.069109    4.520127   -1.178676
  22 H     1.0000    0     1.008   -1.753208    3.996553    0.694991
  23 C     6.0000    0    12.011    1.812816    4.821158   -1.274552
  24 H     1.0000    0     1.008    2.463754    5.702090    0.474253
  25 O     8.0000    0    15.999    3.159644    2.527952   -1.573154
  26 H     1.0000    0     1.008    2.190464    1.540409   -2.795381
  27 O     8.0000    0    15.999   -1.707151    2.584723   -3.000273
  28 P    15.0000    0    30.974   -4.271218    0.897571   -2.377711
  29 O     8.0000    0    15.999   -4.608732   -0.749604   -4.655456
  30 O     8.0000    0    15.999   -6.309786    2.597945   -1.395097
  31 O     8.0000    0    15.999   -3.385547   -0.794631    0.059344
  32 C     6.0000    0    12.011   -1.410310   -2.624676   -0.325979
  33 H     1.0000    0     1.008    0.298326   -1.703904   -1.047229
  34 H     1.0000    0     1.008   -2.042975   -4.035957   -1.704171
  35 C     6.0000    0    12.011   -0.764411   -3.857864    2.163098
  36 H     1.0000    0     1.008   -0.141839   -2.440512    3.540117
  37 O     8.0000    0    15.999   -2.966844   -5.154431    3.182029
  38 C     6.0000    0    12.011   -2.236303   -7.425644    4.394475
  39 H     1.0000    0     1.008   -2.861241   -7.433914    6.359843
  40 N     7.0000    0    14.007   -3.526541   -9.595418    3.124348
  41 C     6.0000    0    12.011   -4.688691   -9.375935    0.822053
  42 H     1.0000    0     1.008   -4.641364   -7.495723    0.018458
  43 C     6.0000    0    12.011   -5.844917  -11.349845   -0.336224
  44 H     1.0000    0     1.008   -6.755369  -11.110986   -2.150830
  45 C     6.0000    0    12.011   -5.891343  -13.793965    0.861677
  46 O     8.0000    0    15.999   -6.873323  -15.743732    0.023920
  47 N     7.0000    0    14.007   -4.678372  -13.841695    3.220841
  48 H     1.0000    0     1.008   -4.658809  -15.522083    4.153495
  49 C     6.0000    0    12.011   -3.488239  -11.872807    4.440329
  50 O     8.0000    0    15.999   -2.462503  -12.090741    6.516366
  51 C     6.0000    0    12.011    1.235550   -5.929341    1.907550
  52 H     1.0000    0     1.008    1.001796   -6.970129    0.133575
  53 C     6.0000    0    12.011    0.645376   -7.637804    4.192947
  54 H     1.0000    0     1.008    1.264616   -9.593352    3.929024
  55 O     8.0000    0    15.999    1.727813   -6.568602    6.416632
  56 H     1.0000    0     1.008    3.263073   -5.707203    5.843469
  57 O     8.0000    0    15.999    3.694600   -4.831478    2.068792
  58 H     1.0000    0     1.008    4.887144   -5.958229    1.243226

--------------------------------
INTERNAL COORDINATES (ANGSTROEM)
--------------------------------
 H      0   0   0     0.000000000000     0.00000000     0.00000000
 O      1   0   0     0.970689059857     0.00000000     0.00000000
 C      2   1   0     1.439800947985   107.98677701     0.00000000
 H      3   2   1     1.096981798040   110.69096434    56.53190069
 H      3   2   1     1.098454878190   110.71823140   295.60980538
 C      3   2   1     1.515908283838   108.70041598   176.73512808
 H      6   3   2     1.093433676631   108.56192478   173.40756875
 O      6   3   2     1.464898714693   110.04807460   291.17856294
 C      8   6   3     1.423723467993   110.17510038   120.48191033
 H      9   8   6     1.092990372379   111.39879555   103.38032514
 N      9   8   6     1.468471593593   108.53528837   219.52758592
 C     11   9   8     1.376230172557   119.04867562    56.62568635
 H     12  11   9     1.087547558532   114.38573416   359.28414541
 C     12  11   9     1.354570240860   122.81956709   180.35906439
 H     14  12  11     1.081860500556   120.84446946   179.88549255
 C     14  12  11     1.443263315759   119.89576047     0.68608668
 O     16  14  12     1.236363136215   126.69799917   179.93398536
 N     16  14  12     1.403312437890   113.47301161     1.05746944
 H     18  16  14     1.016816606702   116.69333451   178.51617832
 C     18  16  14     1.380032502619   128.24143242   358.76298649
 O     20  18  16     1.229226281051   122.51945851   179.25313948
 C      6   3   2     1.533311345383   114.29203651    50.71745880
 H     22   6   3     1.091279368810   112.71413224    23.87572363
 C     22   6   3     1.534185526331   103.37300527   261.88286070
 H     24  22   6     1.091963303289   109.26109128    83.79511915
 O     24  22   6     1.416169629492   114.51837719   204.49586850
 H     26  24  22     0.976957471208   105.54736949    40.48060161
 O     22   6   3     1.446416685813   110.83612869   148.16110787
 P     28  22   6     1.657305548857   116.10888799   262.53587659
 O     29  28  22     1.498162160115   104.54257160   174.69510735
 O     29  28  22     1.497913804427   109.57349718    41.26031544
 O     29  28  22     1.638502145502   102.51475288   289.99109650
 C     32  29  28     1.439429794196   117.63918200   294.65422262
 H     33  32  29     1.095723849109   110.44930318    57.72546897
 H     33  32  29     1.096226118986   109.31795807   297.97298199
 C     33  32  29     1.509170543178   109.37435093   176.48682999
 H     36  33  32     1.096388813121   110.62897625   300.87497697
 O     36  33  32     1.455960452495   110.22425708    60.83574928
 C     38  36  33     1.416191774636   110.43809683   143.13658548
 H     39  38  36     1.091349118839   110.63578142   122.74340600
 N     39  38  36     1.495415329651   108.86612778   239.65713488
 C     41  39  38     1.369672580629   122.66198876    14.28041534
 H     42  41  39     1.082319603804   114.64840702   358.46658734
 C     42  41  39     1.356881809128   122.61505121   179.56750281
 H     44  42  41     1.081746179378   120.78837128   179.64882134
 C     44  42  41     1.440572101654   120.00469283     0.25464074
 O     46  44  42     1.237382745262   126.73686175   179.97045527
 N     46  44  42     1.403989016957   113.55508549     0.31181297
 H     48  46  44     1.017057477610   116.86392318   179.85015163
 C     48  46  44     1.377903699121   127.71984843   359.58060046
 O     50  48  46     1.230784599733   123.28185468   180.20370327
 C     36  33  32     1.529694648018   112.91702862   177.17598073
 H     52  36  33     1.095392982829   110.97358465   323.96761700
 C     39  38  36     1.532760566592   107.59100932     0.64762196
 H     54  39  38     1.094422474246   112.08748707   216.20418649
 O     54  39  38     1.425800130991   108.25193637    93.30168606
 H     56  54  39     0.979699848798   105.20509064   217.16292223
 O     52  36  33     1.427624100478   109.49514968    86.87585301
 H     58  52  36     0.971914181261   108.38009404   203.01832532

---------------------------
INTERNAL COORDINATES (A.U.)
---------------------------
 H      0   0   0     0.000000000000     0.00000000     0.00000000
 O      1   0   0     1.834336484324     0.00000000     0.00000000
 C      2   1   0     2.720829479051   107.98677701     0.00000000
 H      3   2   1     2.072995172192   110.69096434    56.53190069
 H      3   2   1     2.075778890249   110.71823140   295.60980538
 C      3   2   1     2.864651500596   108.70041598   176.73512808
 H      6   3   2     2.066290194439   108.56192478   173.40756875
 O      6   3   2     2.768257384704   110.04807460   291.17856294
 C      8   6   3     2.690447444943   110.17510038   120.48191033
 H      9   8   6     2.065452470808   111.39879555   103.38032514
 N      9   8   6     2.775009147333   108.53528837   219.52758592
 C     11   9   8     2.600698123372   119.04867562    56.62568635
 H     12  11   9     2.055167043240   114.38573416   359.28414541
 C     12  11   9     2.559766784386   122.81956709   180.35906439
 H     14  12  11     2.044420061158   120.84446946   179.88549255
 C     14  12  11     2.727372405919   119.89576047     0.68608668
 O     16  14  12     2.336387729522   126.69799917   179.93398536
 N     16  14  12     2.651876187938   113.47301161     1.05746944
 H     18  16  14     1.921504915090   116.69333451   178.51617832
 C     18  16  14     2.607883485860   128.24143242   358.76298649
 O     20  18  16     2.322901027806   122.51945851   179.25313948
 C      6   3   2     2.897538520809   114.29203651    50.71745880
 H     22   6   3     2.062219142650   112.71413224    23.87572363
 C     22   6   3     2.899190483391   103.37300527   261.88286070
 H     24  22   6     2.063511591508   109.26109128    83.79511915
 O     24  22   6     2.676172758917   114.51837719   204.49586850
 H     26  24  22     1.846182065071   105.54736949    40.48060161
 O     22   6   3     2.733331411721   110.83612869   148.16110787
 P     28  22   6     3.131853607568   116.10888799   262.53587659
 O     29  28  22     2.831116186821   104.54257160   174.69510735
 O     29  28  22     2.830646862588   109.57349718    41.26031544
 O     29  28  22     3.096320324841   102.51475288   289.99109650
 C     32  29  28     2.720128100036   117.63918200   294.65422262
 H     33  32  29     2.070617993221   110.44930318    57.72546897
 H     33  32  29     2.071567145734   109.31795807   297.97298199
 C     33  32  29     2.851919015988   109.37435093   176.48682999
 H     36  33  32     2.071874593094   110.62897625   300.87497697
 O     36  33  32     2.751366517036   110.22425708    60.83574928
 C     38  36  33     2.676214607174   110.43809683   143.13658548
 H     39  38  36     2.062350951101   110.63578142   122.74340600
 N     39  38  36     2.825925429508   108.86612778   239.65713488
 C     41  39  38     2.588306070530   122.66198876    14.28041534
 H     42  41  39     2.045287640563   114.64840702   358.46658734
 C     42  41  39     2.564135015352   122.61505121   179.56750281
 H     44  42  41     2.044204025440   120.78837128   179.64882134
 C     44  42  41     2.722286748293   120.00469283     0.25464074
 O     46  44  42     2.338314511385   126.73686175   179.97045527
 N     46  44  42     2.653154737082   113.55508549     0.31181297
 H     48  46  44     1.921960095140   116.86392318   179.85015163
 C     48  46  44     2.603860630255   127.71984843   359.58060046
 O     50  48  46     2.325845823343   123.28185468   180.20370327
 C     36  33  32     2.890703953279   112.91702862   177.17598073
 H     52  36  33     2.069992746565   110.97358465   323.96761700
 C     39  38  36     2.896497699733   107.59100932     0.64762196
 H     54  39  38     2.068158751133   112.08748707   216.20418649
 O     54  39  38     2.694371769282   108.25193637    93.30168606
 H     56  54  39     1.851364407673   105.20509064   217.16292223
 O     52  36  33     2.697818572089   109.49514968    86.87585301
 H     58  52  36     1.836651628257   108.38009404   203.01832532

---------------------
BASIS SET INFORMATION
---------------------
There are 5 groups of distinct atoms

 Group   1 Type H   : 4s contracted to 2s pattern {31}
 Group   2 Type O   : 8s4p1d contracted to 4s2p1d pattern {5111/31/1}
 Group   3 Type C   : 8s4p1d contracted to 4s2p1d pattern {5111/31/1}
 Group   4 Type N   : 8s4p1d contracted to 4s2p1d pattern {5111/31/1}
 Group   5 Type P   : 10s7p1d contracted to 4s3p1d pattern {5311/511/1}

Atom   0H    basis set group =>   1
Atom   1O    basis set group =>   2
Atom   2C    basis set group =>   3
Atom   3H    basis set group =>   1
Atom   4H    basis set group =>   1
Atom   5C    basis set group =>   3
Atom   6H    basis set group =>   1
Atom   7O    basis set group =>   2
Atom   8C    basis set group =>   3
Atom   9H    basis set group =>   1
Atom  10N    basis set group =>   4
Atom  11C    basis set group =>   3
Atom  12H    basis set group =>   1
Atom  13C    basis set group =>   3
Atom  14H    basis set group =>   1
Atom  15C    basis set group =>   3
Atom  16O    basis set group =>   2
Atom  17N    basis set group =>   4
Atom  18H    basis set group =>   1
Atom  19C    basis set group =>   3
Atom  20O    basis set group =>   2
Atom  21C    basis set group =>   3
Atom  22H    basis set group =>   1
Atom  23C    basis set group =>   3
Atom  24H    basis set group =>   1
Atom  25O    basis set group =>   2
Atom  26H    basis set group =>   1
Atom  27O    basis set group =>   2
Atom  28P    basis set group =>   5
Atom  29O    basis set group =>   2
Atom  30O    basis set group =>   2
Atom  31O    basis set group =>   2
Atom  32C    basis set group =>   3
Atom  33H    basis set group =>   1
Atom  34H    basis set group =>   1
Atom  35C    basis set group =>   3
Atom  36H    basis set group =>   1
Atom  37O    basis set group =>   2
Atom  38C    basis set group =>   3
Atom  39H    basis set group =>   1
Atom  40N    basis set group =>   4
Atom  41C    basis set group =>   3
Atom  42H    basis set group =>   1
Atom  43C    basis set group =>   3
Atom  44H    basis set group =>   1
Atom  45C    basis set group =>   3
Atom  46O    basis set group =>   2
Atom  47N    basis set group =>   4
Atom  48H    basis set group =>   1
Atom  49C    basis set group =>   3
Atom  50O    basis set group =>   2
Atom  51C    basis set group =>   3
Atom  52H    basis set group =>   1
Atom  53C    basis set group =>   3
Atom  54H    basis set group =>   1
Atom  55O    basis set group =>   2
Atom  56H    basis set group =>   1
Atom  57O    basis set group =>   2
Atom  58H    basis set group =>   1
---------------------------------
AUXILIARY/J BASIS SET INFORMATION
---------------------------------
There are 5 groups of distinct atoms

 Group   1 Type H   : 5s2p1d contracted to 3s1p1d pattern {311/2/1}
 Group   2 Type O   : 12s5p4d2f1g contracted to 6s4p3d1f1g pattern {711111/2111/211/2/1}
 Group   3 Type C   : 12s5p4d2f1g contracted to 6s4p3d1f1g pattern {711111/2111/211/2/1}
 Group   4 Type N   : 12s5p4d2f1g contracted to 6s4p3d1f1g pattern {711111/2111/211/2/1}
 Group   5 Type P   : 14s5p5d2f1g contracted to 8s4p3d1f1g pattern {71111111/2111/311/2/1}

Atom   0H    basis set group =>   1
Atom   1O    basis set group =>   2
Atom   2C    basis set group =>   3
Atom   3H    basis set group =>   1
Atom   4H    basis set group =>   1
Atom   5C    basis set group =>   3
Atom   6H    basis set group =>   1
Atom   7O    basis set group =>   2
Atom   8C    basis set group =>   3
Atom   9H    basis set group =>   1
Atom  10N    basis set group =>   4
Atom  11C    basis set group =>   3
Atom  12H    basis set group =>   1
Atom  13C    basis set group =>   3
Atom  14H    basis set group =>   1
Atom  15C    basis set group =>   3
Atom  16O    basis set group =>   2
Atom  17N    basis set group =>   4
Atom  18H    basis set group =>   1
Atom  19C    basis set group =>   3
Atom  20O    basis set group =>   2
Atom  21C    basis set group =>   3
Atom  22H    basis set group =>   1
Atom  23C    basis set group =>   3
Atom  24H    basis set group =>   1
Atom  25O    basis set group =>   2
Atom  26H    basis set group =>   1
Atom  27O    basis set group =>   2
Atom  28P    basis set group =>   5
Atom  29O    basis set group =>   2
Atom  30O    basis set group =>   2
Atom  31O    basis set group =>   2
Atom  32C    basis set group =>   3
Atom  33H    basis set group =>   1
Atom  34H    basis set group =>   1
Atom  35C    basis set group =>   3
Atom  36H    basis set group =>   1
Atom  37O    basis set group =>   2
Atom  38C    basis set group =>   3
Atom  39H    basis set group =>   1
Atom  40N    basis set group =>   4
Atom  41C    basis set group =>   3
Atom  42H    basis set group =>   1
Atom  43C    basis set group =>   3
Atom  44H    basis set group =>   1
Atom  45C    basis set group =>   3
Atom  46O    basis set group =>   2
Atom  47N    basis set group =>   4
Atom  48H    basis set group =>   1
Atom  49C    basis set group =>   3
Atom  50O    basis set group =>   2
Atom  51C    basis set group =>   3
Atom  52H    basis set group =>   1
Atom  53C    basis set group =>   3
Atom  54H    basis set group =>   1
Atom  55O    basis set group =>   2
Atom  56H    basis set group =>   1
Atom  57O    basis set group =>   2
Atom  58H    basis set group =>   1


           ************************************************************
           *        Program running with 4 parallel MPI-processes     *
           *              working on a common directory               *
           ************************************************************
------------------------------------------------------------------------------
                           ORCA GTO INTEGRAL CALCULATION
                           -- RI-GTO INTEGRALS CHOSEN --
------------------------------------------------------------------------------
------------------------------------------------------------------------------
                   ___                                                        
                  /   \      - P O W E R E D   B Y -                         
                 /     \                                                     
                 |  |  |   _    _      __       _____    __    __             
                 |  |  |  | |  | |    /  \     |  _  \  |  |  /  |          
                  \  \/   | |  | |   /    \    | | | |  |  | /  /          
                 / \  \   | |__| |  /  /\  \   | |_| |  |  |/  /          
                |  |  |   |  __  | /  /__\  \  |    /   |      \           
                |  |  |   | |  | | |   __   |  |    \   |  |\   \          
                \     /   | |  | | |  |  |  |  | |\  \  |  | \   \       
                 \___/    |_|  |_| |__|  |__|  |_| \__\ |__|  \__/        
                                                                              
                      - O R C A' S   B I G   F R I E N D -                    
                                      &                                       
                       - I N T E G R A L  F E E D E R -                       
                                                                              
 v1 FN, 2020, v2 2021                                                         
------------------------------------------------------------------------------


Reading SHARK input file pbeh-3c.SHARKINP.tmp ... ok
----------------------
SHARK INTEGRAL PACKAGE
----------------------

Number of atoms                             ...     59
Number of basis functions                   ...    602
Number of shells                            ...    304
Maximum angular momentum                    ...      2
Integral batch strategy                     ... SHARK/LIBINT Hybrid
RI-J (if used) integral strategy            ... SPLIT-RIJ (Revised 2003 algorithm where possible)
Printlevel                                  ...      1
Contraction scheme used                     ... SEGMENTED contraction
Coulomb Range Separation                    ... NOT USED
Exchange Range Separation                   ... NOT USED
Finite Nucleus Model                        ... NOT USED
Auxiliary Coulomb fitting basis             ... AVAILABLE
   # of basis functions in Aux-J            ...   2057
   # of shells in Aux-J                     ...    667
   Maximum angular momentum in Aux-J        ...      4
Auxiliary J/K fitting basis                 ... NOT available
Auxiliary Correlation fitting basis         ... NOT available
Auxiliary 'external' fitting basis          ... NOT available
Integral threshold                          ...     2.500000e-11
Primitive cut-off                           ...     2.500000e-12
Primitive pair pre-selection threshold      ...     2.500000e-12

Calculating pre-screening integrals         ... done (  0.1 sec) Dimension = 304
Organizing shell pair data                  ... done (  0.4 sec)
Shell pair information
Total number of shell pairs                 ...     46360
Shell pairs after pre-screening             ...     20320
Total number of primitive shell pairs       ...    165582
Primitive shell pairs kept                  ...     44631
          la=0 lb=0:   7216 shell pairs
          la=1 lb=0:   7081 shell pairs
          la=1 lb=1:   1666 shell pairs
          la=2 lb=0:   2717 shell pairs
          la=2 lb=1:   1362 shell pairs
          la=2 lb=2:    278 shell pairs

Calculating one electron integrals          ... done (  0.1 sec)
Calculating RI/J V-Matrix + Cholesky decomp.... done (  1.2 sec)
Calculating Nuclear repulsion               ... done (  0.0 sec) ENN=   4487.003707676859 Eh

SHARK setup successfully completed in   3.0 seconds

Maximum memory used throughout the entire GTOINT-calculation: 52.0 MB


           ************************************************************
           *        Program running with 4 parallel MPI-processes     *
           *              working on a common directory               *
           ************************************************************
-------------------------------------------------------------------------------
                                 ORCA SCF
-------------------------------------------------------------------------------

------------
SCF SETTINGS
------------
Hamiltonian:
 Density Functional     Method          .... DFT(GTOs)
 Exchange Functional    Exchange        .... PBE
   PBE kappa parameter   XKappa         ....  1.024500
   PBE mue parameter    XMuePBE         ....  0.123457
 Correlation Functional Correlation     .... PBE
   PBE beta parameter  CBetaPBE         ....  0.030000
 LDA part of GGA corr.  LDAOpt          .... PW91-LDA
 Gradients option       PostSCFGGA      .... off
 Hybrid DFT is turned on
   Fraction HF Exchange ScalHFX         ....  0.420000
   Scaling of DF-GGA-X  ScalDFX         ....  0.580000
   Scaling of DF-GGA-C  ScalDFC         ....  1.000000
   Scaling of DF-LDA-C  ScalLDAC        ....  1.000000
   Perturbative correction              ....  0.000000
   Density functional embedding theory  .... OFF
 RI-approximation to the Coulomb term is turned on
   Number of AuxJ basis functions       .... 2057
   RIJ-ON(X) (HFX calculated with O(N)) .... on
   Number of AuxJ basis functions       .... 2057
   RIJ-COSX (HFX calculated with COS-X)).... on


General Settings:
 Integral files         IntName         .... pbeh-3c
 Hartree-Fock type      HFTyp           .... RHF
 Total Charge           Charge          ....   -1
 Multiplicity           Mult            ....    1
 Number of Electrons    NEL             ....  286
 Basis Dimension        Dim             ....  602
 Nuclear Repulsion      ENuc            ....   4487.0037076769 Eh

Convergence Acceleration:
 DIIS                   CNVDIIS         .... on
   Start iteration      DIISMaxIt       ....    12
   Startup error        DIISStart       ....  0.200000
   # of expansion vecs  DIISMaxEq       ....     5
   Bias factor          DIISBfac        ....   1.050
   Max. coefficient     DIISMaxC        ....  10.000
 Trust-Rad. Augm. Hess. CNVTRAH         .... auto
   Auto Start mean grad. ratio tolernc. ....  1.125000
   Auto Start start iteration           ....    20
   Auto Start num. interpolation iter.  ....    10
   Max. Number of Micro iterations      ....    16
   Max. Number of Macro iterations      .... Maxiter - #DIIS iter
   Number of Davidson start vectors     ....     2
   Converg. threshold I  (grad. norm)   ....   1.000e-05
   Converg. threshold II (energy diff.) ....   1.000e-08
   Grad. Scal. Fac. for Micro threshold ....   0.100
   Minimum threshold for Micro iter.    ....   0.010
   NR start threshold (gradient norm)   ....   0.001
   Initial trust radius                 ....   0.400
   Minimum AH scaling param. (alpha)    ....   1.000
   Maximum AH scaling param. (alpha)    .... 1000.000
   Orbital update algorithm             .... Taylor
   White noise on init. David. guess    .... on
   Maximum white noise                  ....   0.010
   Quad. conv. algorithm                .... NR
   COSX micro iterations for RIJONX calc.... off
 SOSCF                  CNVSOSCF        .... on
   Start iteration      SOSCFMaxIt      ....   150
   Startup grad/error   SOSCFStart      ....  0.003300
 Level Shifting         CNVShift        .... on
   Level shift para.    LevelShift      ....    0.2500
   Turn off err/grad.   ShiftErr        ....    0.0010
 Zerner damping         CNVZerner       .... off
 Static damping         CNVDamp         .... on
   Fraction old density DampFac         ....    0.7000
   Max. Damping (<1)    DampMax         ....    0.9800
   Min. Damping (>=0)   DampMin         ....    0.0000
   Turn off err/grad.   DampErr         ....    0.1000
 Fernandez-Rico         CNVRico         .... off

SCF Procedure:
 Maximum # iterations   MaxIter         ....   125
 SCF integral mode      SCFMode         .... Direct
   Integral package                     .... SHARK and LIBINT hybrid scheme
 Reset frequency        DirectResetFreq ....    20
 Integral Threshold     Thresh          ....  2.500e-11 Eh
 Primitive CutOff       TCut            ....  2.500e-12 Eh

Convergence Tolerance:
 Convergence Check Mode ConvCheckMode   .... Total+1el-Energy
 Convergence forced     ConvForced      .... 0
 Energy Change          TolE            ....  1.000e-08 Eh
 1-El. energy change                    ....  1.000e-05 Eh
 Orbital Gradient       TolG            ....  1.000e-05
 Orbital Rotation angle TolX            ....  1.000e-05
 DIIS Error             TolErr          ....  5.000e-07


Diagonalization of the overlap matrix:
Smallest eigenvalue                        ... 1.586e-03
Time for diagonalization                   ...    0.097 sec
Threshold for overlap eigenvalues          ... 1.000e-08
Number of eigenvalues below threshold      ... 0
Time for construction of square roots      ...    0.076 sec
Total time needed                          ...    0.175 sec

--------------------------------
INITIAL GUESS: MINIMAL BASIS EHT
--------------------------------
The minimal basis has 211 functions
EHT matrix was diagonalized
Basis set overlap was calculated now projecting the orbitals
Using GuessMode=FMatrix for the initial guess
C*T matrix was formed
Effective Fockian was calculated
Effective Fockian was diagonalized
Initial density was built
                      ------------------
                      INITIAL GUESS DONE
                      ------------------
-------------------
DFT GRID GENERATION
-------------------

General Integration Accuracy     IntAcc      ... 4.959
Radial Grid Type                 RadialGrid  ... OptM3 with GC (2021)
Angular Grid (max. ang.)         AngularGrid ... 6 (Lebedev-590)
Angular grid pruning method      GridPruning ... 4 (adaptive)
Weight generation scheme         WeightScheme... Becke
Basis function cutoff            BFCut       ... 1.0000e-11
Integration weight cutoff        WCut        ... 1.0000e-14
Angular grids for H and He will be reduced by one unit
Partially contracted basis set               ... off
Rotationally invariant grid construction     ... off

Total number of grid points                  ...   712016
Total number of batches                      ...    11157
Average number of points per batch           ...       63
Average number of grid points per atom       ...    12068
Time for grid setup =   16.695 sec

--------------------
COSX GRID GENERATION
--------------------

GRIDX 1
-------
General Integration Accuracy     IntAcc      ... 4.020
Radial Grid Type                 RadialGrid  ... OptM3 with GC (2021)
Angular Grid (max. ang.)         AngularGrid ... 2 (Lebedev-110)
Angular grid pruning method      GridPruning ... 4 (adaptive)
Weight generation scheme         WeightScheme... Becke
Basis function cutoff            BFCut       ... 1.0000e-11
Integration weight cutoff        WCut        ... 1.0000e-14
Angular grids for H and He will be reduced by one unit
Partially contracted basis set               ... on
Rotationally invariant grid construction     ... off

Total number of grid points                  ...    81076
Total number of batches                      ...     1297
Average number of points per batch           ...       62
Average number of grid points per atom       ...     1374
UseSFitting                                  ... on

GRIDX 2
-------
General Integration Accuracy     IntAcc      ... 4.338
Radial Grid Type                 RadialGrid  ... OptM3 with GC (2021)
Angular Grid (max. ang.)         AngularGrid ... 3 (Lebedev-194)
Angular grid pruning method      GridPruning ... 4 (adaptive)
Weight generation scheme         WeightScheme... Becke
Basis function cutoff            BFCut       ... 1.0000e-11
Integration weight cutoff        WCut        ... 1.0000e-14
Angular grids for H and He will be reduced by one unit
Partially contracted basis set               ... on
Rotationally invariant grid construction     ... off

Total number of grid points                  ...   177861
Total number of batches                      ...     2806
Average number of points per batch           ...       63
Average number of grid points per atom       ...     3015
UseSFitting                                  ... on

GRIDX 3
-------
General Integration Accuracy     IntAcc      ... 4.871
Radial Grid Type                 RadialGrid  ... OptM3 with GC (2021)
Angular Grid (max. ang.)         AngularGrid ... 4 (Lebedev-302)
Angular grid pruning method      GridPruning ... 4 (adaptive)
Weight generation scheme         WeightScheme... Becke
Basis function cutoff            BFCut       ... 1.0000e-11
Integration weight cutoff        WCut        ... 1.0000e-14
Angular grids for H and He will be reduced by one unit
Partially contracted basis set               ... on
Rotationally invariant grid construction     ... off

Total number of grid points                  ...   327332
Total number of batches                      ...     5145
Average number of points per batch           ...       63
Average number of grid points per atom       ...     5548
UseSFitting                                  ... on

Time for X-Grid setup             =   12.112 sec

--------------
SCF ITERATIONS
--------------
ITER       Energy         Delta-E        Max-DP      RMS-DP      [F,P]     Damp
               ***  Starting incremental Fock matrix formation  ***
  0  -2300.4951396646   0.000000000000 0.46412958  0.00451696  0.7200537 0.7000
  1  -2303.5817828658  -3.086643201289 0.16687655  0.00234868  0.3453537 0.7000
  2  -2304.9998890669  -1.418106201010 0.07926790  0.00130425  0.2438002 0.7000
                               ***Turning on DIIS***
  3  -2306.0027841984  -1.002895131516 0.08027281  0.00090533  0.1682471 0.7000
  4  -2306.7270662044  -0.724282006027 0.05362960  0.00064777  0.1144732 0.7000
  5  -2307.2372641716  -0.510197967183 0.11790473  0.00155518  0.0791167 0.0000
  6  -2308.4445921865  -1.207328014940 0.00620153  0.00008417  0.0044690 0.0000
                      *** Initiating the SOSCF procedure ***
                           *** Shutting down DIIS ***
                      *** Re-Reading the Fockian *** 
                      *** Removing any level shift *** 
ITER      Energy       Delta-E        Grad      Rot      Max-DP    RMS-DP
  7  -2308.44524735  -0.0006551630  0.000983  0.000983  0.003131  0.000040
               *** Restarting incremental Fock matrix formation ***
  8  -2308.44541006  -0.0001627115  0.001039  0.003253  0.002029  0.000030
  9  -2308.44544875  -0.0000386872  0.000389  0.001163  0.003226  0.000031
 10  -2308.44545625  -0.0000075027  0.000221  0.000669  0.001418  0.000014
 11  -2308.44546365  -0.0000074035  0.000022  0.000039  0.000121  0.000002
 12  -2308.44546366  -0.0000000037  0.000032  0.000034  0.000082  0.000001
 13  -2308.44546377  -0.0000001106  0.000003  0.000009  0.000019  0.000000
 14  -2308.44546378  -0.0000000075  0.000003  0.000003  0.000010  0.000000
                  ***Gradient check signals convergence***
              ***Rediagonalizing the Fockian in SOSCF/NRSCF***

               *****************************************************
               *                     SUCCESS                       *
               *           SCF CONVERGED AFTER  15 CYCLES          *
               *****************************************************

Old exchange energy                            =   -111.708946778 Eh
New exchange energy                            =   -111.708957993 Eh
Exchange energy change after final integration =     -0.000011216 Eh
Total energy after final integration           =  -2308.445475014 Eh
Final COS-X integration done in                =   106.165 sec

----------------
TOTAL SCF ENERGY
----------------

Total Energy       :        -2308.44547501 Eh          -62815.99488 eV

Components:
Nuclear Repulsion  :         4487.00370768 Eh          122097.57821 eV
Electronic Energy  :        -6795.44918269 Eh         -184913.57309 eV
One Electron Energy:       -12131.91076683 Eh         -330126.07525 eV
Two Electron Energy:         5336.46158414 Eh          145212.50217 eV
Max COSX asymmetry :            0.00000450 Eh               0.00012 eV

Virial components:
Potential Energy   :        -4601.40851522 Eh         -125210.69129 eV
Kinetic Energy     :         2292.96304021 Eh           62394.69641 eV
Virial Ratio       :            2.00675215


DFT components:
N(Alpha)           :      142.999992419907 electrons
N(Beta)            :      142.999992419907 electrons
N(Total)           :      285.999984839813 electrons
E(X)               :     -148.796951345650 Eh       
E(C)               :      -13.009830398077 Eh       
E(XC)              :     -161.806781743727 Eh       
DFET-embed. en.    :        0.000000000000 Eh       

---------------
SCF CONVERGENCE
---------------

  Last Energy change         ...   -2.1902e-08  Tolerance :   1.0000e-08
  Last MAX-Density change    ...    5.3291e-15  Tolerance :   1.0000e-07
  Last RMS-Density change    ...    3.3955e-17  Tolerance :   5.0000e-09
  Last Orbital Gradient      ...    4.8929e-07  Tolerance :   1.0000e-05
  Last Orbital Rotation      ...    1.3206e-06  Tolerance :   1.0000e-05

             **** THE GBW FILE WAS UPDATED (pbeh-3c.gbw) ****
             **** DENSITY pbeh-3c.scfp WAS UPDATED ****
             **** ENERGY FILE WAS UPDATED (pbeh-3c.en.tmp) ****
             **** THE GBW FILE WAS UPDATED (pbeh-3c.gbw) ****
             **** DENSITY pbeh-3c.scfp WAS UPDATED ****
----------------
ORBITAL ENERGIES
----------------

  NO   OCC          E(Eh)            E(eV) 
   0   2.0000     -77.713997     -2114.7054 
   1   2.0000     -19.464890      -529.6666 
   2   2.0000     -19.451159      -529.2929 
   3   2.0000     -19.437699      -528.9267 
   4   2.0000     -19.432919      -528.7966 
   5   2.0000     -19.426331      -528.6173 
   6   2.0000     -19.417094      -528.3660 
   7   2.0000     -19.409629      -528.1629 
   8   2.0000     -19.404428      -528.0213 
   9   2.0000     -19.402376      -527.9655 
  10   2.0000     -19.398943      -527.8721 
  11   2.0000     -19.393448      -527.7226 
  12   2.0000     -19.384836      -527.4882 
  13   2.0000     -19.273432      -524.4567 
  14   2.0000     -19.269388      -524.3467 
  15   2.0000     -14.650395      -398.6575 
  16   2.0000     -14.635406      -398.2497 
  17   2.0000     -14.633823      -398.2066 
  18   2.0000     -14.622863      -397.9083 
  19   2.0000     -10.541191      -286.8404 
  20   2.0000     -10.529062      -286.5104 
  21   2.0000     -10.503558      -285.8163 
  22   2.0000     -10.497405      -285.6489 
  23   2.0000     -10.482972      -285.2562 
  24   2.0000     -10.455948      -284.5208 
  25   2.0000     -10.454126      -284.4712 
  26   2.0000     -10.451005      -284.3863 
  27   2.0000     -10.447053      -284.2788 
  28   2.0000     -10.442235      -284.1477 
  29   2.0000     -10.429579      -283.8033 
  30   2.0000     -10.417051      -283.4624 
  31   2.0000     -10.414374      -283.3895 
  32   2.0000     -10.411493      -283.3111 
  33   2.0000     -10.407126      -283.1923 
  34   2.0000     -10.401243      -283.0322 
  35   2.0000     -10.390260      -282.7334 
  36   2.0000     -10.384938      -282.5885 
  37   2.0000      -6.758503      -183.9082 
  38   2.0000      -4.853680      -132.0753 
  39   2.0000      -4.852212      -132.0354 
  40   2.0000      -4.850019      -131.9757 
  41   2.0000      -1.129804       -30.7435 
  42   2.0000      -1.113186       -30.2913 
  43   2.0000      -1.112102       -30.2618 
  44   2.0000      -1.091750       -29.7080 
  45   2.0000      -1.084173       -29.5018 
  46   2.0000      -1.078643       -29.3514 
  47   2.0000      -1.071461       -29.1559 
  48   2.0000      -1.061986       -28.8981 
  49   2.0000      -1.059509       -28.8307 
  50   2.0000      -1.050264       -28.5791 
  51   2.0000      -1.037182       -28.2232 
  52   2.0000      -1.015960       -27.6457 
  53   2.0000      -1.004749       -27.3406 
  54   2.0000      -0.998594       -27.1731 
  55   2.0000      -0.966639       -26.3036 
  56   2.0000      -0.954988       -25.9865 
  57   2.0000      -0.903681       -24.5904 
  58   2.0000      -0.861589       -23.4450 
  59   2.0000      -0.830976       -22.6120 
  60   2.0000      -0.819907       -22.3108 
  61   2.0000      -0.810073       -22.0432 
  62   2.0000      -0.783066       -21.3083 
  63   2.0000      -0.780483       -21.2380 
  64   2.0000      -0.763458       -20.7748 
  65   2.0000      -0.707947       -19.2642 
  66   2.0000      -0.697367       -18.9763 
  67   2.0000      -0.696176       -18.9439 
  68   2.0000      -0.693639       -18.8749 
  69   2.0000      -0.659308       -17.9407 
  70   2.0000      -0.645719       -17.5709 
  71   2.0000      -0.627915       -17.0864 
  72   2.0000      -0.608040       -16.5456 
  73   2.0000      -0.601624       -16.3710 
  74   2.0000      -0.582645       -15.8546 
  75   2.0000      -0.577634       -15.7182 
  76   2.0000      -0.562396       -15.3036 
  77   2.0000      -0.558942       -15.2096 
  78   2.0000      -0.551676       -15.0119 
  79   2.0000      -0.544878       -14.8269 
  80   2.0000      -0.530546       -14.4369 
  81   2.0000      -0.521178       -14.1820 
  82   2.0000      -0.518441       -14.1075 
  83   2.0000      -0.517055       -14.0698 
  84   2.0000      -0.505545       -13.7566 
  85   2.0000      -0.496401       -13.5078 
  86   2.0000      -0.490835       -13.3563 
  87   2.0000      -0.488755       -13.2997 
  88   2.0000      -0.474105       -12.9011 
  89   2.0000      -0.470022       -12.7899 
  90   2.0000      -0.469265       -12.7693 
  91   2.0000      -0.457528       -12.4500 
  92   2.0000      -0.453763       -12.3475 
  93   2.0000      -0.450493       -12.2585 
  94   2.0000      -0.444801       -12.1036 
  95   2.0000      -0.439936       -11.9713 
  96   2.0000      -0.439156       -11.9501 
  97   2.0000      -0.431242       -11.7347 
  98   2.0000      -0.425405       -11.5759 
  99   2.0000      -0.420908       -11.4535 
 100   2.0000      -0.409960       -11.1556 
 101   2.0000      -0.409039       -11.1305 
 102   2.0000      -0.407881       -11.0990 
 103   2.0000      -0.406333       -11.0569 
 104   2.0000      -0.401007       -10.9120 
 105   2.0000      -0.397625       -10.8199 
 106   2.0000      -0.395313       -10.7570 
 107   2.0000      -0.391627       -10.6567 
 108   2.0000      -0.382226       -10.4009 
 109   2.0000      -0.378481       -10.2990 
 110   2.0000      -0.373552       -10.1649 
 111   2.0000      -0.370035       -10.0692 
 112   2.0000      -0.355870        -9.6837 
 113   2.0000      -0.345884        -9.4120 
 114   2.0000      -0.344614        -9.3774 
 115   2.0000      -0.341433        -9.2909 
 116   2.0000      -0.337099        -9.1729 
 117   2.0000      -0.334979        -9.1152 
 118   2.0000      -0.328960        -8.9515 
 119   2.0000      -0.318974        -8.6797 
 120   2.0000      -0.303633        -8.2623 
 121   2.0000      -0.297217        -8.0877 
 122   2.0000      -0.292429        -7.9574 
 123   2.0000      -0.289241        -7.8706 
 124   2.0000      -0.282498        -7.6872 
 125   2.0000      -0.275132        -7.4867 
 126   2.0000      -0.274484        -7.4691 
 127   2.0000      -0.272118        -7.4047 
 128   2.0000      -0.267635        -7.2827 
 129   2.0000      -0.265360        -7.2208 
 130   2.0000      -0.262474        -7.1423 
 131   2.0000      -0.255582        -6.9547 
 132   2.0000      -0.253305        -6.8928 
 133   2.0000      -0.247419        -6.7326 
 134   2.0000      -0.240537        -6.5454 
 135   2.0000      -0.239165        -6.5080 
 136   2.0000      -0.233679        -6.3587 
 137   2.0000      -0.218647        -5.9497 
 138   2.0000      -0.207615        -5.6495 
 139   2.0000      -0.200357        -5.4520 
 140   2.0000      -0.185872        -5.0578 
 141   2.0000      -0.165875        -4.5137 
 142   2.0000      -0.152278        -4.1437 
 143   0.0000       0.050171         1.3652 
 144   0.0000       0.056887         1.5480 
 145   0.0000       0.101865         2.7719 
 146   0.0000       0.114830         3.1247 
 147   0.0000       0.145439         3.9576 
 148   0.0000       0.171370         4.6632 
 149   0.0000       0.187130         5.0921 
 150   0.0000       0.195397         5.3170 
 151   0.0000       0.201864         5.4930 
 152   0.0000       0.208628         5.6771 
 153   0.0000       0.213308         5.8044 
 154   0.0000       0.218797         5.9538 
 155   0.0000       0.220251         5.9933 
 156   0.0000       0.227869         6.2006 
 157   0.0000       0.232720         6.3326 
 158   0.0000       0.235507         6.4085 
 159   0.0000       0.239778         6.5247 
 160   0.0000       0.242669         6.6034 
 161   0.0000       0.248073         6.7504 
 162   0.0000       0.249722         6.7953 
 163   0.0000       0.258007         7.0207 
 164   0.0000       0.262166         7.1339 
 165   0.0000       0.270638         7.3644 
 166   0.0000       0.272078         7.4036 
 167   0.0000       0.278713         7.5842 
 168   0.0000       0.285349         7.7648 
 169   0.0000       0.288593         7.8530 
 170   0.0000       0.289965         7.8904 
 171   0.0000       0.291281         7.9262 
 172   0.0000       0.296391         8.0652 
 173   0.0000       0.301174         8.1953 
 174   0.0000       0.307408         8.3650 
 175   0.0000       0.309848         8.4314 
 176   0.0000       0.313379         8.5275 
 177   0.0000       0.317076         8.6281 
 178   0.0000       0.322716         8.7816 
 179   0.0000       0.326081         8.8731 
 180   0.0000       0.333098         9.0641 
 181   0.0000       0.334380         9.0989 
 182   0.0000       0.335817         9.1380 
 183   0.0000       0.339506         9.2384 
 184   0.0000       0.346004         9.4152 
 185   0.0000       0.355358         9.6698 
 186   0.0000       0.357439         9.7264 
 187   0.0000       0.364087         9.9073 
 188   0.0000       0.369867        10.0646 
 189   0.0000       0.371846        10.1184 
 190   0.0000       0.373514        10.1638 
 191   0.0000       0.380338        10.3495 
 192   0.0000       0.393195        10.6994 
 193   0.0000       0.397051        10.8043 
 194   0.0000       0.397663        10.8210 
 195   0.0000       0.412595        11.2273 
 196   0.0000       0.415164        11.2972 
 197   0.0000       0.420593        11.4449 
 198   0.0000       0.428202        11.6520 
 199   0.0000       0.435401        11.8479 
 200   0.0000       0.441952        12.0261 
 201   0.0000       0.448245        12.1974 
 202   0.0000       0.452795        12.3212 
 203   0.0000       0.453296        12.3348 
 204   0.0000       0.475131        12.9290 
 205   0.0000       0.480573        13.0771 
 206   0.0000       0.481693        13.1075 
 207   0.0000       0.483180        13.1480 
 208   0.0000       0.491276        13.3683 
 209   0.0000       0.536184        14.5903 
 210   0.0000       0.540346        14.7036 
 211   0.0000       0.544422        14.8145 
 212   0.0000       0.556677        15.1479 
 213   0.0000       0.561535        15.2801 
 214   0.0000       0.583551        15.8792 
 215   0.0000       0.591061        16.0836 
 216   0.0000       0.593687        16.1551 
 217   0.0000       0.600565        16.3422 
 218   0.0000       0.609943        16.5974 
 219   0.0000       0.616394        16.7729 
 220   0.0000       0.622583        16.9413 
 221   0.0000       0.625278        17.0147 
 222   0.0000       0.626528        17.0487 
 223   0.0000       0.627608        17.0781 
 224   0.0000       0.630627        17.1602 
 225   0.0000       0.633537        17.2394 
 226   0.0000       0.636534        17.3210 
 227   0.0000       0.646214        17.5844 
 228   0.0000       0.652242        17.7484 
 229   0.0000       0.653352        17.7786 
 230   0.0000       0.659433        17.9441 
 231   0.0000       0.663302        18.0494 
 232   0.0000       0.666950        18.1486 
 233   0.0000       0.675700        18.3867 
 234   0.0000       0.679652        18.4943 
 235   0.0000       0.687841        18.7171 
 236   0.0000       0.691660        18.8210 
 237   0.0000       0.702058        19.1040 
 238   0.0000       0.706652        19.2290 
 239   0.0000       0.707477        19.2514 
 240   0.0000       0.716076        19.4854 
 241   0.0000       0.717441        19.5226 
 242   0.0000       0.720660        19.6102 
 243   0.0000       0.728909        19.8346 
 244   0.0000       0.732396        19.9295 
 245   0.0000       0.736740        20.0477 
 246   0.0000       0.740839        20.1592 
 247   0.0000       0.745329        20.2814 
 248   0.0000       0.751284        20.4435 
 249   0.0000       0.767482        20.8842 
 250   0.0000       0.769691        20.9444 
 251   0.0000       0.782178        21.2841 
 252   0.0000       0.783060        21.3081 
 253   0.0000       0.790960        21.5231 
 254   0.0000       0.797009        21.6877 
 255   0.0000       0.801139        21.8001 
 256   0.0000       0.802599        21.8398 
 257   0.0000       0.810045        22.0424 
 258   0.0000       0.820056        22.3148 
 259   0.0000       0.826824        22.4990 
 260   0.0000       0.830940        22.6110 
 261   0.0000       0.840607        22.8741 
 262   0.0000       0.853199        23.2167 
 263   0.0000       0.863381        23.4938 
 264   0.0000       0.871968        23.7275 
 265   0.0000       0.883989        24.0546 
 266   0.0000       0.889027        24.1917 
 267   0.0000       0.891043        24.2465 
 268   0.0000       0.907173        24.6854 
 269   0.0000       0.917853        24.9760 
 270   0.0000       0.948731        25.8163 
 271   0.0000       0.951411        25.8892 
 272   0.0000       0.959485        26.1089 
 273   0.0000       0.963095        26.2071 
 274   0.0000       0.971262        26.4294 
 275   0.0000       0.974753        26.5244 
 276   0.0000       0.977919        26.6105 
 277   0.0000       0.989274        26.9195 
 278   0.0000       0.991185        26.9715 
 279   0.0000       0.995168        27.0799 
 280   0.0000       0.999551        27.1992 
 281   0.0000       1.003891        27.3173 
 282   0.0000       1.020111        27.7586 
 283   0.0000       1.024321        27.8732 
 284   0.0000       1.032504        28.0959 
 285   0.0000       1.035014        28.1642 
 286   0.0000       1.038351        28.2550 
 287   0.0000       1.048512        28.5315 
 288   0.0000       1.049789        28.5662 
 289   0.0000       1.055679        28.7265 
 290   0.0000       1.061178        28.8761 
 291   0.0000       1.064136        28.9566 
 292   0.0000       1.067234        29.0409 
 293   0.0000       1.070810        29.1382 
 294   0.0000       1.077033        29.3076 
 295   0.0000       1.080579        29.4040 
 296   0.0000       1.084844        29.5201 
 297   0.0000       1.085748        29.5447 
 298   0.0000       1.091463        29.7002 
 299   0.0000       1.094116        29.7724 
 300   0.0000       1.095613        29.8131 
 301   0.0000       1.101668        29.9779 
 302   0.0000       1.106161        30.1002 
 303   0.0000       1.112210        30.2648 
 304   0.0000       1.120325        30.4856 
 305   0.0000       1.127502        30.6809 
 306   0.0000       1.132692        30.8221 
 307   0.0000       1.140527        31.0353 
 308   0.0000       1.148482        31.2518 
 309   0.0000       1.159588        31.5540 
 310   0.0000       1.161863        31.6159 
 311   0.0000       1.174695        31.9651 
 312   0.0000       1.181593        32.1528 
 313   0.0000       1.187468        32.3126 
 314   0.0000       1.198481        32.6123 
 315   0.0000       1.199387        32.6370 
 316   0.0000       1.205714        32.8091 
 317   0.0000       1.206589        32.8330 
 318   0.0000       1.209838        32.9214 
 319   0.0000       1.210756        32.9463 
 320   0.0000       1.227575        33.4040 
 321   0.0000       1.234355        33.5885 
 322   0.0000       1.243140        33.8275 
 323   0.0000       1.245382        33.8886 
 324   0.0000       1.250020        34.0148 
 325   0.0000       1.258644        34.2495 
 326   0.0000       1.264876        34.4190 
 327   0.0000       1.270915        34.5834 
 328   0.0000       1.276732        34.7417 
 329   0.0000       1.281361        34.8676 
 330   0.0000       1.287791        35.0426 
 331   0.0000       1.291495        35.1434 
 332   0.0000       1.299227        35.3538 
 333   0.0000       1.305202        35.5164 
 334   0.0000       1.306952        35.5640 
 335   0.0000       1.313006        35.7287 
 336   0.0000       1.327797        36.1312 
 337   0.0000       1.332335        36.2547 
 338   0.0000       1.333316        36.2814 
 339   0.0000       1.337020        36.3822 
 340   0.0000       1.349147        36.7122 
 341   0.0000       1.350888        36.7595 
 342   0.0000       1.365597        37.1598 
 343   0.0000       1.369715        37.2718 
 344   0.0000       1.375916        37.4406 
 345   0.0000       1.388036        37.7704 
 346   0.0000       1.405601        38.2483 
 347   0.0000       1.406855        38.2825 
 348   0.0000       1.413184        38.4547 
 349   0.0000       1.417478        38.5715 
 350   0.0000       1.436737        39.0956 
 351   0.0000       1.440480        39.1974 
 352   0.0000       1.449553        39.4443 
 353   0.0000       1.451987        39.5106 
 354   0.0000       1.458494        39.6876 
 355   0.0000       1.470271        40.0081 
 356   0.0000       1.474009        40.1098 
 357   0.0000       1.495752        40.7015 
 358   0.0000       1.496346        40.7176 
 359   0.0000       1.498730        40.7825 
 360   0.0000       1.504743        40.9462 
 361   0.0000       1.508194        41.0400 
 362   0.0000       1.513334        41.1799 
 363   0.0000       1.516091        41.2549 
 364   0.0000       1.531606        41.6771 
 365   0.0000       1.536477        41.8097 
 366   0.0000       1.547565        42.1114 
 367   0.0000       1.557203        42.3736 
 368   0.0000       1.566805        42.6349 
 369   0.0000       1.570676        42.7403 
 370   0.0000       1.573514        42.8175 
 371   0.0000       1.582186        43.0535 
 372   0.0000       1.590561        43.2814 
 373   0.0000       1.592248        43.3273 
 374   0.0000       1.603899        43.6443 
 375   0.0000       1.614227        43.9253 
 376   0.0000       1.624519        44.2054 
 377   0.0000       1.630598        44.3708 
 378   0.0000       1.635487        44.5039 
 379   0.0000       1.652624        44.9702 
 380   0.0000       1.668379        45.3989 
 381   0.0000       1.688101        45.9356 
 382   0.0000       1.689323        45.9688 
 383   0.0000       1.708637        46.4944 
 384   0.0000       1.711651        46.5764 
 385   0.0000       1.726985        46.9936 
 386   0.0000       1.737290        47.2741 
 387   0.0000       1.743065        47.4312 
 388   0.0000       1.751792        47.6687 
 389   0.0000       1.767455        48.0949 
 390   0.0000       1.783997        48.5450 
 391   0.0000       1.791394        48.7463 
 392   0.0000       1.810306        49.2609 
 393   0.0000       1.816041        49.4170 
 394   0.0000       1.829533        49.7841 
 395   0.0000       1.838986        50.0413 
 396   0.0000       1.841220        50.1021 
 397   0.0000       1.844220        50.1838 
 398   0.0000       1.852842        50.4184 
 399   0.0000       1.869443        50.8701 
 400   0.0000       1.878814        51.1251 
 401   0.0000       1.888095        51.3777 
 402   0.0000       1.896636        51.6101 
 403   0.0000       1.899966        51.7007 
 404   0.0000       1.908282        51.9270 
 405   0.0000       1.911058        52.0025 
 406   0.0000       1.921725        52.2928 
 407   0.0000       1.925313        52.3904 
 408   0.0000       1.929603        52.5072 
 409   0.0000       1.934823        52.6492 
 410   0.0000       1.935465        52.6667 
 411   0.0000       1.940959        52.8162 
 412   0.0000       1.953004        53.1439 
 413   0.0000       1.954111        53.1741 
 414   0.0000       1.955672        53.2165 
 415   0.0000       1.964276        53.4507 
 416   0.0000       1.966988        53.5245 
 417   0.0000       1.978914        53.8490 
 418   0.0000       1.984418        53.9987 
 419   0.0000       1.987655        54.0868 
 420   0.0000       1.998029        54.3691 
 421   0.0000       2.003007        54.5046 
 422   0.0000       2.013173        54.7812 
 423   0.0000       2.024603        55.0923 
 424   0.0000       2.027613        55.1742 
 425   0.0000       2.029097        55.2145 
 426   0.0000       2.039072        55.4860 
 427   0.0000       2.040139        55.5150 
 428   0.0000       2.047760        55.7224 
 429   0.0000       2.053920        55.8900 
 430   0.0000       2.056283        55.9543 
 431   0.0000       2.064521        56.1785 
 432   0.0000       2.065412        56.2027 
 433   0.0000       2.070797        56.3492 
 434   0.0000       2.077297        56.5261 
 435   0.0000       2.080279        56.6073 
 436   0.0000       2.085479        56.7488 
 437   0.0000       2.088028        56.8181 
 438   0.0000       2.094195        56.9860 
 439   0.0000       2.096997        57.0622 
 440   0.0000       2.104185        57.2578 
 441   0.0000       2.107154        57.3386 
 442   0.0000       2.112304        57.4787 
 443   0.0000       2.116220        57.5853 
 444   0.0000       2.118576        57.6494 
 445   0.0000       2.127597        57.8949 
 446   0.0000       2.130023        57.9609 
 447   0.0000       2.136906        58.1482 
 448   0.0000       2.138178        58.1828 
 449   0.0000       2.141816        58.2818 
 450   0.0000       2.147311        58.4313 
 451   0.0000       2.155692        58.6594 
 452   0.0000       2.164928        58.9107 
 453   0.0000       2.179597        59.3098 
 454   0.0000       2.181450        59.3603 
 455   0.0000       2.184181        59.4346 
 456   0.0000       2.192922        59.6724 
 457   0.0000       2.200326        59.8739 
 458   0.0000       2.208269        60.0901 
 459   0.0000       2.223158        60.4952 
 460   0.0000       2.232368        60.7458 
 461   0.0000       2.240626        60.9705 
 462   0.0000       2.247769        61.1649 
 463   0.0000       2.257351        61.4257 
 464   0.0000       2.259612        61.4872 
 465   0.0000       2.270765        61.7907 
 466   0.0000       2.276067        61.9349 
 467   0.0000       2.284966        62.1771 
 468   0.0000       2.290203        62.3196 
 469   0.0000       2.298005        62.5319 
 470   0.0000       2.304125        62.6984 
 471   0.0000       2.309416        62.8424 
 472   0.0000       2.315752        63.0148 
 473   0.0000       2.322685        63.2035 
 474   0.0000       2.325848        63.2895 
 475   0.0000       2.345095        63.8133 
 476   0.0000       2.355524        64.0971 
 477   0.0000       2.357552        64.1523 
 478   0.0000       2.369163        64.4682 
 479   0.0000       2.378150        64.7127 
 480   0.0000       2.382892        64.8418 
 481   0.0000       2.396420        65.2099 
 482   0.0000       2.401249        65.3413 
 483   0.0000       2.410862        65.6029 
 484   0.0000       2.418415        65.8084 
 485   0.0000       2.423550        65.9482 
 486   0.0000       2.436593        66.3031 
 487   0.0000       2.444626        66.5217 
 488   0.0000       2.447510        66.6001 
 489   0.0000       2.450278        66.6755 
 490   0.0000       2.457364        66.8683 
 491   0.0000       2.472475        67.2795 
 492   0.0000       2.485373        67.6304 
 493   0.0000       2.494171        67.8698 
 494   0.0000       2.503810        68.1321 
 495   0.0000       2.511017        68.3282 
 496   0.0000       2.520230        68.5789 
 497   0.0000       2.524829        68.7041 
 498   0.0000       2.534723        68.9733 
 499   0.0000       2.555611        69.5417 
 500   0.0000       2.571132        69.9641 
 501   0.0000       2.575903        70.0939 
 502   0.0000       2.584779        70.3354 
 503   0.0000       2.606425        70.9244 
 504   0.0000       2.614291        71.1385 
 505   0.0000       2.625226        71.4360 
 506   0.0000       2.635058        71.7036 
 507   0.0000       2.635757        71.7226 
 508   0.0000       2.643498        71.9332 
 509   0.0000       2.658029        72.3286 
 510   0.0000       2.670376        72.6646 
 511   0.0000       2.678853        72.8953 
 512   0.0000       2.693166        73.2848 
 513   0.0000       2.707596        73.6774 
 514   0.0000       2.710477        73.7558 
 515   0.0000       2.714901        73.8762 
 516   0.0000       2.719499        74.0013 
 517   0.0000       2.724877        74.1477 
 518   0.0000       2.736096        74.4530 
 519   0.0000       2.737203        74.4831 
 520   0.0000       2.739739        74.5521 
 521   0.0000       2.755881        74.9913 
 522   0.0000       2.765220        75.2455 
 523   0.0000       2.777305        75.5743 
 524   0.0000       2.781069        75.6767 
 525   0.0000       2.789385        75.9030 
 526   0.0000       2.803941        76.2991 
 527   0.0000       2.804393        76.3114 
 528   0.0000       2.818146        76.6857 
 529   0.0000       2.833233        77.0962 
 530   0.0000       2.841951        77.3334 
 531   0.0000       2.845970        77.4428 
 532   0.0000       2.871858        78.1472 
 533   0.0000       2.877091        78.2896 
 534   0.0000       2.889450        78.6259 
 535   0.0000       2.891940        78.6937 
 536   0.0000       2.898355        78.8683 
 537   0.0000       2.913850        79.2899 
 538   0.0000       2.920667        79.4754 
 539   0.0000       2.934044        79.8394 
 540   0.0000       2.957576        80.4797 
 541   0.0000       2.971364        80.8549 
 542   0.0000       2.988948        81.3334 
 543   0.0000       2.994661        81.4889 
 544   0.0000       2.997668        81.5707 
 545   0.0000       3.009632        81.8962 
 546   0.0000       3.017961        82.1229 
 547   0.0000       3.019619        82.1680 
 548   0.0000       3.040289        82.7305 
 549   0.0000       3.052813        83.0713 
 550   0.0000       3.054883        83.1276 
 551   0.0000       3.069777        83.5329 
 552   0.0000       3.077191        83.7346 
 553   0.0000       3.089142        84.0598 
 554   0.0000       3.103040        84.4380 
 555   0.0000       3.110307        84.6358 
 556   0.0000       3.132988        85.2529 
 557   0.0000       3.163728        86.0894 
 558   0.0000       3.173930        86.3670 
 559   0.0000       3.178049        86.4791 
 560   0.0000       3.186739        86.7156 
 561   0.0000       3.237958        88.1093 
 562   0.0000       3.387883        92.1890 
 563   0.0000       3.390856        92.2699 
 564   0.0000       3.566736        97.0558 
 565   0.0000       3.573572        97.2418 
 566   0.0000      13.519488       367.8840 
 567   0.0000      13.539415       368.4262 
 568   0.0000      13.667327       371.9069 
 569   0.0000      13.672926       372.0592 
 570   0.0000      13.874242       377.5373 
 571   0.0000      13.899340       378.2203 
 572   0.0000      14.004941       381.0938 
 573   0.0000      14.006594       381.1388 
 574   0.0000      14.012385       381.2964 
 575   0.0000      14.033597       381.8736 
 576   0.0000      14.106144       383.8477 
 577   0.0000      14.116547       384.1308 
 578   0.0000      14.138853       384.7378 
 579   0.0000      14.190611       386.1461 
 580   0.0000      14.231345       387.2546 
 581   0.0000      14.257050       387.9540 
 582   0.0000      14.301560       389.1652 
 583   0.0000      14.306151       389.2902 
 584   0.0000      19.370548       527.0994 
 585   0.0000      19.384385       527.4759 
 586   0.0000      19.475546       529.9566 
 587   0.0000      19.485115       530.2169 
 588   0.0000      25.563458       695.6171 
 589   0.0000      25.667414       698.4458 
 590   0.0000      25.708042       699.5514 
 591   0.0000      25.731697       700.1951 
 592   0.0000      25.746632       700.6015 
 593   0.0000      25.811554       702.3681 
 594   0.0000      25.818838       702.5663 
 595   0.0000      25.820808       702.6199 
 596   0.0000      25.835759       703.0268 
 597   0.0000      25.837274       703.0680 
 598   0.0000      25.881363       704.2677 
 599   0.0000      25.904861       704.9071 
 600   0.0000      25.934477       705.7130 
 601   0.0000      25.944745       705.9924 

                    ********************************
                    * MULLIKEN POPULATION ANALYSIS *
                    ********************************

-----------------------
MULLIKEN ATOMIC CHARGES
-----------------------
   0 H :    0.421351
   1 O :   -0.646023
   2 C :   -0.193964
   3 H :    0.198160
   4 H :    0.231969
   5 C :    0.011473
   6 H :    0.280393
   7 O :   -0.496188
   8 C :    0.186763
   9 H :    0.276805
  10 N :   -0.568274
  11 C :    0.094721
  12 H :    0.315912
  13 C :   -0.489875
  14 H :    0.241617
  15 C :    0.563238
  16 O :   -0.432409
  17 N :   -0.736225
  18 H :    0.387797
  19 C :    0.727372
  20 O :   -0.440891
  21 C :   -0.049293
  22 H :    0.265474
  23 C :   -0.017553
  24 H :    0.245356
  25 O :   -0.637642
  26 H :    0.436605
  27 O :   -0.647688
  28 P :    1.380858
  29 O :   -0.733655
  30 O :   -0.739341
  31 O :   -0.600924
  32 C :   -0.138512
  33 H :    0.199874
  34 H :    0.198467
  35 C :    0.022422
  36 H :    0.246835
  37 O :   -0.478807
  38 C :    0.211346
  39 H :    0.281031
  40 N :   -0.576814
  41 C :    0.069094
  42 H :    0.331908
  43 C :   -0.474175
  44 H :    0.266321
  45 C :    0.558178
  46 O :   -0.427241
  47 N :   -0.732426
  48 H :    0.389214
  49 C :    0.714928
  50 O :   -0.445359
  51 C :   -0.064380
  52 H :    0.218979
  53 C :   -0.025742
  54 H :    0.227098
  55 O :   -0.634921
  56 H :    0.425911
  57 O :   -0.625348
  58 H :    0.426197
Sum of atomic charges:   -1.0000000

--------------------------------
MULLIKEN REDUCED ORBITAL CHARGES
--------------------------------
  0 H s       :     0.578649  s :     0.578649
  1 O s       :     3.827937  s :     3.827937
      pz      :     1.453904  p :     4.790328
      px      :     1.610332
      py      :     1.726092
      dz2     :     0.002249  d :     0.027758
      dxz     :     0.007396
      dyz     :     0.008175
      dx2y2   :     0.005655
      dxy     :     0.004282
  2 C s       :     3.277529  s :     3.277529
      pz      :     0.880641  p :     2.851524
      px      :     0.881510
      py      :     1.089372
      dz2     :     0.010146  d :     0.064911
      dxz     :     0.018354
      dyz     :     0.012561
      dx2y2   :     0.014104
      dxy     :     0.009747
  3 H s       :     0.801840  s :     0.801840
  4 H s       :     0.768031  s :     0.768031
  5 C s       :     3.236665  s :     3.236665
      pz      :     0.924669  p :     2.685473
      px      :     0.900014
      py      :     0.860790
      dz2     :     0.009014  d :     0.066388
      dxz     :     0.019198
      dyz     :     0.012587
      dx2y2   :     0.013337
      dxy     :     0.012252
  6 H s       :     0.719607  s :     0.719607
  7 O s       :     3.817666  s :     3.817666
      pz      :     1.729228  p :     4.649502
      px      :     1.277976
      py      :     1.642297
      dz2     :     0.004303  d :     0.029020
      dxz     :     0.005496
      dyz     :     0.004975
      dx2y2   :     0.003878
      dxy     :     0.010368
  8 C s       :     3.158289  s :     3.158289
      pz      :     1.103370  p :     2.569514
      px      :     0.639881
      py      :     0.826264
      dz2     :     0.014750  d :     0.085434
      dxz     :     0.010392
      dyz     :     0.016856
      dx2y2   :     0.016270
      dxy     :     0.027165
  9 H s       :     0.723195  s :     0.723195
 10 N s       :     3.564540  s :     3.564540
      pz      :     1.260801  p :     3.963231
      px      :     1.296977
      py      :     1.405454
      dz2     :     0.007983  d :     0.040502
      dxz     :     0.010722
      dyz     :     0.008021
      dx2y2   :     0.006570
      dxy     :     0.007207
 11 C s       :     3.149381  s :     3.149381
      pz      :     0.862149  p :     2.697831
      px      :     0.996901
      py      :     0.838781
      dz2     :     0.010784  d :     0.058068
      dxz     :     0.014143
      dyz     :     0.011898
      dx2y2   :     0.014615
      dxy     :     0.006628
[...]
      dxz     :     0.008284
      dyz     :     0.020053
      dx2y2   :     0.006174
      dxy     :     0.004623
 21 C s       :     2.883147  s :     2.883147
      pz      :     1.007848  p :     2.991664
      px      :     1.041396
      py      :     0.942421
      dz2     :     0.034684  d :     0.153713
      dxz     :     0.019440
      dyz     :     0.035183
      dx2y2   :     0.042284
      dxy     :     0.022123
 22 H s       :     0.860017  s :     0.860017
 23 C s       :     2.878003  s :     2.878003
      pz      :     1.071391  p :     3.003070
      px      :     1.022399
      py      :     0.909280
      dz2     :     0.026465  d :     0.160952
      dxz     :     0.013230
      dyz     :     0.043556
      dx2y2   :     0.043844
      dxy     :     0.033857
 24 H s       :     0.867126  s :     0.867126
 25 O s       :     3.519602  s :     3.519602
      pz      :     1.704623  p :     4.817542
      px      :     1.696357
      py      :     1.416562
      dz2     :     0.006055  d :     0.051159
      dxz     :     0.008884
      dyz     :     0.010321
      dx2y2   :     0.007974
      dxy     :     0.017925
 26 H s       :     0.684273  s :     0.684273
 27 O s       :     3.502639  s :     3.502639
      pz      :     1.654853  p :     4.806871
      px      :     1.624989
      py      :     1.527029
      dz2     :     0.009441  d :     0.049720
      dxz     :     0.007012
      dyz     :     0.013711
      dx2y2   :     0.009111
      dxy     :     0.010446
 28 P s       :     4.833624  s :     4.833624
      pz      :     2.766854  p :     8.254855
      px      :     2.736907
      py      :     2.751095
      dz2     :     0.220414  d :     1.102039
      dxz     :     0.194738
      dyz     :     0.265521
      dx2y2   :     0.177161
      dxy     :     0.244204
 29 O s       :     3.607622  s :     3.607622
      pz      :     1.595280  p :     4.963942
      px      :     1.712413
      py      :     1.656250
      dz2     :     0.009677  d :     0.035183
      dxz     :     0.005615
      dyz     :     0.013825
      dx2y2   :     0.003436
      dxy     :     0.002630
 30 O s       :     3.606743  s :     3.606743
      pz      :     1.704371  p :     4.967497
      px      :     1.612651
      py      :     1.650476
      dz2     :     0.004517  d :     0.034955
      dxz     :     0.006863
      dyz     :     0.004659
      dx2y2   :     0.006884
      dxy     :     0.012033
 31 O s       :     3.498123  s :     3.498123
      pz      :     1.667842  p :     4.803357
      px      :     1.585036
      py      :     1.550479
      dz2     :     0.009910  d :     0.050229
      dxz     :     0.008348
      dyz     :     0.011707
      dx2y2   :     0.007870
      dxy     :     0.012394
 32 C s       :     2.911102  s :     2.911102
      pz      :     1.072267  p :     3.036796
      px      :     0.976432
      py      :     0.988097
      dz2     :     0.021413  d :     0.140207
      dxz     :     0.020118
      dyz     :     0.034116
      dx2y2   :     0.028222
      dxy     :     0.036337
 33 H s       :     0.883960  s :     0.883960
 34 H s       :     0.884222  s :     0.884222
 35 C s       :     2.886467  s :     2.886467
      pz      :     1.072602  p :     2.972535
      px      :     0.877515
      py      :     1.022418
      dz2     :     0.025811  d :     0.150354
      dxz     :     0.028841
      dyz     :     0.032772
      dx2y2   :     0.018072
      dxy     :     0.044857
 36 H s       :     0.863327  s :     0.863327
 37 O s       :     3.469582  s :     3.469582
      pz      :     1.686044  p :     4.686533
      px      :     1.578326
      py      :     1.422163
      dz2     :     0.008049  d :     0.065321
      dxz     :     0.010863
      dyz     :     0.012398
      dx2y2   :     0.016129
      dxy     :     0.017882
 38 C s       :     2.869121  s :     2.869121
      pz      :     1.037939  p :     2.858634
      px      :     1.011705
      py      :     0.808990
      dz2     :     0.040194  d :     0.185275
      dxz     :     0.017959
      dyz     :     0.041722
      dx2y2   :     0.047761
      dxy     :     0.037638
 39 H s       :     0.853085  s :     0.853085
 40 N s       :     3.073080  s :     3.073080
      pz      :     1.263643  p :     3.921978
      px      :     1.440192
      py      :     1.218143
      dz2     :     0.021835  d :     0.100280
      dxz     :     0.014339
      dyz     :     0.032846
      dx2y2   :     0.016123
      dxy     :     0.015137
 41 C s       :     2.885742  s :     2.885742
      pz      :     0.944811  p :     2.985852
      px      :     0.921396
      py      :     1.119645
      dz2     :     0.039522  d :     0.130486
      dxz     :     0.027041
      dyz     :     0.028724
      dx2y2   :     0.023265
      dxy     :     0.011935
 42 H s       :     0.826971  s :     0.826971
 43 C s       :     2.905344  s :     2.905344
      pz      :     1.100180  p :     3.265287
      px      :     1.111863
      py      :     1.053244
      dz2     :     0.015743  d :     0.081368
      dxz     :     0.010036
      dyz     :     0.024616
      dx2y2   :     0.017503
      dxy     :     0.013470
 44 H s       :     0.835235  s :     0.835235
 45 C s       :     2.820020  s :     2.820020
      pz      :     0.908982  p :     2.785440
      px      :     0.836174
      py      :     1.040284
      dz2     :     0.065383  d :     0.268826
      dxz     :     0.044871
      dyz     :     0.060483
      dx2y2   :     0.057239
      dxy     :     0.040851
 46 O s       :     3.531809  s :     3.531809
      pz      :     1.679374  p :     4.694647
      px      :     1.478052
      py      :     1.537221
      dz2     :     0.007073  d :     0.053555
      dxz     :     0.004592
      dyz     :     0.013407
      dx2y2   :     0.013294
      dxy     :     0.015189
 47 N s       :     3.118360  s :     3.118360
      pz      :     1.284918  p :     4.005523
      px      :     1.489169
      py      :     1.231436
      dz2     :     0.015760  d :     0.076288
      dxz     :     0.012851
      dyz     :     0.024945
      dx2y2   :     0.012944
      dxy     :     0.009789
 48 H s       :     0.717090  s :     0.717090
 49 C s       :     2.782676  s :     2.782676
      pz      :     0.963257  p :     2.747669
      px      :     0.863048
      py      :     0.921364
      dz2     :     0.063808  d :     0.313316
      dxz     :     0.049077
      dyz     :     0.113426
      dx2y2   :     0.039607
      dxy     :     0.047398
 50 O s       :     3.529000  s :     3.529000
      pz      :     1.449644  p :     4.700082
      px      :     1.502556
      py      :     1.747881
      dz2     :     0.020742  d :     0.054797
      dxz     :     0.018115
      dyz     :     0.009911
      dx2y2   :     0.003314
      dxy     :     0.002716
 51 C s       :     2.883149  s :     2.883149
      pz      :     1.080082  p :     3.002425
      px      :     0.867491
      py      :     1.054852
      dz2     :     0.026423  d :     0.157223
      dxz     :     0.023308
      dyz     :     0.033708
      dx2y2   :     0.028490
      dxy     :     0.045295
 52 H s       :     0.881021  s :     0.881021
 53 C s       :     2.889268  s :     2.889268
      pz      :     0.927677  p :     2.995427
      px      :     1.011121
      py      :     1.056630
      dz2     :     0.039784  d :     0.157925
      dxz     :     0.026338
      dyz     :     0.037981
      dx2y2   :     0.040047
      dxy     :     0.013774
 54 H s       :     0.884144  s :     0.884144
 55 O s       :     3.528670  s :     3.528670
      pz      :     1.575782  p :     4.815238
      px      :     1.506250
      py      :     1.733206
      dz2     :     0.015168  d :     0.050749
      dxz     :     0.012494
      dyz     :     0.010314
      dx2y2   :     0.005580
      dxy     :     0.007193
 56 H s       :     0.686969  s :     0.686969
 57 O s       :     3.528946  s :     3.528946
      pz      :     1.807847  p :     4.804402
      px      :     1.320696
      py      :     1.675859
      dz2     :     0.005379  d :     0.051301
      dxz     :     0.009413
      dyz     :     0.006716
      dx2y2   :     0.008116
      dxy     :     0.021678
 58 H s       :     0.679367  s :     0.679367


                      *****************************
                      * MAYER POPULATION ANALYSIS *
                      *****************************

  NA   - Mulliken gross atomic population
  ZA   - Total nuclear charge
  QA   - Mulliken gross atomic charge
  VA   - Mayer's total valence
  BVA  - Mayer's bonded valence
  FA   - Mayer's free valence

  ATOM       NA         ZA         QA         VA         BVA        FA
  0 H      0.5786     1.0000     0.4214     0.7981     0.7981    -0.0000
  1 O      8.6460     8.0000    -0.6460     1.8467     1.8467     0.0000
  2 C      6.1940     6.0000    -0.1940     3.6976     3.6976     0.0000
  3 H      0.8018     1.0000     0.1982     0.9062     0.9062     0.0000
  4 H      0.7680     1.0000     0.2320     0.8955     0.8955     0.0000
  5 C      5.9885     6.0000     0.0115     3.6286     3.6286     0.0000
  6 H      0.7196     1.0000     0.2804     0.8901     0.8901     0.0000
  7 O      8.4962     8.0000    -0.4962     1.9946     1.9946    -0.0000
  8 C      5.8132     6.0000     0.1868     3.6332     3.6332     0.0000
  9 H      0.7232     1.0000     0.2768     0.9008     0.9008    -0.0000
 10 N      7.5683     7.0000    -0.5683     3.1519     3.1519    -0.0000
 11 C      5.9053     6.0000     0.0947     3.5569     3.5569    -0.0000
 12 H      0.6841     1.0000     0.3159     0.8958     0.8958    -0.0000
 13 C      6.4899     6.0000    -0.4899     3.7408     3.7408    -0.0000
 14 H      0.7584     1.0000     0.2416     0.9201     0.9201    -0.0000
 15 C      5.4368     6.0000     0.5632     4.0693     4.0693     0.0000
 16 O      8.4324     8.0000    -0.4324     2.1922     2.1922     0.0000
 17 N      7.7362     7.0000    -0.7362     3.0035     3.0035    -0.0000
 18 H      0.6122     1.0000     0.3878     0.8407     0.8407     0.0000
 19 C      5.2726     6.0000     0.7274     4.0617     4.0617    -0.0000
 20 O      8.4409     8.0000    -0.4409     2.1934     2.1934    -0.0000
 21 C      6.0493     6.0000    -0.0493     3.6961     3.6961     0.0000
 22 H      0.7345     1.0000     0.2655     0.9049     0.9049     0.0000
 23 C      6.0176     6.0000    -0.0176     3.7404     3.7404     0.0000
 24 H      0.7546     1.0000     0.2454     0.9066     0.9066     0.0000
 25 O      8.6376     8.0000    -0.6376     1.8755     1.8755     0.0000
 26 H      0.5634     1.0000     0.4366     0.8019     0.8019     0.0000
 27 O      8.6477     8.0000    -0.6477     1.8954     1.8954    -0.0000
 28 P     13.6191    15.0000     1.3809     5.2171     5.2171    -0.0000
 29 O      8.7337     8.0000    -0.7337     1.9032     1.9032    -0.0000
 30 O      8.7393     8.0000    -0.7393     1.8968     1.8968    -0.0000
 31 O      8.6009     8.0000    -0.6009     1.9471     1.9471     0.0000
 32 C      6.1385     6.0000    -0.1385     3.7770     3.7770    -0.0000
 33 H      0.8001     1.0000     0.1999     0.9170     0.9170    -0.0000
 34 H      0.8015     1.0000     0.1985     0.9170     0.9170    -0.0000
 35 C      5.9776     6.0000     0.0224     3.6562     3.6562    -0.0000
 36 H      0.7532     1.0000     0.2468     0.8955     0.8955     0.0000
 37 O      8.4788     8.0000    -0.4788     2.0380     2.0380    -0.0000
 38 C      5.7887     6.0000     0.2113     3.6410     3.6410     0.0000
 39 H      0.7190     1.0000     0.2810     0.8868     0.8868     0.0000
 40 N      7.5768     7.0000    -0.5768     3.1201     3.1201     0.0000
 41 C      5.9309     6.0000     0.0691     3.6015     3.6015    -0.0000
 42 H      0.6681     1.0000     0.3319     0.8654     0.8654    -0.0000
 43 C      6.4742     6.0000    -0.4742     3.7296     3.7296     0.0000
 44 H      0.7337     1.0000     0.2663     0.9086     0.9086    -0.0000
 45 C      5.4418     6.0000     0.5582     4.0628     4.0628     0.0000
 46 O      8.4272     8.0000    -0.4272     2.1961     2.1961     0.0000
 47 N      7.7324     7.0000    -0.7324     3.0064     3.0064     0.0000
 48 H      0.6108     1.0000     0.3892     0.8395     0.8395    -0.0000
 49 C      5.2851     6.0000     0.7149     4.0693     4.0693     0.0000
 50 O      8.4454     8.0000    -0.4454     2.1801     2.1801    -0.0000
 51 C      6.0644     6.0000    -0.0644     3.7048     3.7048     0.0000
 52 H      0.7810     1.0000     0.2190     0.8990     0.8990     0.0000
 53 C      6.0257     6.0000    -0.0257     3.7375     3.7375    -0.0000
 54 H      0.7729     1.0000     0.2271     0.9018     0.9018     0.0000
 55 O      8.6349     8.0000    -0.6349     1.8543     1.8543    -0.0000
 56 H      0.5741     1.0000     0.4259     0.8152     0.8152    -0.0000
 57 O      8.6253     8.0000    -0.6253     1.8802     1.8802     0.0000
 58 H      0.5738     1.0000     0.4262     0.7963     0.7963    -0.0000

  Mayer bond orders larger than 0.100000
B(  0-H ,  1-O ) :   0.7901 B(  1-O ,  2-C ) :   0.9635 B(  2-C ,  3-H ) :   0.9065 
B(  2-C ,  4-H ) :   0.8881 B(  2-C ,  5-C ) :   0.9479 B(  5-C ,  6-H ) :   0.8812 
B(  5-C ,  7-O ) :   0.9143 B(  5-C , 21-C ) :   0.9272 B(  7-O ,  8-C ) :   0.9969 
B(  8-C ,  9-H ) :   0.8639 B(  8-C , 10-N ) :   0.8823 B(  8-C , 23-C ) :   0.8928 
B( 10-N , 11-C ) :   1.0806 B( 10-N , 19-C ) :   1.0223 B( 11-C , 12-H ) :   0.8337 
B( 11-C , 13-C ) :   1.5929 B( 13-C , 14-H ) :   0.9214 B( 13-C , 15-C ) :   1.0784 
B( 15-C , 16-O ) :   1.9973 B( 15-C , 17-N ) :   0.9914 B( 17-N , 18-H ) :   0.8049 
B( 17-N , 19-C ) :   1.0542 B( 19-C , 20-O ) :   1.9757 B( 21-C , 22-H ) :   0.8808 
B( 21-C , 23-C ) :   0.9340 B( 21-C , 27-O ) :   0.9022 B( 23-C , 24-H ) :   0.8921 
B( 23-C , 25-O ) :   1.0551 B( 25-O , 26-H ) :   0.7389 B( 27-O , 28-P ) :   0.8174 
B( 28-P , 29-O ) :   1.7454 B( 28-P , 30-O ) :   1.7174 B( 28-P , 31-O ) :   0.8615 
B( 31-O , 32-C ) :   0.9661 B( 32-C , 33-H ) :   0.8767 B( 32-C , 34-H ) :   0.8856 
B( 32-C , 35-C ) :   0.9798 B( 35-C , 36-H ) :   0.8778 B( 35-C , 37-O ) :   0.9033 
B( 35-C , 51-C ) :   0.9138 B( 37-O , 38-C ) :   1.0283 B( 38-C , 39-H ) :   0.8768 
B( 38-C , 40-N ) :   0.8264 B( 38-C , 53-C ) :   0.9214 B( 40-N , 41-C ) :   1.0926 
B( 40-N , 49-C ) :   1.0331 B( 41-C , 42-H ) :   0.8544 B( 41-C , 43-C ) :   1.5908 
B( 43-C , 44-H ) :   0.9100 B( 43-C , 45-C ) :   1.0795 B( 45-C , 46-O ) :   2.0012 
B( 45-C , 47-N ) :   0.9804 B( 47-N , 48-H ) :   0.8037 B( 47-N , 49-C ) :   1.0690 
B( 49-C , 50-O ) :   1.9569 B( 51-C , 52-H ) :   0.8841 B( 51-C , 53-C ) :   0.9329 
B( 51-C , 57-O ) :   0.9981 B( 53-C , 54-H ) :   0.9011 B( 53-C , 55-O ) :   1.0151 
B( 55-O , 56-H ) :   0.7478 B( 57-O , 58-H ) :   0.7836 

-------
TIMINGS
-------

Total SCF time: 0 days 0 hours 13 min 46 sec 

Total time                  ....     826.003 sec
Sum of individual times     ....     819.280 sec  ( 99.2%)

Fock matrix formation       ....     774.411 sec  ( 93.8%)
  Split-RI-J                ....      51.304 sec  (  6.6% of F)
  Chain of spheres X        ....     632.351 sec  ( 81.7% of F)
  XC integration            ....      76.144 sec  (  9.8% of F)
    Basis function eval.    ....      26.693 sec  ( 35.1% of XC)
    Density eval.           ....      17.145 sec  ( 22.5% of XC)
    XC-Functional eval.     ....       5.594 sec  (  7.3% of XC)
    XC-Potential eval.      ....       8.840 sec  ( 11.6% of XC)
Diagonalization             ....       4.544 sec  (  0.6%)
Density matrix formation    ....       0.566 sec  (  0.1%)
Population analysis         ....       0.410 sec  (  0.0%)
Initial guess               ....       0.323 sec  (  0.0%)
Orbital Transformation      ....       0.000 sec  (  0.0%)
Orbital Orthonormalization  ....       0.000 sec  (  0.0%)
DIIS solution               ....       5.973 sec  (  0.7%)
SOSCF solution              ....       4.247 sec  (  0.5%)
Grid generation             ....      28.807 sec  (  3.5%)

Maximum memory used throughout the entire SCF-calculation: 202.2 MB


-------------------------------------------------------------------------------
                          DFT DISPERSION CORRECTION                            
                                                                               
                              DFTD3 V3.1  Rev 1                                
                          USING Becke-Johnson damping                          
-------------------------------------------------------------------------------
The PBEh-3c composite method is recognized
Using three-body term ABC
Active option DFTDOPT                   ...         4   

molecular C6(AA) [au] = 38275.497489 


            DFT-D V3
 parameters
 s6 scaling factor         :     1.0000 
 a1 scaling factor         :     0.4860 
 s8 scaling factor         :     0.0000 
 a2 scaling factor         :     4.5000 
 Damping factor alpha9(ATM):    16.0000 
 ad hoc parameters k1-k3   :    16.0000     1.3333    -4.0000 

 Edisp/kcal,au: -28.463612010378  -0.045359648182 
 E6   /kcal   : -28.712861010 
 E8   /kcal   :  -0.000000000 
 E6(ABC)      :   0.249249000 
 % E8         :   0.000000000 
 % E6(ABC)    :  -0.875675931 

-------------------------   ----------------
Dispersion correction           -0.045359648
-------------------------   ----------------

------------------   -----------------
gCP correction             0.191244973
------------------   -----------------

-------------------------   --------------------
FINAL SINGLE POINT ENERGY     -2308.299589689180
-------------------------   --------------------


                            ***************************************
                            *     ORCA property calculations      *
                            ***************************************

                                    ---------------------
                                    Active property flags
                                    ---------------------
   (+) Dipole Moment


------------------------------------------------------------------------------
                       ORCA ELECTRIC PROPERTIES CALCULATION
------------------------------------------------------------------------------

Dipole Moment Calculation                       ... on
Quadrupole Moment Calculation                   ... off
Polarizability Calculation                      ... off
GBWName                                         ... pbeh-3c.gbw
Electron density                                ... pbeh-3c.scfp
The origin for moment calculation is the CENTER OF MASS  = (-0.192704, -0.140940 -0.277697)

-------------
DIPOLE MOMENT
-------------
                                X             Y             Z
Electronic contribution:     -2.28646      -4.74801      -5.63473
Nuclear contribution   :      4.88707       4.53742       8.02638
                        -----------------------------------------
Total Dipole Moment    :      2.60062      -0.21059       2.39165
                        -----------------------------------------
Magnitude (a.u.)       :      3.53943
Magnitude (Debye)      :      8.99651



--------------------
Rotational spectrum 
--------------------
 
Rotational constants in cm-1:     0.006810     0.001224     0.001146 
Rotational constants in MHz :   204.147263    36.704367    34.360518 

 Dipole components along the rotational axes: 
x,y,z [a.u.] :    -0.179645     3.253692    -1.381580 
x,y,z [Debye]:    -0.456621     8.270228    -3.511698 

 

Timings for individual modules:

Sum of individual times         ...      829.887 sec (=  13.831 min)
GTO integral calculation        ...        3.272 sec (=   0.055 min)   0.4 %
SCF iterations                  ...      826.615 sec (=  13.777 min)  99.6 %
                             ****ORCA TERMINATED NORMALLY****
TOTAL RUN TIME: 0 days 0 hours 13 minutes 51 seconds 621 msec
