
                                 *****************
                                 * O   R   C   A *
                                 *****************

                                            #,                                       
                                            ###                                      
                                            ####                                     
                                            #####                                    
                                            ######                                   
                                           ########,                                 
                                     ,,################,,,,,                         
                               ,,#################################,,                 
                          ,,##########################################,,             
                       ,#########################################, ''#####,          
                    ,#############################################,,   '####,        
                  ,##################################################,,,,####,       
                ,###########''''           ''''###############################       
              ,#####''   ,,,,##########,,,,          '''####'''          '####       
            ,##' ,,,,###########################,,,                        '##       
           ' ,,###''''                  '''############,,,                           
         ,,##''                                '''############,,,,        ,,,,,,###''
      ,#''                                            '''#######################'''  
     '                                                          ''''####''''         
             ,#######,   #######,   ,#######,      ##                                
            ,#'     '#,  ##    ##  ,#'     '#,    #''#        ######   ,####,        
            ##       ##  ##   ,#'  ##            #'  '#       #        #'  '#        
            ##       ##  #######   ##           ,######,      #####,   #    #        
            '#,     ,#'  ##    ##  '#,     ,#' ,#      #,         ##   #,  ,#        
             '#######'   ##     ##  '#######'  #'      '#     #####' # '####'        



                  #######################################################
                  #                        -***-                        #
                  #          Department of theory and spectroscopy      #
                  #    Directorship and core code : Frank Neese         #
                  #        Max Planck Institute fuer Kohlenforschung    #
                  #                Kaiser Wilhelm Platz 1               #
                  #                 D-45470 Muelheim/Ruhr               #
                  #                      Germany                        #
                  #                                                     #
                  #                  All rights reserved                #
                  #                        -***-                        #
                  #######################################################


                         Program Version 5.0.3 -  RELEASE  -


 With contributions from (in alphabetic order):
   Daniel Aravena         : Magnetic Suceptibility
   Michael Atanasov       : Ab Initio Ligand Field Theory (pilot matlab implementation)
   Alexander A. Auer      : GIAO ZORA, VPT2 properties, NMR spectrum
   Ute Becker             : Parallelization
   Giovanni Bistoni       : ED, misc. LED, open-shell LED, HFLD
   Martin Brehm           : Molecular dynamics
   Dmytro Bykov           : SCF Hessian
   Vijay G. Chilkuri      : MRCI spin determinant printing, contributions to CSF-ICE
   Dipayan Datta          : RHF DLPNO-CCSD density
   Achintya Kumar Dutta   : EOM-CC, STEOM-CC
   Dmitry Ganyushin       : Spin-Orbit,Spin-Spin,Magnetic field MRCI
   Miquel Garcia          : C-PCM and meta-GGA Hessian, CC/C-PCM, Gaussian charge scheme
   Yang Guo               : DLPNO-NEVPT2, F12-NEVPT2, CIM, IAO-localization
   Andreas Hansen         : Spin unrestricted coupled pair/coupled cluster methods
   Benjamin Helmich-Paris : MC-RPA, TRAH-SCF, COSX integrals
   Lee Huntington         : MR-EOM, pCC
   Robert Izsak           : Overlap fitted RIJCOSX, COSX-SCS-MP3, EOM
   Marcus Kettner         : VPT2
   Christian Kollmar      : KDIIS, OOCD, Brueckner-CCSD(T), CCSD density, CASPT2, CASPT2-K
   Simone Kossmann        : Meta GGA functionals, TD-DFT gradient, OOMP2, MP2 Hessian
   Martin Krupicka        : Initial AUTO-CI
   Lucas Lang             : DCDCAS
   Marvin Lechner         : AUTO-CI (C++ implementation), FIC-MRCC
   Dagmar Lenk            : GEPOL surface, SMD
   Dimitrios Liakos       : Extrapolation schemes; Compound Job, initial MDCI parallelization
   Dimitrios Manganas     : Further ROCIS development; embedding schemes
   Dimitrios Pantazis     : SARC Basis sets
   Anastasios Papadopoulos: AUTO-CI, single reference methods and gradients
   Taras Petrenko         : DFT Hessian,TD-DFT gradient, ASA, ECA, R-Raman, ABS, FL, XAS/XES, NRVS
   Peter Pinski           : DLPNO-MP2, DLPNO-MP2 Gradient
   Christoph Reimann      : Effective Core Potentials
   Marius Retegan         : Local ZFS, SOC
   Christoph Riplinger    : Optimizer, TS searches, QM/MM, DLPNO-CCSD(T), (RO)-DLPNO pert. Triples
   Tobias Risthaus        : Range-separated hybrids, TD-DFT gradient, RPA, STAB
   Michael Roemelt        : Original ROCIS implementation
   Masaaki Saitow         : Open-shell DLPNO-CCSD energy and density
   Barbara Sandhoefer     : DKH picture change effects
   Avijit Sen             : IP-ROCIS
   Kantharuban Sivalingam : CASSCF convergence, NEVPT2, FIC-MRCI
   Bernardo de Souza      : ESD, SOC TD-DFT
   Georgi Stoychev        : AutoAux, RI-MP2 NMR, DLPNO-MP2 response
   Willem Van den Heuvel  : Paramagnetic NMR
   Boris Wezisla          : Elementary symmetry handling
   Frank Wennmohs         : Technical directorship


 We gratefully acknowledge several colleagues who have allowed us to
 interface, adapt or use parts of their codes:
   Stefan Grimme, W. Hujo, H. Kruse, P. Pracht,  : VdW corrections, initial TS optimization,
                  C. Bannwarth, S. Ehlert          DFT functionals, gCP, sTDA/sTD-DF
   Ed Valeev, F. Pavosevic, A. Kumar             : LibInt (2-el integral package), F12 methods
   Garnet Chan, S. Sharma, J. Yang, R. Olivares  : DMRG
   Ulf Ekstrom                                   : XCFun DFT Library
   Mihaly Kallay                                 : mrcc  (arbitrary order and MRCC methods)
   Jiri Pittner, Ondrej Demel                    : Mk-CCSD
   Frank Weinhold                                : gennbo (NPA and NBO analysis)
   Christopher J. Cramer and Donald G. Truhlar   : smd solvation model
   Lars Goerigk                                  : TD-DFT with DH, B97 family of functionals
   V. Asgeirsson, H. Jonsson                     : NEB implementation
   FAccTs GmbH                                   : IRC, NEB, NEB-TS, DLPNO-Multilevel, CI-OPT
                                                   MM, QMMM, 2- and 3-layer-ONIOM, Crystal-QMMM,
                                                   LR-CPCM, SF, NACMEs, symmetry and pop. for TD-DFT,
                                                   nearIR, NL-DFT gradient (VV10), updates on ESD,
                                                   ML-optimized integration grids
   S Lehtola, MJT Oliveira, MAL Marques          : LibXC Library
   Liviu Ungur et al                             : ANISO software


 Your calculation uses the libint2 library for the computation of 2-el integrals
 For citations please refer to: http://libint.valeyev.net

 Your ORCA version has been built with support for libXC version: 5.1.0
 For citations please refer to: https://tddft.org/programs/libxc/

 This ORCA versions uses:
   CBLAS   interface :  Fast vector & matrix operations
   LAPACKE interface :  Fast linear algebra routines
   SCALAPACK package :  Parallel linear algebra routines
   Shared memory     :  Shared parallel matrices
   BLAS/LAPACK       :  OpenBLAS 0.3.15  USE64BITINT DYNAMIC_ARCH NO_AFFINITY Haswell SINGLE_THREADED
        Core in use  :  Haswell
   Copyright (c) 2011-2014, The OpenBLAS Project




***************************************
The coordinates will be read from file: kf.xyz
***************************************


Your calculation utilizes the geometrical counterpoise correction gCP
Please cite in your paper:
H.Kruse, S. Grimme J.Chem.Phys., 136, (2012), 154101 
   

Your calculation utilizes the atom-pairwise dispersion correction
with the Becke-Johnson damping scheme (D3BJ)
Cite in your paper:
S.Grimme, S.Ehrlich, L.Goerigk, J Comput Chem, (2011), 32, 1456–1465 
S.Grimme, J.Antony, S.Ehrlich and H.Krieg, J.Chem.Phys., 132, (2010), 154104 
   

Your calculation employs the composite approach PBEh-3c.
Please cite in your paper:
S. Grimme, J. G. Brandenburg, C. Bannwarth, A. Hansen J.Chem.Phys., 143, (2015), 054107 
   

================================================================================

----- Orbital basis set information -----
Your calculation utilizes the basis: def2-mSVP

----- AuxJ basis set information -----
Your calculation utilizes the auxiliary basis: def2/J
   F. Weigend, Phys. Chem. Chem. Phys. 8, 1057 (2006).

================================================================================
                                        WARNINGS
                       Please study these warnings very carefully!
================================================================================


INFO   : the flag for use of the SHARK integral package has been found!

================================================================================
                                       INPUT FILE
================================================================================
NAME = pbeh-3c.inp
|  1> ! PBEh-3c def2/J TightSCF DefGrid3
|  2> 
|  3> %maxcore 60000
|  4> 
|  5> %pal
|  6> nprocs 4
|  7> end
|  8> 
|  9> *xyzfile 0 1 kf.xyz
| 10> 
| 11>                          ****END OF INPUT****
================================================================================

                       ****************************
                       * Single Point Calculation *
                       ****************************

---------------------------------
CARTESIAN COORDINATES (ANGSTROEM)
---------------------------------
  K      0.000000    0.000000   -1.088871
  F      0.000000    0.000000    1.088871

----------------------------
CARTESIAN COORDINATES (A.U.)
----------------------------
  NO LB      ZA    FRAG     MASS         X           Y           Z
   0 K    19.0000    0    39.100    0.000000    0.000000   -2.057668
   1 F     9.0000    0    18.998    0.000000    0.000000    2.057668

--------------------------------
INTERNAL COORDINATES (ANGSTROEM)
--------------------------------
 K      0   0   0     0.000000000000     0.00000000     0.00000000
 F      1   0   0     2.177742000000     0.00000000     0.00000000

---------------------------
INTERNAL COORDINATES (A.U.)
---------------------------
 K      0   0   0     0.000000000000     0.00000000     0.00000000
 F      1   0   0     4.115335970338     0.00000000     0.00000000

---------------------
BASIS SET INFORMATION
---------------------
There are 2 groups of distinct atoms

 Group   1 Type K   : 14s9p2d contracted to 5s3p2d pattern {63311/531/11}
 Group   2 Type F   : 8s4p1d contracted to 4s2p1d pattern {5111/31/1}

Atom   0K    basis set group =>   1
Atom   1F    basis set group =>   2
---------------------------------
AUXILIARY/J BASIS SET INFORMATION
---------------------------------
There are 2 groups of distinct atoms

 Group   1 Type K   : 19s5p5d3f1g contracted to 8s4p4d1f1g pattern {121111111/2111/2111/3/1}
 Group   2 Type F   : 12s5p4d2f1g contracted to 6s4p3d1f1g pattern {711111/2111/211/2/1}

Atom   0K    basis set group =>   1
Atom   1F    basis set group =>   2


           ************************************************************
           *        Program running with 4 parallel MPI-processes     *
           *              working on a common directory               *
           ************************************************************
------------------------------------------------------------------------------
                           ORCA GTO INTEGRAL CALCULATION
                           -- RI-GTO INTEGRALS CHOSEN --
------------------------------------------------------------------------------
------------------------------------------------------------------------------
                   ___                                                        
                  /   \      - P O W E R E D   B Y -                         
                 /     \                                                     
                 |  |  |   _    _      __       _____    __    __             
                 |  |  |  | |  | |    /  \     |  _  \  |  |  /  |          
                  \  \/   | |  | |   /    \    | | | |  |  | /  /          
                 / \  \   | |__| |  /  /\  \   | |_| |  |  |/  /          
                |  |  |   |  __  | /  /__\  \  |    /   |      \           
                |  |  |   | |  | | |   __   |  |    \   |  |\   \          
                \     /   | |  | | |  |  |  |  | |\  \  |  | \   \       
                 \___/    |_|  |_| |__|  |__|  |_| \__\ |__|  \__/        
                                                                              
                      - O R C A' S   B I G   F R I E N D -                    
                                      &                                       
                       - I N T E G R A L  F E E D E R -                       
                                                                              
 v1 FN, 2020, v2 2021                                                         
------------------------------------------------------------------------------


Reading SHARK input file pbeh-3c.SHARKINP.tmp ... ok
----------------------
SHARK INTEGRAL PACKAGE
----------------------

Number of atoms                             ...      2
Number of basis functions                   ...     39
Number of shells                            ...     17
Maximum angular momentum                    ...      2
Integral batch strategy                     ... SHARK/LIBINT Hybrid
RI-J (if used) integral strategy            ... SPLIT-RIJ (Revised 2003 algorithm where possible)
Printlevel                                  ...      1
Contraction scheme used                     ... SEGMENTED contraction
Coulomb Range Separation                    ... NOT USED
Exchange Range Separation                   ... NOT USED
Finite Nucleus Model                        ... NOT USED
Auxiliary Coulomb fitting basis             ... AVAILABLE
   # of basis functions in Aux-J            ...    105
   # of shells in Aux-J                     ...     33
   Maximum angular momentum in Aux-J        ...      4
Auxiliary J/K fitting basis                 ... NOT available
Auxiliary Correlation fitting basis         ... NOT available
Auxiliary 'external' fitting basis          ... NOT available
Integral threshold                          ...     2.500000e-11
Primitive cut-off                           ...     2.500000e-12
Primitive pair pre-selection threshold      ...     2.500000e-12

Calculating pre-screening integrals         ... done (  0.1 sec) Dimension = 17
Organizing shell pair data                  ... done (  0.0 sec)
Shell pair information
Total number of shell pairs                 ...       153
Shell pairs after pre-screening             ...       147
Total number of primitive shell pairs       ...       788
Primitive shell pairs kept                  ...       668
          la=0 lb=0:     41 shell pairs
          la=1 lb=0:     43 shell pairs
          la=1 lb=1:     15 shell pairs
          la=2 lb=0:     27 shell pairs
          la=2 lb=1:     15 shell pairs
          la=2 lb=2:      6 shell pairs

Calculating one electron integrals          ... done (  0.0 sec)
Calculating RI/J V-Matrix + Cholesky decomp.... done (  0.1 sec)
Calculating Nuclear repulsion               ... done (  0.0 sec) ENN=     41.551893024656 Eh

SHARK setup successfully completed in   0.5 seconds

Maximum memory used throughout the entire GTOINT-calculation: 9.7 MB


           ************************************************************
           *        Program running with 4 parallel MPI-processes     *
           *              working on a common directory               *
           ************************************************************
-------------------------------------------------------------------------------
                                 ORCA SCF
-------------------------------------------------------------------------------

------------
SCF SETTINGS
------------
Hamiltonian:
 Density Functional     Method          .... DFT(GTOs)
 Exchange Functional    Exchange        .... PBE
   PBE kappa parameter   XKappa         ....  1.024500
   PBE mue parameter    XMuePBE         ....  0.123457
 Correlation Functional Correlation     .... PBE
   PBE beta parameter  CBetaPBE         ....  0.030000
 LDA part of GGA corr.  LDAOpt          .... PW91-LDA
 Gradients option       PostSCFGGA      .... off
 Hybrid DFT is turned on
   Fraction HF Exchange ScalHFX         ....  0.420000
   Scaling of DF-GGA-X  ScalDFX         ....  0.580000
   Scaling of DF-GGA-C  ScalDFC         ....  1.000000
   Scaling of DF-LDA-C  ScalLDAC        ....  1.000000
   Perturbative correction              ....  0.000000
   Density functional embedding theory  .... OFF
 RI-approximation to the Coulomb term is turned on
   Number of AuxJ basis functions       .... 105
   RIJ-ON(X) (HFX calculated with O(N)) .... on
   Number of AuxJ basis functions       .... 105
   RIJ-COSX (HFX calculated with COS-X)).... on


General Settings:
 Integral files         IntName         .... pbeh-3c
 Hartree-Fock type      HFTyp           .... RHF
 Total Charge           Charge          ....    0
 Multiplicity           Mult            ....    1
 Number of Electrons    NEL             ....   28
 Basis Dimension        Dim             ....   39
 Nuclear Repulsion      ENuc            ....     41.5518930247 Eh

Convergence Acceleration:
 DIIS                   CNVDIIS         .... on
   Start iteration      DIISMaxIt       ....    12
   Startup error        DIISStart       ....  0.200000
   # of expansion vecs  DIISMaxEq       ....     5
   Bias factor          DIISBfac        ....   1.050
   Max. coefficient     DIISMaxC        ....  10.000
 Trust-Rad. Augm. Hess. CNVTRAH         .... auto
   Auto Start mean grad. ratio tolernc. ....  1.125000
   Auto Start start iteration           ....    20
   Auto Start num. interpolation iter.  ....    10
   Max. Number of Micro iterations      ....    16
   Max. Number of Macro iterations      .... Maxiter - #DIIS iter
   Number of Davidson start vectors     ....     2
   Converg. threshold I  (grad. norm)   ....   1.000e-05
   Converg. threshold II (energy diff.) ....   1.000e-08
   Grad. Scal. Fac. for Micro threshold ....   0.100
   Minimum threshold for Micro iter.    ....   0.010
   NR start threshold (gradient norm)   ....   0.001
   Initial trust radius                 ....   0.400
   Minimum AH scaling param. (alpha)    ....   1.000
   Maximum AH scaling param. (alpha)    .... 1000.000
   Orbital update algorithm             .... Taylor
   White noise on init. David. guess    .... on
   Maximum white noise                  ....   0.010
   Quad. conv. algorithm                .... NR
   COSX micro iterations for RIJONX calc.... off
 SOSCF                  CNVSOSCF        .... on
   Start iteration      SOSCFMaxIt      ....   150
   Startup grad/error   SOSCFStart      ....  0.003300
 Level Shifting         CNVShift        .... on
   Level shift para.    LevelShift      ....    0.2500
   Turn off err/grad.   ShiftErr        ....    0.0010
 Zerner damping         CNVZerner       .... off
 Static damping         CNVDamp         .... on
   Fraction old density DampFac         ....    0.7000
   Max. Damping (<1)    DampMax         ....    0.9800
   Min. Damping (>=0)   DampMin         ....    0.0000
   Turn off err/grad.   DampErr         ....    0.1000
 Fernandez-Rico         CNVRico         .... off

SCF Procedure:
 Maximum # iterations   MaxIter         ....   125
 SCF integral mode      SCFMode         .... Direct
   Integral package                     .... SHARK and LIBINT hybrid scheme
 Reset frequency        DirectResetFreq ....    20
 Integral Threshold     Thresh          ....  2.500e-11 Eh
 Primitive CutOff       TCut            ....  2.500e-12 Eh

Convergence Tolerance:
 Convergence Check Mode ConvCheckMode   .... Total+1el-Energy
 Convergence forced     ConvForced      .... 0
 Energy Change          TolE            ....  1.000e-08 Eh
 1-El. energy change                    ....  1.000e-05 Eh
 Orbital Gradient       TolG            ....  1.000e-05
 Orbital Rotation angle TolX            ....  1.000e-05
 DIIS Error             TolErr          ....  5.000e-07


Diagonalization of the overlap matrix:
Smallest eigenvalue                        ... 8.546e-02
Time for diagonalization                   ...    0.001 sec
Threshold for overlap eigenvalues          ... 1.000e-08
Number of eigenvalues below threshold      ... 0
Time for construction of square roots      ...    0.006 sec
Total time needed                          ...    0.007 sec

--------------------------------
INITIAL GUESS: MINIMAL BASIS EHT
--------------------------------
The minimal basis has 18 functions
EHT matrix was diagonalized
Basis set overlap was calculated now projecting the orbitals
Using GuessMode=FMatrix for the initial guess
C*T matrix was formed
Effective Fockian was calculated
Effective Fockian was diagonalized
Initial density was built
                      ------------------
                      INITIAL GUESS DONE
                      ------------------
-------------------
DFT GRID GENERATION
-------------------

General Integration Accuracy     IntAcc      ... 4.959
Radial Grid Type                 RadialGrid  ... OptM3 with GC (2021)
Angular Grid (max. ang.)         AngularGrid ... 6 (Lebedev-590)
Angular grid pruning method      GridPruning ... 4 (adaptive)
Weight generation scheme         WeightScheme... Becke
Basis function cutoff            BFCut       ... 1.0000e-11
Integration weight cutoff        WCut        ... 1.0000e-14
Angular grids for H and He will be reduced by one unit
Partially contracted basis set               ... off
Rotationally invariant grid construction     ... off

Total number of grid points                  ...    42549
Total number of batches                      ...      666
Average number of points per batch           ...       63
Average number of grid points per atom       ...    21274
Time for grid setup =    1.223 sec

--------------------
COSX GRID GENERATION
--------------------

GRIDX 1
-------
General Integration Accuracy     IntAcc      ... 4.020
Radial Grid Type                 RadialGrid  ... OptM3 with GC (2021)
Angular Grid (max. ang.)         AngularGrid ... 2 (Lebedev-110)
Angular grid pruning method      GridPruning ... 4 (adaptive)
Weight generation scheme         WeightScheme... Becke
Basis function cutoff            BFCut       ... 1.0000e-11
Integration weight cutoff        WCut        ... 1.0000e-14
Angular grids for H and He will be reduced by one unit
Partially contracted basis set               ... on
Rotationally invariant grid construction     ... off

Total number of grid points                  ...     4581
Total number of batches                      ...       72
Average number of points per batch           ...       63
Average number of grid points per atom       ...     2290
UseSFitting                                  ... on

GRIDX 2
-------
General Integration Accuracy     IntAcc      ... 4.338
Radial Grid Type                 RadialGrid  ... OptM3 with GC (2021)
Angular Grid (max. ang.)         AngularGrid ... 3 (Lebedev-194)
Angular grid pruning method      GridPruning ... 4 (adaptive)
Weight generation scheme         WeightScheme... Becke
Basis function cutoff            BFCut       ... 1.0000e-11
Integration weight cutoff        WCut        ... 1.0000e-14
Angular grids for H and He will be reduced by one unit
Partially contracted basis set               ... on
Rotationally invariant grid construction     ... off

Total number of grid points                  ...    10464
Total number of batches                      ...      164
Average number of points per batch           ...       63
Average number of grid points per atom       ...     5232
UseSFitting                                  ... on

GRIDX 3
-------
General Integration Accuracy     IntAcc      ... 4.871
Radial Grid Type                 RadialGrid  ... OptM3 with GC (2021)
Angular Grid (max. ang.)         AngularGrid ... 4 (Lebedev-302)
Angular grid pruning method      GridPruning ... 4 (adaptive)
Weight generation scheme         WeightScheme... Becke
Basis function cutoff            BFCut       ... 1.0000e-11
Integration weight cutoff        WCut        ... 1.0000e-14
Angular grids for H and He will be reduced by one unit
Partially contracted basis set               ... on
Rotationally invariant grid construction     ... off

Total number of grid points                  ...    19476
Total number of batches                      ...      305
Average number of points per batch           ...       63
Average number of grid points per atom       ...     9738
UseSFitting                                  ... on

Time for X-Grid setup             =    0.808 sec

--------------
SCF ITERATIONS
--------------
ITER       Energy         Delta-E        Max-DP      RMS-DP      [F,P]     Damp
               ***  Starting incremental Fock matrix formation  ***
  0   -698.5049670666   0.000000000000 2.01144921  0.06723731  0.8053146 0.7000
  1   -698.3284301606   0.176536905987 0.59912032  0.01979936  0.2089959 0.7000
                               ***Turning on DIIS***
  2   -698.5951510924  -0.266720931779 0.42255945  0.01409416  0.1836617 0.7000
  3   -698.7679741089  -0.172823016442 0.29466236  0.01006881  0.1866750 0.7000
  4   -698.8801116076  -0.112137498774 0.20410113  0.00712642  0.1413240 0.7000
  5   -698.9557502762  -0.075638668566 0.47222018  0.01660413  0.0926346 0.0000
  6   -699.1295661449  -0.173815868740 0.01183123  0.00078702  0.0114505 0.0000
  7   -699.1299270063  -0.000360861381 0.00797137  0.00045981  0.0037270 0.0000
                      *** Initiating the SOSCF procedure ***
                           *** Shutting down DIIS ***
                      *** Re-Reading the Fockian *** 
                      *** Removing any level shift *** 
ITER      Energy       Delta-E        Grad      Rot      Max-DP    RMS-DP
  8   -699.13001192  -0.0000849155  0.001099  0.001099  0.003165  0.000205
               *** Restarting incremental Fock matrix formation ***
  9   -699.13012858  -0.0001166555  0.000635  0.002805  0.003046  0.000172
 10   -699.13013820  -0.0000096214  0.000149  0.000925  0.000943  0.000055
 11   -699.13013856  -0.0000003624  0.000255  0.000116  0.000330  0.000023
 12   -699.13013882  -0.0000002636  0.000054  0.000143  0.000173  0.000010
 13   -699.13013884  -0.0000000148  0.000004  0.000026  0.000035  0.000002
                 **** Energy Check signals convergence ****
              ***Rediagonalizing the Fockian in SOSCF/NRSCF***

               *****************************************************
               *                     SUCCESS                       *
               *           SCF CONVERGED AFTER  14 CYCLES          *
               *****************************************************

Old exchange energy                            =    -18.022735878 Eh
New exchange energy                            =    -18.022950511 Eh
Exchange energy change after final integration =     -0.000214633 Eh
Total energy after final integration           =   -699.130353474 Eh
Final COS-X integration done in                =     0.288 sec

----------------
TOTAL SCF ENERGY
----------------

Total Energy       :         -699.13035347 Eh          -19024.30409 eV

Components:
Nuclear Repulsion  :           41.55189302 Eh            1130.68449 eV
Electronic Energy  :         -740.68224650 Eh          -20154.98859 eV
One Electron Energy:        -1049.39667214 Eh          -28555.53518 eV
Two Electron Energy:          308.71442564 Eh            8400.54660 eV
Max COSX asymmetry :            0.00006022 Eh               0.00164 eV

Virial components:
Potential Energy   :        -1397.28010519 Eh          -38021.92466 eV
Kinetic Energy     :          698.14975172 Eh           18997.62056 eV
Virial Ratio       :            2.00140457


DFT components:
N(Alpha)           :       13.999589682773 electrons
N(Beta)            :       13.999589682773 electrons
N(Total)           :       27.999179365546 electrons
E(X)               :      -24.059528423106 Eh       
E(C)               :       -1.427373551016 Eh       
E(XC)              :      -25.486901974122 Eh       
DFET-embed. en.    :        0.000000000000 Eh       

---------------
SCF CONVERGENCE
---------------

  Last Energy change         ...   -8.8301e-10  Tolerance :   1.0000e-08
  Last MAX-Density change    ...    3.9968e-15  Tolerance :   1.0000e-07
  Last RMS-Density change    ...    1.9644e-16  Tolerance :   5.0000e-09
  Last Orbital Gradient      ...    6.6460e-07  Tolerance :   1.0000e-05
  Last Orbital Rotation      ...    1.2985e-06  Tolerance :   1.0000e-05

             **** THE GBW FILE WAS UPDATED (pbeh-3c.gbw) ****
             **** DENSITY pbeh-3c.scfp WAS UPDATED ****
             **** ENERGY FILE WAS UPDATED (pbeh-3c.en.tmp) ****
             **** THE GBW FILE WAS UPDATED (pbeh-3c.gbw) ****
             **** DENSITY pbeh-3c.scfp WAS UPDATED ****
----------------
ORBITAL ENERGIES
----------------

  NO   OCC          E(Eh)            E(eV) 
   0   2.0000    -130.660652     -3555.4571 
   1   2.0000     -24.838839      -675.8992 
   2   2.0000     -13.541232      -368.4757 
   3   2.0000     -10.800080      -293.8851 
   4   2.0000     -10.800080      -293.8851 
   5   2.0000     -10.799382      -293.8661 
   6   2.0000      -1.473577       -40.0981 
   7   2.0000      -1.025412       -27.9029 
   8   2.0000      -0.799552       -21.7569 
   9   2.0000      -0.799552       -21.7569 
  10   2.0000      -0.782456       -21.2917 
  11   2.0000      -0.255237        -6.9454 
  12   2.0000      -0.253883        -6.9085 
  13   2.0000      -0.253882        -6.9085 
  14   0.0000      -0.028854        -0.7852 
  15   0.0000       0.040218         1.0944 
  16   0.0000       0.043437         1.1820 
  17   0.0000       0.043437         1.1820 
  18   0.0000       0.081665         2.2222 
  19   0.0000       0.170955         4.6519 
  20   0.0000       0.170956         4.6519 
  21   0.0000       0.212848         5.7919 
  22   0.0000       0.212848         5.7919 
  23   0.0000       0.275928         7.5084 
  24   0.0000       0.605355        16.4725 
  25   0.0000       0.605356        16.4726 
  26   0.0000       0.612154        16.6575 
  27   0.0000       0.612154        16.6575 
  28   0.0000       0.635345        17.2886 
  29   0.0000       1.426563        38.8187 
  30   0.0000       1.429771        38.9060 
  31   0.0000       1.430362        38.9221 
  32   0.0000       1.443464        39.2786 
  33   0.0000       1.443464        39.2786 
  34   0.0000       1.496710        40.7276 
  35   0.0000       1.496710        40.7276 
  36   0.0000       1.570548        42.7368 
  37   0.0000       2.311929        62.9108 
  38   0.0000      32.491950       884.1509 

                    ********************************
                    * MULLIKEN POPULATION ANALYSIS *
                    ********************************

-----------------------
MULLIKEN ATOMIC CHARGES
-----------------------
   0 K :    0.661490
   1 F :   -0.661490
Sum of atomic charges:   -0.0000000

--------------------------------
MULLIKEN REDUCED ORBITAL CHARGES
--------------------------------
  0 K s       :     6.038080  s :     6.038080
      pz      :     4.020194  p :    12.089069
      px      :     4.034438
      py      :     4.034438
      dz2     :     0.062219  d :     0.211360
      dxz     :     0.074571
      dyz     :     0.074571
      dx2y2   :     0.000000
      dxy     :     0.000000
  1 F s       :     3.939036  s :     3.939036
      pz      :     1.939711  p :     5.720137
      px      :     1.890213
      py      :     1.890213
      dz2     :     0.000760  d :     0.002317
      dxz     :     0.000778
      dyz     :     0.000778
      dx2y2   :     0.000000
      dxy     :     0.000000


                     *******************************
                     * LOEWDIN POPULATION ANALYSIS *
                     *******************************

----------------------
LOEWDIN ATOMIC CHARGES
----------------------
   0 K :    0.547777
   1 F :   -0.547777

-------------------------------
LOEWDIN REDUCED ORBITAL CHARGES
-------------------------------
  0 K s       :     6.040306  s :     6.040306
      pz      :     4.024179  p :    12.090853
      px      :     4.033337
      py      :     4.033337
      dz2     :     0.144993  d :     0.321064
      dxz     :     0.088036
      dyz     :     0.088036
      dx2y2   :     0.000000
      dxy     :     0.000000
  1 F s       :     3.827561  s :     3.827561
      pz      :     1.946707  p :     5.700251
      px      :     1.876772
      py      :     1.876772
      dz2     :     0.016254  d :     0.019964
      dxz     :     0.001855
      dyz     :     0.001855
      dx2y2   :     0.000000
      dxy     :     0.000000


                      *****************************
                      * MAYER POPULATION ANALYSIS *
                      *****************************

  NA   - Mulliken gross atomic population
  ZA   - Total nuclear charge
  QA   - Mulliken gross atomic charge
  VA   - Mayer's total valence
  BVA  - Mayer's bonded valence
  FA   - Mayer's free valence

  ATOM       NA         ZA         QA         VA         BVA        FA
  0 K     18.3385    19.0000     0.6615     0.6336     0.6336     0.0000
  1 F      9.6615     9.0000    -0.6615     0.6336     0.6336    -0.0000

  Mayer bond orders larger than 0.100000
B(  0-K ,  1-F ) :   0.6336 

-------
TIMINGS
-------

Total SCF time: 0 days 0 hours 0 min 16 sec 

Total time                  ....      16.135 sec
Sum of individual times     ....      14.017 sec  ( 86.9%)

Fock matrix formation       ....      11.454 sec  ( 71.0%)
  Split-RI-J                ....       1.292 sec  ( 11.3% of F)
  Chain of spheres X        ....       2.459 sec  ( 21.5% of F)
  XC integration            ....       3.748 sec  ( 32.7% of F)
    Basis function eval.    ....       0.299 sec  (  8.0% of XC)
    Density eval.           ....       0.213 sec  (  5.7% of XC)
    XC-Functional eval.     ....       0.366 sec  (  9.8% of XC)
    XC-Potential eval.      ....       0.083 sec  (  2.2% of XC)
Diagonalization             ....       0.056 sec  (  0.3%)
Density matrix formation    ....       0.016 sec  (  0.1%)
Population analysis         ....       0.117 sec  (  0.7%)
Initial guess               ....       0.003 sec  (  0.0%)
Orbital Transformation      ....       0.000 sec  (  0.0%)
Orbital Orthonormalization  ....       0.000 sec  (  0.0%)
DIIS solution               ....       0.251 sec  (  1.6%)
SOSCF solution              ....       0.089 sec  (  0.6%)
Grid generation             ....       2.030 sec  ( 12.6%)

Maximum memory used throughout the entire SCF-calculation: 44.3 MB


-------------------------------------------------------------------------------
                          DFT DISPERSION CORRECTION                            
                                                                               
                              DFTD3 V3.1  Rev 1                                
                          USING Becke-Johnson damping                          
-------------------------------------------------------------------------------
The PBEh-3c composite method is recognized
Using three-body term ABC
Active option DFTDOPT                   ...         4   

molecular C6(AA) [au] = 450.682925 


            DFT-D V3
 parameters
 s6 scaling factor         :     1.0000 
 a1 scaling factor         :     0.4860 
 s8 scaling factor         :     0.0000 
 a2 scaling factor         :     4.5000 
 Damping factor alpha9(ATM):    16.0000 
 ad hoc parameters k1-k3   :    16.0000     1.3333    -4.0000 

 Edisp/kcal,au: -0.079108802719  -0.000126067888 
 E6   /kcal   :  -0.079108803 
 E8   /kcal   :  -0.000000000 
 E6(ABC)      :  -0.000000000 
 % E8         :   0.000000000 
 % E6(ABC)    :   0.000000000 

-------------------------   ----------------
Dispersion correction           -0.000126068
-------------------------   ----------------

------------------   -----------------
gCP correction             0.000908516
------------------   -----------------

-------------------------   --------------------
FINAL SINGLE POINT ENERGY      -699.129571025199
-------------------------   --------------------


                            ***************************************
                            *     ORCA property calculations      *
                            ***************************************

                                    ---------------------
                                    Active property flags
                                    ---------------------
   (+) Dipole Moment


------------------------------------------------------------------------------
                       ORCA ELECTRIC PROPERTIES CALCULATION
------------------------------------------------------------------------------

Dipole Moment Calculation                       ... on
Quadrupole Moment Calculation                   ... off
Polarizability Calculation                      ... off
GBWName                                         ... pbeh-3c.gbw
Electron density                                ... pbeh-3c.scfp
The origin for moment calculation is the CENTER OF MASS  = ( 0.000000,  0.000000 -0.711956)

-------------
DIPOLE MOMENT
-------------
                                X             Y             Z
Electronic contribution:      0.00000       0.00000      -2.55338
Nuclear contribution   :      0.00000       0.00000      -0.64190
                        -----------------------------------------
Total Dipole Moment    :      0.00000       0.00000      -3.19528
                        -----------------------------------------
Magnitude (a.u.)       :      3.19528
Magnitude (Debye)      :      8.12176



--------------------
Rotational spectrum 
--------------------
 
Rotational constants in cm-1:     0.000000     0.278010     0.278010 
Rotational constants in MHz :     0.000000  8334.533402  8334.533402 

 Dipole components along the rotational axes: 
x,y,z [a.u.] :    -3.195280     0.000000     0.000000 
x,y,z [Debye]:    -8.121757     0.000000     0.000000 

 

Timings for individual modules:

Sum of individual times         ...       17.329 sec (=   0.289 min)
GTO integral calculation        ...        0.852 sec (=   0.014 min)   4.9 %
SCF iterations                  ...       16.476 sec (=   0.275 min)  95.1 %
                             ****ORCA TERMINATED NORMALLY****
TOTAL RUN TIME: 0 days 0 hours 0 minutes 19 seconds 336 msec
