
                                 *****************
                                 * O   R   C   A *
                                 *****************

                                            #,                                       
                                            ###                                      
                                            ####                                     
                                            #####                                    
                                            ######                                   
                                           ########,                                 
                                     ,,################,,,,,                         
                               ,,#################################,,                 
                          ,,##########################################,,             
                       ,#########################################, ''#####,          
                    ,#############################################,,   '####,        
                  ,##################################################,,,,####,       
                ,###########''''           ''''###############################       
              ,#####''   ,,,,##########,,,,          '''####'''          '####       
            ,##' ,,,,###########################,,,                        '##       
           ' ,,###''''                  '''############,,,                           
         ,,##''                                '''############,,,,        ,,,,,,###''
      ,#''                                            '''#######################'''  
     '                                                          ''''####''''         
             ,#######,   #######,   ,#######,      ##                                
            ,#'     '#,  ##    ##  ,#'     '#,    #''#        ######   ,####,        
            ##       ##  ##   ,#'  ##            #'  '#       #        #'  '#        
            ##       ##  #######   ##           ,######,      #####,   #    #        
            '#,     ,#'  ##    ##  '#,     ,#' ,#      #,         ##   #,  ,#        
             '#######'   ##     ##  '#######'  #'      '#     #####' # '####'        



                  #######################################################
                  #                        -***-                        #
                  #          Department of theory and spectroscopy      #
                  #    Directorship and core code : Frank Neese         #
                  #        Max Planck Institute fuer Kohlenforschung    #
                  #                Kaiser Wilhelm Platz 1               #
                  #                 D-45470 Muelheim/Ruhr               #
                  #                      Germany                        #
                  #                                                     #
                  #                  All rights reserved                #
                  #                        -***-                        #
                  #######################################################


                         Program Version 5.0.3 -  RELEASE  -


 With contributions from (in alphabetic order):
   Daniel Aravena         : Magnetic Suceptibility
   Michael Atanasov       : Ab Initio Ligand Field Theory (pilot matlab implementation)
   Alexander A. Auer      : GIAO ZORA, VPT2 properties, NMR spectrum
   Ute Becker             : Parallelization
   Giovanni Bistoni       : ED, misc. LED, open-shell LED, HFLD
   Martin Brehm           : Molecular dynamics
   Dmytro Bykov           : SCF Hessian
   Vijay G. Chilkuri      : MRCI spin determinant printing, contributions to CSF-ICE
   Dipayan Datta          : RHF DLPNO-CCSD density
   Achintya Kumar Dutta   : EOM-CC, STEOM-CC
   Dmitry Ganyushin       : Spin-Orbit,Spin-Spin,Magnetic field MRCI
   Miquel Garcia          : C-PCM and meta-GGA Hessian, CC/C-PCM, Gaussian charge scheme
   Yang Guo               : DLPNO-NEVPT2, F12-NEVPT2, CIM, IAO-localization
   Andreas Hansen         : Spin unrestricted coupled pair/coupled cluster methods
   Benjamin Helmich-Paris : MC-RPA, TRAH-SCF, COSX integrals
   Lee Huntington         : MR-EOM, pCC
   Robert Izsak           : Overlap fitted RIJCOSX, COSX-SCS-MP3, EOM
   Marcus Kettner         : VPT2
   Christian Kollmar      : KDIIS, OOCD, Brueckner-CCSD(T), CCSD density, CASPT2, CASPT2-K
   Simone Kossmann        : Meta GGA functionals, TD-DFT gradient, OOMP2, MP2 Hessian
   Martin Krupicka        : Initial AUTO-CI
   Lucas Lang             : DCDCAS
   Marvin Lechner         : AUTO-CI (C++ implementation), FIC-MRCC
   Dagmar Lenk            : GEPOL surface, SMD
   Dimitrios Liakos       : Extrapolation schemes; Compound Job, initial MDCI parallelization
   Dimitrios Manganas     : Further ROCIS development; embedding schemes
   Dimitrios Pantazis     : SARC Basis sets
   Anastasios Papadopoulos: AUTO-CI, single reference methods and gradients
   Taras Petrenko         : DFT Hessian,TD-DFT gradient, ASA, ECA, R-Raman, ABS, FL, XAS/XES, NRVS
   Peter Pinski           : DLPNO-MP2, DLPNO-MP2 Gradient
   Christoph Reimann      : Effective Core Potentials
   Marius Retegan         : Local ZFS, SOC
   Christoph Riplinger    : Optimizer, TS searches, QM/MM, DLPNO-CCSD(T), (RO)-DLPNO pert. Triples
   Tobias Risthaus        : Range-separated hybrids, TD-DFT gradient, RPA, STAB
   Michael Roemelt        : Original ROCIS implementation
   Masaaki Saitow         : Open-shell DLPNO-CCSD energy and density
   Barbara Sandhoefer     : DKH picture change effects
   Avijit Sen             : IP-ROCIS
   Kantharuban Sivalingam : CASSCF convergence, NEVPT2, FIC-MRCI
   Bernardo de Souza      : ESD, SOC TD-DFT
   Georgi Stoychev        : AutoAux, RI-MP2 NMR, DLPNO-MP2 response
   Willem Van den Heuvel  : Paramagnetic NMR
   Boris Wezisla          : Elementary symmetry handling
   Frank Wennmohs         : Technical directorship


 We gratefully acknowledge several colleagues who have allowed us to
 interface, adapt or use parts of their codes:
   Stefan Grimme, W. Hujo, H. Kruse, P. Pracht,  : VdW corrections, initial TS optimization,
                  C. Bannwarth, S. Ehlert          DFT functionals, gCP, sTDA/sTD-DF
   Ed Valeev, F. Pavosevic, A. Kumar             : LibInt (2-el integral package), F12 methods
   Garnet Chan, S. Sharma, J. Yang, R. Olivares  : DMRG
   Ulf Ekstrom                                   : XCFun DFT Library
   Mihaly Kallay                                 : mrcc  (arbitrary order and MRCC methods)
   Jiri Pittner, Ondrej Demel                    : Mk-CCSD
   Frank Weinhold                                : gennbo (NPA and NBO analysis)
   Christopher J. Cramer and Donald G. Truhlar   : smd solvation model
   Lars Goerigk                                  : TD-DFT with DH, B97 family of functionals
   V. Asgeirsson, H. Jonsson                     : NEB implementation
   FAccTs GmbH                                   : IRC, NEB, NEB-TS, DLPNO-Multilevel, CI-OPT
                                                   MM, QMMM, 2- and 3-layer-ONIOM, Crystal-QMMM,
                                                   LR-CPCM, SF, NACMEs, symmetry and pop. for TD-DFT,
                                                   nearIR, NL-DFT gradient (VV10), updates on ESD,
                                                   ML-optimized integration grids
   S Lehtola, MJT Oliveira, MAL Marques          : LibXC Library
   Liviu Ungur et al                             : ANISO software


 Your calculation uses the libint2 library for the computation of 2-el integrals
 For citations please refer to: http://libint.valeyev.net

 Your ORCA version has been built with support for libXC version: 5.1.0
 For citations please refer to: https://tddft.org/programs/libxc/

 This ORCA versions uses:
   CBLAS   interface :  Fast vector & matrix operations
   LAPACKE interface :  Fast linear algebra routines
   SCALAPACK package :  Parallel linear algebra routines
   Shared memory     :  Shared parallel matrices
   BLAS/LAPACK       :  OpenBLAS 0.3.15  USE64BITINT DYNAMIC_ARCH NO_AFFINITY Haswell SINGLE_THREADED
        Core in use  :  Haswell
   Copyright (c) 2011-2014, The OpenBLAS Project




***************************************
The coordinates will be read from file: 9.xyz
***************************************


Your calculation utilizes the geometrical counterpoise correction gCP
Please cite in your paper:
H.Kruse, S. Grimme J.Chem.Phys., 136, (2012), 154101 
   

Your calculation utilizes the atom-pairwise dispersion correction
with the Becke-Johnson damping scheme (D3BJ)
Cite in your paper:
S.Grimme, S.Ehrlich, L.Goerigk, J Comput Chem, (2011), 32, 1456–1465 
S.Grimme, J.Antony, S.Ehrlich and H.Krieg, J.Chem.Phys., 132, (2010), 154104 
   

Your calculation employs the composite approach PBEh-3c.
Please cite in your paper:
S. Grimme, J. G. Brandenburg, C. Bannwarth, A. Hansen J.Chem.Phys., 143, (2015), 054107 
   

================================================================================

----- Orbital basis set information -----
Your calculation utilizes the basis: def2-mSVP

----- AuxJ basis set information -----
Your calculation utilizes the auxiliary basis: def2/J
   F. Weigend, Phys. Chem. Chem. Phys. 8, 1057 (2006).

================================================================================
                                        WARNINGS
                       Please study these warnings very carefully!
================================================================================


INFO   : the flag for use of the SHARK integral package has been found!

================================================================================
                                       INPUT FILE
================================================================================
NAME = pbeh-3c.inp
|  1> ! PBEh-3c def2/J TightSCF DefGrid3
|  2> 
|  3> %maxcore 60000
|  4> 
|  5> %pal
|  6> nprocs 4
|  7> end
|  8> 
|  9> *xyzfile 0 1 9.xyz
| 10> 
| 11>                          ****END OF INPUT****
================================================================================

                       ****************************
                       * Single Point Calculation *
                       ****************************

---------------------------------
CARTESIAN COORDINATES (ANGSTROEM)
---------------------------------
  C     -0.567498    3.992046    0.687218
  C     -0.567498    3.992046   -0.687218
  C      0.836071    3.862184   -1.155590
  C      0.836071    3.862184    1.155590
  C      1.663358    3.652311    0.000000
  C      0.841179    2.989269    2.243996
  C     -1.379466    3.078186    1.417178
  C     -0.571312    2.656971    2.539419
  C     -2.204135    2.111284    0.732089
  C     -1.379466    3.078186   -1.417178
  C     -2.204135    2.111284   -0.732089
  C      0.841179    2.989269   -2.243996
  C     -0.571312    2.656971   -2.539419
  C      1.816792    1.909349   -2.303664
  C      2.537193    2.531617    0.000000
  C      2.614991    1.679756   -1.157519
  C      1.816792    1.909349    2.303664
  C      2.614991    1.679756    1.157519
  C      1.485580    0.758125    3.089343
  C     -0.865718    1.495729    3.210795
  C      0.214657    0.681345    3.709877
  C     -2.486434    0.856675    1.449104
  C     -1.886919    0.603167    2.712777
  C     -2.879925   -0.301740    0.704029
  C     -2.486434    0.856675   -1.449104
  C     -2.879925   -0.301740   -0.704029
  C     -0.865718    1.495729   -3.210795
  C     -1.886919    0.603167   -2.712777
  C      1.485580    0.758125   -3.089343
  C      0.214657    0.681345   -3.709877
  C      1.886919   -0.603167   -2.712777
  C      2.879925    0.301740   -0.704029
  C      2.879925    0.301740    0.704029
  C      2.486434   -0.856675   -1.449104
  C      1.886919   -0.603167    2.712777
  C      2.486434   -0.856675    1.449104
  C     -0.214657   -0.681345    3.709877
  C     -1.485580   -0.758125    3.089343
  C      0.865718   -1.495729    3.210795
  C     -2.614991   -1.679756    1.157519
  C     -1.816792   -1.909349    2.303664
  C     -2.614991   -1.679756   -1.157519
  C     -2.537193   -2.531617    0.000000
  C     -1.485580   -0.758125   -3.089343
  C     -0.214657   -0.681345   -3.709877
  C      0.865718   -1.495729   -3.210795
  C     -1.816792   -1.909349   -2.303664
  C      0.571312   -2.656971   -2.539419
  C     -0.841179   -2.989269   -2.243996
  C      2.204135   -2.111284   -0.732089
  C      2.204135   -2.111284    0.732089
  C      1.379466   -3.078186   -1.417178
  C      0.571312   -2.656971    2.539419
  C     -0.841179   -2.989269    2.243996
  C      1.379466   -3.078186    1.417178
  C     -1.663358   -3.652311    0.000000
  C     -0.836071   -3.862184   -1.155590
  C      0.567498   -3.992046   -0.687218
  C     -0.836071   -3.862184    1.155590
  C      0.567498   -3.992046    0.687218

----------------------------
CARTESIAN COORDINATES (A.U.)
----------------------------
  NO LB      ZA    FRAG     MASS         X           Y           Z
   0 C     6.0000    0    12.011   -1.072417    7.543873    1.298655
   1 C     6.0000    0    12.011   -1.072417    7.543873   -1.298655
   2 C     6.0000    0    12.011    1.579946    7.298470   -2.183750
   3 C     6.0000    0    12.011    1.579946    7.298470    2.183750
   4 C     6.0000    0    12.011    3.143291    6.901867    0.000000
   5 C     6.0000    0    12.011    1.589597    5.648899    4.240537
   6 C     6.0000    0    12.011   -2.606814    5.816929    2.678078
   7 C     6.0000    0    12.011   -1.079623    5.020947    4.798806
   8 C     6.0000    0    12.011   -4.165211    3.989749    1.383449
   9 C     6.0000    0    12.011   -2.606814    5.816929   -2.678078
  10 C     6.0000    0    12.011   -4.165211    3.989749   -1.383449
  11 C     6.0000    0    12.011    1.589597    5.648899   -4.240537
  12 C     6.0000    0    12.011   -1.079623    5.020947   -4.798806
  13 C     6.0000    0    12.011    3.433240    3.608146   -4.353294
  14 C     6.0000    0    12.011    4.794600    4.784063    0.000000
  15 C     6.0000    0    12.011    4.941616    3.174278   -2.187393
  16 C     6.0000    0    12.011    3.433240    3.608146    4.353294
  17 C     6.0000    0    12.011    4.941616    3.174278    2.187393
  18 C     6.0000    0    12.011    2.807340    1.432648    5.838012
  19 C     6.0000    0    12.011   -1.635969    2.826519    6.067523
  20 C     6.0000    0    12.011    0.405642    1.287556    7.010651
  21 C     6.0000    0    12.011   -4.698680    1.618882    2.738410
  22 C     6.0000    0    12.011   -3.565760    1.139820    5.126405
  23 C     6.0000    0    12.011   -5.442270   -0.570207    1.330422
  24 C     6.0000    0    12.011   -4.698680    1.618882   -2.738410
  25 C     6.0000    0    12.011   -5.442270   -0.570207   -1.330422
  26 C     6.0000    0    12.011   -1.635969    2.826519   -6.067523
  27 C     6.0000    0    12.011   -3.565760    1.139820   -5.126405
  28 C     6.0000    0    12.011    2.807340    1.432648   -5.838012
  29 C     6.0000    0    12.011    0.405642    1.287556   -7.010651
  30 C     6.0000    0    12.011    3.565760   -1.139820   -5.126405
  31 C     6.0000    0    12.011    5.442270    0.570207   -1.330422
  32 C     6.0000    0    12.011    5.442270    0.570207    1.330422
  33 C     6.0000    0    12.011    4.698680   -1.618882   -2.738410
  34 C     6.0000    0    12.011    3.565760   -1.139820    5.126405
  35 C     6.0000    0    12.011    4.698680   -1.618882    2.738410
  36 C     6.0000    0    12.011   -0.405642   -1.287556    7.010651
  37 C     6.0000    0    12.011   -2.807340   -1.432648    5.838012
  38 C     6.0000    0    12.011    1.635969   -2.826519    6.067523
  39 C     6.0000    0    12.011   -4.941616   -3.174278    2.187393
  40 C     6.0000    0    12.011   -3.433240   -3.608146    4.353294
  41 C     6.0000    0    12.011   -4.941616   -3.174278   -2.187393
  42 C     6.0000    0    12.011   -4.794600   -4.784063    0.000000
  43 C     6.0000    0    12.011   -2.807340   -1.432648   -5.838012
  44 C     6.0000    0    12.011   -0.405642   -1.287556   -7.010651
  45 C     6.0000    0    12.011    1.635969   -2.826519   -6.067523
  46 C     6.0000    0    12.011   -3.433240   -3.608146   -4.353294
  47 C     6.0000    0    12.011    1.079623   -5.020947   -4.798806
  48 C     6.0000    0    12.011   -1.589597   -5.648899   -4.240537
  49 C     6.0000    0    12.011    4.165211   -3.989749   -1.383449
  50 C     6.0000    0    12.011    4.165211   -3.989749    1.383449
  51 C     6.0000    0    12.011    2.606814   -5.816929   -2.678078
  52 C     6.0000    0    12.011    1.079623   -5.020947    4.798806
  53 C     6.0000    0    12.011   -1.589597   -5.648899    4.240537
  54 C     6.0000    0    12.011    2.606814   -5.816929    2.678078
  55 C     6.0000    0    12.011   -3.143291   -6.901867    0.000000
  56 C     6.0000    0    12.011   -1.579946   -7.298470   -2.183750
  57 C     6.0000    0    12.011    1.072417   -7.543873   -1.298655
  58 C     6.0000    0    12.011   -1.579946   -7.298470    2.183750
  59 C     6.0000    0    12.011    1.072417   -7.543873    1.298655

--------------------------------
INTERNAL COORDINATES (ANGSTROEM)
--------------------------------
 C      0   0   0     0.000000000000     0.00000000     0.00000000
 C      1   0   0     1.374436800000     0.00000000     0.00000000
 C      2   1   0     1.485343360111   108.38068708     0.00000000
 C      1   2   3     1.485343360111   108.38068708     0.00000000
 C      3   2   1     1.436606720674   107.65491050     5.56545257
 C      4   1   2     1.395218121873   107.70678098   220.81469569
 C      1   2   3     1.423823017502   120.84221879   233.66487630
 C      7   1   2     1.445669779498   105.43787926   140.63153513
 C      7   1   2     1.443718724761   120.81866651     1.18940447
 C      2   1   3     1.423823017502   120.84221879   126.33512370
 C     10   2   1     1.443718724761   120.81866651   358.81059553
 C      3   2   1     1.395218121873   107.70678098   139.18530431
 C     10   2   1     1.445669779498   105.43787926   219.36846487
 C     12   3   2     1.456574322845   119.88563896   227.39505310
 C      5   3   2     1.421106268035   117.98908480   127.10798719
 C     14  12   3     1.415444234615   117.69755930     8.25025683
 C      6   4   1     1.456574322845   119.88563896   132.60494690
 C     17   6   4     1.415444234615   117.69755930   351.74974317
 C     17   6   4     1.432588611411   117.60707137   204.54996514
 C      8   7   1     1.373281443899   120.40061059   200.06574219
 C     19  17   6     1.416405244292   119.42496410     3.32988211
 C      9   7   1     1.472360562854   116.68680861   151.73568662
 C     22   9   7     1.421461858723   120.26687072   355.88444531
 C     22   9   7     1.432445140316   119.23977890   201.38239166
 C     11  10   2     1.472360562854   116.68680861   208.26431338
 C     24  22   9     1.408058000000   121.34178735     6.08647060
 C     13  10   2     1.373281443899   120.40061059   159.93425781
 C     25  11  10     1.421461858723   120.26687072     4.11555469
 C     14  12   3     1.432588611411   117.60707137   155.45003486
 C     29  14  12     1.416405244292   119.42496410   356.67011789
 C     29  14  12     1.468328593523   122.76352190   215.16798367
 C     16  14  12     1.474710018930   120.12473897   137.79183435
 C     32  16  14     1.408058000000   107.90930166   217.21794158
 C     31  29  14     1.421461858723   120.57151644     7.98774036
 C     19  17   6     1.468328593523   122.76352190   144.83201633
 C     35  19  17     1.421461858723   120.57151644   352.01225964
 C     21  19  17     1.428717999352   108.74318599   145.29477256
 C     37  21  19     1.416405244292   108.74318599   235.11508686
 C     37  21  19     1.442051702428   108.27130618     6.18276197
 C     24  22   9     1.474710018930   123.11856572   151.89638205
 C     40  24  22     1.415444234615   120.12473897   353.07238718
 C     26  24  22     1.474710018930   107.90930166   150.35561578
 C     40  24  22     1.439294839557   108.38827595   206.74606590
 C     28  25  11     1.468328593523   120.57151644   144.59550023
 C     44  28  25     1.416405244292   107.89997978   222.72154454
 C     45  44  28     1.442051702428   119.34086014   126.11985257
 C     42  26  24     1.415444234615   120.12473897   217.21794158
 C     46  45  44     1.373281443899   119.08638270    24.96895986
 C     47  42  26     1.456574322845   117.69755930   137.79183435
 C     34  31  29     1.472360562854   120.26687072   144.59550023
 C     50  34  31     1.464179000000   119.14247667   211.44920935
 C     50  34  31     1.443718724761   116.68680861     4.11555469
 C     39  37  21     1.373281443899   119.08638270   210.01735042
 C     41  40  24     1.456574322845   117.69755930   222.20816565
 C     51  50  34     1.443718724761   118.32877324   152.22013612
 C     43  40  24     1.421106268035   119.99877681   147.05267872
 C     49  47  42     1.395218121873   119.88563896     8.25025683
 C     52  50  34     1.423823017502   120.81866651   208.26431338
 C     54  41  40     1.395218121873   119.88563896   351.74974317
 C     58  52  50     1.374436800000   120.84221879   358.81059553

---------------------------
INTERNAL COORDINATES (A.U.)
---------------------------
 C      0   0   0     0.000000000000     0.00000000     0.00000000
 C      1   0   0     2.597309140383     0.00000000     0.00000000
 C      2   1   0     2.806892165449   108.38068708     0.00000000
 C      1   2   3     2.806892165449   108.38068708     0.00000000
 C      3   2   1     2.714793264224   107.65491050     5.56545257
 C      4   1   2     2.636580147424   107.70678098   220.81469569
 C      1   2   3     2.690635566253   120.84221879   233.66487630
 C      7   1   2     2.731919963337   105.43787926   140.63153513
 C      7   1   2     2.728233004213   120.81866651     1.18940447
 C      2   1   3     2.690635566253   120.84221879   126.33512370
 C     10   2   1     2.728233004213   120.81866651   358.81059553
 C      3   2   1     2.636580147424   107.70678098   139.18530431
 C     10   2   1     2.731919963337   105.43787926   219.36846487
 C     12   3   2     2.752526563879   119.88563896   227.39505310
 C      5   3   2     2.685501653784   117.98908480   127.10798719
 C     14  12   3     2.674801961260   117.69755930     8.25025683
 C      6   4   1     2.752526563879   119.88563896   132.60494690
 C     17   6   4     2.674801961260   117.69755930   351.74974317
 C     17   6   4     2.707200138141   117.60707137   204.54996514
 C      8   7   1     2.595125833764   120.40061059   200.06574219
 C     19  17   6     2.676618006362   119.42496410     3.32988211
 C      9   7   1     2.782358234180   116.68680861   151.73568662
 C     22   9   7     2.686173622801   120.26687072   355.88444531
 C     22   9   7     2.706929017063   119.23977890   201.38239166
 C     11  10   2     2.782358234180   116.68680861   208.26431338
 C     24  22   9     2.660844000677   121.34178735     6.08647060
 C     13  10   2     2.595125833764   120.40061059   159.93425781
 C     25  11  10     2.686173622801   120.26687072     4.11555469
 C     14  12   3     2.707200138141   117.60707137   155.45003486
 C     29  14  12     2.676618006362   119.42496410   356.67011789
 C     29  14  12     2.774738916363   122.76352190   215.16798367
 C     16  14  12     2.786798062728   120.12473897   137.79183435
 C     32  16  14     2.660844000677   107.90930166   217.21794158
 C     31  29  14     2.686173622801   120.57151644     7.98774036
 C     19  17   6     2.774738916363   122.76352190   144.83201633
 C     35  19  17     2.686173622801   120.57151644   352.01225964
 C     21  19  17     2.699885741379   108.74318599   145.29477256
 C     37  21  19     2.676618006362   108.74318599   235.11508686
 C     37  21  19     2.725082788544   108.27130618     6.18276197
 C     24  22   9     2.786798062728   123.11856572   151.89638205
 C     40  24  22     2.674801961260   120.12473897   353.07238718
 C     26  24  22     2.786798062728   107.90930166   150.35561578
 C     40  24  22     2.719873072728   108.38827595   206.74606590
 C     28  25  11     2.774738916363   120.57151644   144.59550023
 C     44  28  25     2.676618006362   107.89997978   222.72154454
 C     45  44  28     2.725082788544   119.34086014   126.11985257
 C     42  26  24     2.674801961260   120.12473897   217.21794158
 C     46  45  44     2.595125833764   119.08638270    24.96895986
 C     47  42  26     2.752526563879   117.69755930   137.79183435
 C     34  31  29     2.782358234180   120.26687072   144.59550023
 C     50  34  31     2.766897321039   119.14247667   211.44920935
 C     50  34  31     2.728233004213   116.68680861     4.11555469
 C     39  37  21     2.595125833764   119.08638270   210.01735042
 C     41  40  24     2.752526563879   117.69755930   222.20816565
 C     51  50  34     2.728233004213   118.32877324   152.22013612
 C     43  40  24     2.685501653784   119.99877681   147.05267872
 C     49  47  42     2.636580147424   119.88563896     8.25025683
 C     52  50  34     2.690635566253   120.81866651   208.26431338
 C     54  41  40     2.636580147424   119.88563896   351.74974317
 C     58  52  50     2.597309140383   120.84221879   358.81059553

---------------------
BASIS SET INFORMATION
---------------------
There are 1 groups of distinct atoms

 Group   1 Type C   : 8s4p1d contracted to 4s2p1d pattern {5111/31/1}

Atom   0C    basis set group =>   1
Atom   1C    basis set group =>   1
Atom   2C    basis set group =>   1
Atom   3C    basis set group =>   1
Atom   4C    basis set group =>   1
Atom   5C    basis set group =>   1
Atom   6C    basis set group =>   1
Atom   7C    basis set group =>   1
Atom   8C    basis set group =>   1
Atom   9C    basis set group =>   1
Atom  10C    basis set group =>   1
Atom  11C    basis set group =>   1
Atom  12C    basis set group =>   1
Atom  13C    basis set group =>   1
Atom  14C    basis set group =>   1
Atom  15C    basis set group =>   1
Atom  16C    basis set group =>   1
Atom  17C    basis set group =>   1
Atom  18C    basis set group =>   1
Atom  19C    basis set group =>   1
Atom  20C    basis set group =>   1
Atom  21C    basis set group =>   1
Atom  22C    basis set group =>   1
Atom  23C    basis set group =>   1
Atom  24C    basis set group =>   1
Atom  25C    basis set group =>   1
Atom  26C    basis set group =>   1
Atom  27C    basis set group =>   1
Atom  28C    basis set group =>   1
Atom  29C    basis set group =>   1
Atom  30C    basis set group =>   1
Atom  31C    basis set group =>   1
Atom  32C    basis set group =>   1
Atom  33C    basis set group =>   1
Atom  34C    basis set group =>   1
Atom  35C    basis set group =>   1
Atom  36C    basis set group =>   1
Atom  37C    basis set group =>   1
Atom  38C    basis set group =>   1
Atom  39C    basis set group =>   1
Atom  40C    basis set group =>   1
Atom  41C    basis set group =>   1
Atom  42C    basis set group =>   1
Atom  43C    basis set group =>   1
Atom  44C    basis set group =>   1
Atom  45C    basis set group =>   1
Atom  46C    basis set group =>   1
Atom  47C    basis set group =>   1
Atom  48C    basis set group =>   1
Atom  49C    basis set group =>   1
Atom  50C    basis set group =>   1
Atom  51C    basis set group =>   1
Atom  52C    basis set group =>   1
Atom  53C    basis set group =>   1
Atom  54C    basis set group =>   1
Atom  55C    basis set group =>   1
Atom  56C    basis set group =>   1
Atom  57C    basis set group =>   1
Atom  58C    basis set group =>   1
Atom  59C    basis set group =>   1
---------------------------------
AUXILIARY/J BASIS SET INFORMATION
---------------------------------
There are 1 groups of distinct atoms

 Group   1 Type C   : 12s5p4d2f1g contracted to 6s4p3d1f1g pattern {711111/2111/211/2/1}

Atom   0C    basis set group =>   1
Atom   1C    basis set group =>   1
Atom   2C    basis set group =>   1
Atom   3C    basis set group =>   1
Atom   4C    basis set group =>   1
Atom   5C    basis set group =>   1
Atom   6C    basis set group =>   1
Atom   7C    basis set group =>   1
Atom   8C    basis set group =>   1
Atom   9C    basis set group =>   1
Atom  10C    basis set group =>   1
Atom  11C    basis set group =>   1
Atom  12C    basis set group =>   1
Atom  13C    basis set group =>   1
Atom  14C    basis set group =>   1
Atom  15C    basis set group =>   1
Atom  16C    basis set group =>   1
Atom  17C    basis set group =>   1
Atom  18C    basis set group =>   1
Atom  19C    basis set group =>   1
Atom  20C    basis set group =>   1
Atom  21C    basis set group =>   1
Atom  22C    basis set group =>   1
Atom  23C    basis set group =>   1
Atom  24C    basis set group =>   1
Atom  25C    basis set group =>   1
Atom  26C    basis set group =>   1
Atom  27C    basis set group =>   1
Atom  28C    basis set group =>   1
Atom  29C    basis set group =>   1
Atom  30C    basis set group =>   1
Atom  31C    basis set group =>   1
Atom  32C    basis set group =>   1
Atom  33C    basis set group =>   1
Atom  34C    basis set group =>   1
Atom  35C    basis set group =>   1
Atom  36C    basis set group =>   1
Atom  37C    basis set group =>   1
Atom  38C    basis set group =>   1
Atom  39C    basis set group =>   1
Atom  40C    basis set group =>   1
Atom  41C    basis set group =>   1
Atom  42C    basis set group =>   1
Atom  43C    basis set group =>   1
Atom  44C    basis set group =>   1
Atom  45C    basis set group =>   1
Atom  46C    basis set group =>   1
Atom  47C    basis set group =>   1
Atom  48C    basis set group =>   1
Atom  49C    basis set group =>   1
Atom  50C    basis set group =>   1
Atom  51C    basis set group =>   1
Atom  52C    basis set group =>   1
Atom  53C    basis set group =>   1
Atom  54C    basis set group =>   1
Atom  55C    basis set group =>   1
Atom  56C    basis set group =>   1
Atom  57C    basis set group =>   1
Atom  58C    basis set group =>   1
Atom  59C    basis set group =>   1


           ************************************************************
           *        Program running with 4 parallel MPI-processes     *
           *              working on a common directory               *
           ************************************************************
------------------------------------------------------------------------------
                           ORCA GTO INTEGRAL CALCULATION
                           -- RI-GTO INTEGRALS CHOSEN --
------------------------------------------------------------------------------
------------------------------------------------------------------------------
                   ___                                                        
                  /   \      - P O W E R E D   B Y -                         
                 /     \                                                     
                 |  |  |   _    _      __       _____    __    __             
                 |  |  |  | |  | |    /  \     |  _  \  |  |  /  |          
                  \  \/   | |  | |   /    \    | | | |  |  | /  /          
                 / \  \   | |__| |  /  /\  \   | |_| |  |  |/  /          
                |  |  |   |  __  | /  /__\  \  |    /   |      \           
                |  |  |   | |  | | |   __   |  |    \   |  |\   \          
                \     /   | |  | | |  |  |  |  | |\  \  |  | \   \       
                 \___/    |_|  |_| |__|  |__|  |_| \__\ |__|  \__/        
                                                                              
                      - O R C A' S   B I G   F R I E N D -                    
                                      &                                       
                       - I N T E G R A L  F E E D E R -                       
                                                                              
 v1 FN, 2020, v2 2021                                                         
------------------------------------------------------------------------------


Reading SHARK input file pbeh-3c.SHARKINP.tmp ... ok
----------------------
SHARK INTEGRAL PACKAGE
----------------------

Number of atoms                             ...     60
Number of basis functions                   ...    900
Number of shells                            ...    420
Maximum angular momentum                    ...      2
Integral batch strategy                     ... SHARK/LIBINT Hybrid
RI-J (if used) integral strategy            ... SPLIT-RIJ (Revised 2003 algorithm where possible)
Printlevel                                  ...      1
Contraction scheme used                     ... SEGMENTED contraction
Coulomb Range Separation                    ... NOT USED
Exchange Range Separation                   ... NOT USED
Finite Nucleus Model                        ... NOT USED
Auxiliary Coulomb fitting basis             ... AVAILABLE
   # of basis functions in Aux-J            ...   2940
   # of shells in Aux-J                     ...    900
   Maximum angular momentum in Aux-J        ...      4
Auxiliary J/K fitting basis                 ... NOT available
Auxiliary Correlation fitting basis         ... NOT available
Auxiliary 'external' fitting basis          ... NOT available
Integral threshold                          ...     2.500000e-11
Primitive cut-off                           ...     2.500000e-12
Primitive pair pre-selection threshold      ...     2.500000e-12

Calculating pre-screening integrals         ... done (  0.3 sec) Dimension = 420
Organizing shell pair data                  ... done (  1.6 sec)
Shell pair information
Total number of shell pairs                 ...     88410
Shell pairs after pre-screening             ...     56486
Total number of primitive shell pairs       ...    305370
Primitive shell pairs kept                  ...    117628
          la=0 lb=0:  14708 shell pairs
          la=1 lb=0:  21828 shell pairs
          la=1 lb=1:   6564 shell pairs
          la=2 lb=0:   6950 shell pairs
          la=2 lb=1:   5556 shell pairs
          la=2 lb=2:    880 shell pairs

Calculating one electron integrals          ... done (  0.4 sec)
Calculating RI/J V-Matrix + Cholesky decomp.... done (  4.5 sec)
Calculating Nuclear repulsion               ... done (  0.1 sec) ENN=   8319.651406224264 Eh

SHARK setup successfully completed in  10.5 seconds

Maximum memory used throughout the entire GTOINT-calculation: 115.5 MB


           ************************************************************
           *        Program running with 4 parallel MPI-processes     *
           *              working on a common directory               *
           ************************************************************
-------------------------------------------------------------------------------
                                 ORCA SCF
-------------------------------------------------------------------------------

------------
SCF SETTINGS
------------
Hamiltonian:
 Density Functional     Method          .... DFT(GTOs)
 Exchange Functional    Exchange        .... PBE
   PBE kappa parameter   XKappa         ....  1.024500
   PBE mue parameter    XMuePBE         ....  0.123457
 Correlation Functional Correlation     .... PBE
   PBE beta parameter  CBetaPBE         ....  0.030000
 LDA part of GGA corr.  LDAOpt          .... PW91-LDA
 Gradients option       PostSCFGGA      .... off
 Hybrid DFT is turned on
   Fraction HF Exchange ScalHFX         ....  0.420000
   Scaling of DF-GGA-X  ScalDFX         ....  0.580000
   Scaling of DF-GGA-C  ScalDFC         ....  1.000000
   Scaling of DF-LDA-C  ScalLDAC        ....  1.000000
   Perturbative correction              ....  0.000000
   Density functional embedding theory  .... OFF
 RI-approximation to the Coulomb term is turned on
   Number of AuxJ basis functions       .... 2940
   RIJ-ON(X) (HFX calculated with O(N)) .... on
   Number of AuxJ basis functions       .... 2940
   RIJ-COSX (HFX calculated with COS-X)).... on


General Settings:
 Integral files         IntName         .... pbeh-3c
 Hartree-Fock type      HFTyp           .... RHF
 Total Charge           Charge          ....    0
 Multiplicity           Mult            ....    1
 Number of Electrons    NEL             ....  360
 Basis Dimension        Dim             ....  900
 Nuclear Repulsion      ENuc            ....   8319.6514062243 Eh

Convergence Acceleration:
 DIIS                   CNVDIIS         .... on
   Start iteration      DIISMaxIt       ....    12
   Startup error        DIISStart       ....  0.200000
   # of expansion vecs  DIISMaxEq       ....     5
   Bias factor          DIISBfac        ....   1.050
   Max. coefficient     DIISMaxC        ....  10.000
 Trust-Rad. Augm. Hess. CNVTRAH         .... auto
   Auto Start mean grad. ratio tolernc. ....  1.125000
   Auto Start start iteration           ....    20
   Auto Start num. interpolation iter.  ....    10
   Max. Number of Micro iterations      ....    16
   Max. Number of Macro iterations      .... Maxiter - #DIIS iter
   Number of Davidson start vectors     ....     2
   Converg. threshold I  (grad. norm)   ....   1.000e-05
   Converg. threshold II (energy diff.) ....   1.000e-08
   Grad. Scal. Fac. for Micro threshold ....   0.100
   Minimum threshold for Micro iter.    ....   0.010
   NR start threshold (gradient norm)   ....   0.001
   Initial trust radius                 ....   0.400
   Minimum AH scaling param. (alpha)    ....   1.000
   Maximum AH scaling param. (alpha)    .... 1000.000
   Orbital update algorithm             .... Taylor
   White noise on init. David. guess    .... on
   Maximum white noise                  ....   0.010
   Quad. conv. algorithm                .... NR
   COSX micro iterations for RIJONX calc.... off
 SOSCF                  CNVSOSCF        .... on
   Start iteration      SOSCFMaxIt      ....   150
   Startup grad/error   SOSCFStart      ....  0.003300
 Level Shifting         CNVShift        .... on
   Level shift para.    LevelShift      ....    0.2500
   Turn off err/grad.   ShiftErr        ....    0.0010
 Zerner damping         CNVZerner       .... off
 Static damping         CNVDamp         .... on
   Fraction old density DampFac         ....    0.7000
   Max. Damping (<1)    DampMax         ....    0.9800
   Min. Damping (>=0)   DampMin         ....    0.0000
   Turn off err/grad.   DampErr         ....    0.1000
 Fernandez-Rico         CNVRico         .... off

SCF Procedure:
 Maximum # iterations   MaxIter         ....   125
 SCF integral mode      SCFMode         .... Direct
   Integral package                     .... SHARK and LIBINT hybrid scheme
 Reset frequency        DirectResetFreq ....    20
 Integral Threshold     Thresh          ....  2.500e-11 Eh
 Primitive CutOff       TCut            ....  2.500e-12 Eh

Convergence Tolerance:
 Convergence Check Mode ConvCheckMode   .... Total+1el-Energy
 Convergence forced     ConvForced      .... 0
 Energy Change          TolE            ....  1.000e-08 Eh
 1-El. energy change                    ....  1.000e-05 Eh
 Orbital Gradient       TolG            ....  1.000e-05
 Orbital Rotation angle TolX            ....  1.000e-05
 DIIS Error             TolErr          ....  5.000e-07


Diagonalization of the overlap matrix:
Smallest eigenvalue                        ... 1.773e-04
Time for diagonalization                   ...    0.467 sec
Threshold for overlap eigenvalues          ... 1.000e-08
Number of eigenvalues below threshold      ... 0
Time for construction of square roots      ...    0.629 sec
Total time needed                          ...    1.101 sec

--------------------------------
INITIAL GUESS: MINIMAL BASIS EHT
--------------------------------
The minimal basis has 300 functions
EHT matrix was diagonalized
Basis set overlap was calculated now projecting the orbitals
Using GuessMode=FMatrix for the initial guess
C*T matrix was formed
Effective Fockian was calculated
Effective Fockian was diagonalized
Initial density was built
                      ------------------
                      INITIAL GUESS DONE
                      ------------------
-------------------
DFT GRID GENERATION
-------------------

General Integration Accuracy     IntAcc      ... 4.959
Radial Grid Type                 RadialGrid  ... OptM3 with GC (2021)
Angular Grid (max. ang.)         AngularGrid ... 6 (Lebedev-590)
Angular grid pruning method      GridPruning ... 4 (adaptive)
Weight generation scheme         WeightScheme... Becke
Basis function cutoff            BFCut       ... 1.0000e-11
Integration weight cutoff        WCut        ... 1.0000e-14
Angular grids for H and He will be reduced by one unit
Partially contracted basis set               ... off
Rotationally invariant grid construction     ... off

Total number of grid points                  ...   821690
Total number of batches                      ...    12866
Average number of points per batch           ...       63
Average number of grid points per atom       ...    13695
Time for grid setup =   36.620 sec

--------------------
COSX GRID GENERATION
--------------------

GRIDX 1
-------
General Integration Accuracy     IntAcc      ... 4.020
Radial Grid Type                 RadialGrid  ... OptM3 with GC (2021)
Angular Grid (max. ang.)         AngularGrid ... 2 (Lebedev-110)
Angular grid pruning method      GridPruning ... 4 (adaptive)
Weight generation scheme         WeightScheme... Becke
Basis function cutoff            BFCut       ... 1.0000e-11
Integration weight cutoff        WCut        ... 1.0000e-14
Angular grids for H and He will be reduced by one unit
Partially contracted basis set               ... on
Rotationally invariant grid construction     ... off

Total number of grid points                  ...   100362
Total number of batches                      ...     1601
Average number of points per batch           ...       62
Average number of grid points per atom       ...     1673
UseSFitting                                  ... on

GRIDX 2
-------
General Integration Accuracy     IntAcc      ... 4.338
Radial Grid Type                 RadialGrid  ... OptM3 with GC (2021)
Angular Grid (max. ang.)         AngularGrid ... 3 (Lebedev-194)
Angular grid pruning method      GridPruning ... 4 (adaptive)
Weight generation scheme         WeightScheme... Becke
Basis function cutoff            BFCut       ... 1.0000e-11
Integration weight cutoff        WCut        ... 1.0000e-14
Angular grids for H and He will be reduced by one unit
Partially contracted basis set               ... on
Rotationally invariant grid construction     ... off

Total number of grid points                  ...   220108
Total number of batches                      ...     3467
Average number of points per batch           ...       63
Average number of grid points per atom       ...     3668
UseSFitting                                  ... on

GRIDX 3
-------
General Integration Accuracy     IntAcc      ... 4.871
Radial Grid Type                 RadialGrid  ... OptM3 with GC (2021)
Angular Grid (max. ang.)         AngularGrid ... 4 (Lebedev-302)
Angular grid pruning method      GridPruning ... 4 (adaptive)
Weight generation scheme         WeightScheme... Becke
Basis function cutoff            BFCut       ... 1.0000e-11
Integration weight cutoff        WCut        ... 1.0000e-14
Angular grids for H and He will be reduced by one unit
Partially contracted basis set               ... on
Rotationally invariant grid construction     ... off

Total number of grid points                  ...   379448
Total number of batches                      ...     5957
Average number of points per batch           ...       63
Average number of grid points per atom       ...     6324
UseSFitting                                  ... on

Time for X-Grid setup             =   33.284 sec

--------------
SCF ITERATIONS
--------------
ITER       Energy         Delta-E        Max-DP      RMS-DP      [F,P]     Damp
               ***  Starting incremental Fock matrix formation  ***
  0  -2275.3668605800   0.000000000000 0.15570783  0.00269448  0.4392761 0.7000
  1  -2276.9987597961  -1.631899216125 0.11938867  0.00199161  0.3103534 0.7000
  2  -2278.1577801526  -1.159020356466 0.09053293  0.00146915  0.2178990 0.7000
                               ***Turning on DIIS***
  3  -2278.9797603000  -0.821980147411 0.06760878  0.00107705  0.1528267 0.7000
  4  -2279.5623008250  -0.582540525017 0.05209022  0.00081828  0.1071162 0.7000
  5  -2279.9743287737  -0.412027948699 0.12508801  0.00197184  0.0750273 0.0000
                      *** Initiating the SOSCF procedure ***
                           *** Shutting down DIIS ***
                      *** Re-Reading the Fockian *** 
                      *** Removing any level shift *** 
ITER      Energy       Delta-E        Grad      Rot      Max-DP    RMS-DP
  6  -2280.95283401  -0.9785052321  0.001169  0.001169  0.001519  0.000043
               *** Restarting incremental Fock matrix formation ***
  7  -2280.95317242  -0.0003384189  0.000814  0.007674  0.001114  0.000035
  8  -2280.95329552  -0.0001230952  0.000319  0.006408  0.000955  0.000029
  9  -2280.95329032   0.0000052029  0.000615  0.001173  0.000839  0.000012
 10  -2280.95331734  -0.0000270272  0.000191  0.000668  0.000288  0.000007
 11  -2280.95331665   0.0000006893  0.000133  0.000488  0.000170  0.000004
 12  -2280.95331979  -0.0000031356  0.000029  0.000336  0.000050  0.000001
 13  -2280.95331988  -0.0000000903  0.000036  0.000063  0.000029  0.000001
 14  -2280.95331999  -0.0000001053  0.000007  0.000044  0.000021  0.000000
 15  -2280.95331989   0.0000000942  0.000012  0.000033  0.000014  0.000000
                  ***Gradient check signals convergence***
              ***Rediagonalizing the Fockian in SOSCF/NRSCF***

               *****************************************************
               *                     SUCCESS                       *
               *           SCF CONVERGED AFTER  16 CYCLES          *
               *****************************************************

Old exchange energy                            =   -130.570334395 Eh
New exchange energy                            =   -130.570372791 Eh
Exchange energy change after final integration =     -0.000038396 Eh
Total energy after final integration           =  -2280.953358321 Eh
Final COS-X integration done in                =   276.226 sec

----------------
TOTAL SCF ENERGY
----------------

Total Energy       :        -2280.95335832 Eh          -62067.89635 eV

Components:
Nuclear Repulsion  :         8319.65140622 Eh          226389.22417 eV
Electronic Energy  :       -10600.60476455 Eh         -288457.12052 eV
One Electron Energy:       -19654.28498324 Eh         -534820.28413 eV
Two Electron Energy:         9053.68021870 Eh          246363.16361 eV
Max COSX asymmetry :            0.00000314 Eh               0.00009 eV

Virial components:
Potential Energy   :        -4542.34119908 Eh         -123603.38790 eV
Kinetic Energy     :         2261.38784076 Eh           61535.49155 eV
Virial Ratio       :            2.00865200


DFT components:
N(Alpha)           :      180.000069479858 electrons
N(Beta)            :      180.000069479858 electrons
N(Total)           :      360.000138959715 electrons
E(X)               :     -173.770084781763 Eh       
E(C)               :      -16.216820483099 Eh       
E(XC)              :     -189.986905264863 Eh       
DFET-embed. en.    :        0.000000000000 Eh       

---------------
SCF CONVERGENCE
---------------

  Last Energy change         ...   -3.3146e-08  Tolerance :   1.0000e-08
  Last MAX-Density change    ...    1.9984e-15  Tolerance :   1.0000e-07
  Last RMS-Density change    ...    2.5607e-17  Tolerance :   5.0000e-09
  Last Orbital Gradient      ...    1.6548e-06  Tolerance :   1.0000e-05
  Last Orbital Rotation      ...    1.6792e-05  Tolerance :   1.0000e-05

             **** THE GBW FILE WAS UPDATED (pbeh-3c.gbw) ****
             **** DENSITY pbeh-3c.scfp WAS UPDATED ****
             **** ENERGY FILE WAS UPDATED (pbeh-3c.en.tmp) ****
             **** THE GBW FILE WAS UPDATED (pbeh-3c.gbw) ****
             **** DENSITY pbeh-3c.scfp WAS UPDATED ****
----------------
ORBITAL ENERGIES
----------------

  NO   OCC          E(Eh)            E(eV) 
   0   2.0000     -10.529200      -286.5141 
   1   2.0000     -10.529200      -286.5141 
   2   2.0000     -10.528893      -286.5057 
   3   2.0000     -10.528889      -286.5056 
   4   2.0000     -10.528756      -286.5020 
   5   2.0000     -10.528750      -286.5019 
   6   2.0000     -10.528747      -286.5018 
   7   2.0000     -10.528740      -286.5016 
   8   2.0000     -10.528331      -286.4904 
   9   2.0000     -10.528330      -286.4904 
  10   2.0000     -10.528302      -286.4897 
  11   2.0000     -10.528301      -286.4896 
  12   2.0000     -10.527387      -286.4648 
  13   2.0000     -10.527385      -286.4647 
  14   2.0000     -10.527381      -286.4646 
  15   2.0000     -10.527379      -286.4645 
  16   2.0000     -10.522040      -286.3193 
  17   2.0000     -10.522039      -286.3192 
  18   2.0000     -10.521988      -286.3179 
  19   2.0000     -10.521987      -286.3178 
  20   2.0000     -10.521113      -286.2940 
  21   2.0000     -10.521104      -286.2938 
  22   2.0000     -10.521103      -286.2938 
  23   2.0000     -10.521096      -286.2936 
  24   2.0000     -10.520508      -286.2776 
  25   2.0000     -10.520508      -286.2776 
  26   2.0000     -10.520072      -286.2657 
  27   2.0000     -10.520067      -286.2656 
  28   2.0000     -10.520057      -286.2653 
  29   2.0000     -10.520056      -286.2653 
  30   2.0000     -10.515012      -286.1280 
  31   2.0000     -10.515011      -286.1280 
  32   2.0000     -10.514462      -286.1130 
  33   2.0000     -10.514460      -286.1130 
  34   2.0000     -10.513759      -286.0939 
  35   2.0000     -10.513750      -286.0937 
  36   2.0000     -10.513744      -286.0935 
  37   2.0000     -10.513735      -286.0933 
  38   2.0000     -10.512664      -286.0641 
  39   2.0000     -10.512663      -286.0641 
  40   2.0000     -10.512590      -286.0621 
  41   2.0000     -10.512589      -286.0621 
  42   2.0000     -10.511854      -286.0421 
  43   2.0000     -10.511852      -286.0420 
  44   2.0000     -10.511800      -286.0406 
  45   2.0000     -10.511800      -286.0406 
  46   2.0000     -10.511545      -286.0337 
  47   2.0000     -10.511534      -286.0334 
  48   2.0000     -10.511096      -286.0215 
  49   2.0000     -10.511086      -286.0212 
  50   2.0000     -10.510399      -286.0025 
  51   2.0000     -10.510389      -286.0022 
  52   2.0000     -10.510352      -286.0012 
  53   2.0000     -10.510341      -286.0009 
  54   2.0000     -10.508543      -285.9520 
  55   2.0000     -10.508543      -285.9520 
  56   2.0000     -10.507837      -285.9328 
  57   2.0000     -10.507836      -285.9327 
  58   2.0000     -10.502728      -285.7938 
  59   2.0000     -10.502728      -285.7938 
  60   2.0000      -1.101405       -29.9707 
  61   2.0000      -1.087232       -29.5851 
  62   2.0000      -1.086124       -29.5549 
  63   2.0000      -1.063516       -28.9397 
  64   2.0000      -1.062634       -28.9157 
  65   2.0000      -1.039917       -28.2976 
  66   2.0000      -1.037682       -28.2368 
  67   2.0000      -1.017995       -27.7010 
  68   2.0000      -1.010692       -27.5023 
  69   2.0000      -1.010208       -27.4892 
  70   2.0000      -0.994020       -27.0487 
  71   2.0000      -0.974985       -26.5307 
  72   2.0000      -0.959347       -26.1051 
  73   2.0000      -0.959248       -26.1025 
  74   2.0000      -0.955404       -25.9979 
  75   2.0000      -0.946373       -25.7521 
  76   2.0000      -0.936952       -25.4958 
  77   2.0000      -0.933778       -25.4094 
  78   2.0000      -0.899645       -24.4806 
  79   2.0000      -0.897084       -24.4109 
  80   2.0000      -0.895810       -24.3762 
  81   2.0000      -0.888154       -24.1679 
  82   2.0000      -0.884935       -24.0803 
  83   2.0000      -0.860987       -23.4286 
  84   2.0000      -0.860423       -23.4133 
  85   2.0000      -0.850387       -23.1402 
  86   2.0000      -0.848573       -23.0909 
  87   2.0000      -0.838315       -22.8117 
  88   2.0000      -0.825839       -22.4722 
  89   2.0000      -0.816981       -22.2312 
  90   2.0000      -0.796114       -21.6634 
  91   2.0000      -0.793242       -21.5852 
  92   2.0000      -0.775136       -21.0925 
  93   2.0000      -0.769287       -20.9334 
  94   2.0000      -0.763858       -20.7856 
  95   2.0000      -0.754974       -20.5439 
  96   2.0000      -0.747895       -20.3513 
  97   2.0000      -0.741696       -20.1826 
  98   2.0000      -0.736108       -20.0305 
  99   2.0000      -0.726999       -19.7827 
 100   2.0000      -0.712642       -19.3920 
 101   2.0000      -0.702584       -19.1183 
 102   2.0000      -0.690061       -18.7775 
 103   2.0000      -0.677170       -18.4267 
 104   2.0000      -0.676905       -18.4195 
 105   2.0000      -0.675275       -18.3752 
 106   2.0000      -0.662410       -18.0251 
 107   2.0000      -0.660682       -17.9781 
 108   2.0000      -0.643323       -17.5057 
 109   2.0000      -0.638409       -17.3720 
 110   2.0000      -0.634319       -17.2607 
 111   2.0000      -0.627062       -17.0632 
 112   2.0000      -0.617784       -16.8108 
 113   2.0000      -0.616383       -16.7726 
 114   2.0000      -0.591676       -16.1003 
 115   2.0000      -0.589087       -16.0299 
 116   2.0000      -0.577498       -15.7145 
 117   2.0000      -0.576160       -15.6781 
 118   2.0000      -0.575087       -15.6489 
 119   2.0000      -0.569323       -15.4921 
 120   2.0000      -0.566114       -15.4047 
 121   2.0000      -0.564184       -15.3522 
 122   2.0000      -0.561677       -15.2840 
 123   2.0000      -0.546326       -14.8663 
 124   2.0000      -0.544653       -14.8208 
 125   2.0000      -0.543848       -14.7989 
 126   2.0000      -0.543428       -14.7874 
 127   2.0000      -0.542164       -14.7530 
 128   2.0000      -0.542062       -14.7503 
 129   2.0000      -0.533578       -14.5194 
 130   2.0000      -0.529647       -14.4124 
 131   2.0000      -0.528159       -14.3719 
 132   2.0000      -0.525960       -14.3121 
 133   2.0000      -0.515543       -14.0286 
 134   2.0000      -0.515351       -14.0234 
 135   2.0000      -0.504929       -13.7398 
 136   2.0000      -0.503008       -13.6875 
 137   2.0000      -0.499459       -13.5910 
 138   2.0000      -0.491668       -13.3790 
 139   2.0000      -0.491110       -13.3638 
 140   2.0000      -0.490851       -13.3567 
 141   2.0000      -0.489260       -13.3135 
 142   2.0000      -0.488613       -13.2958 
 143   2.0000      -0.486896       -13.2491 
 144   2.0000      -0.477998       -13.0070 
 145   2.0000      -0.474415       -12.9095 
 146   2.0000      -0.471632       -12.8338 
 147   2.0000      -0.470168       -12.7939 
 148   2.0000      -0.466359       -12.6903 
 149   2.0000      -0.458477       -12.4758 
 150   2.0000      -0.445588       -12.1251 
 151   2.0000      -0.440635       -11.9903 
 152   2.0000      -0.439253       -11.9527 
 153   2.0000      -0.438439       -11.9305 
 154   2.0000      -0.436213       -11.8700 
 155   2.0000      -0.432232       -11.7616 
 156   2.0000      -0.427447       -11.6314 
 157   2.0000      -0.425210       -11.5706 
 158   2.0000      -0.421051       -11.4574 
 159   2.0000      -0.416940       -11.3455 
 160   2.0000      -0.414510       -11.2794 
 161   2.0000      -0.412017       -11.2116 
 162   2.0000      -0.403702       -10.9853 
 163   2.0000      -0.399859       -10.8807 
 164   2.0000      -0.394366       -10.7313 
 165   2.0000      -0.385061       -10.4780 
 166   2.0000      -0.364796        -9.9266 
 167   2.0000      -0.362743        -9.8707 
 168   2.0000      -0.335795        -9.1375 
 169   2.0000      -0.331892        -9.0312 
 170   2.0000      -0.331265        -9.0142 
 171   2.0000      -0.318813        -8.6754 
 172   2.0000      -0.315732        -8.5915 
 173   2.0000      -0.289573        -7.8797 
 174   2.0000      -0.285223        -7.7613 
 175   2.0000      -0.278220        -7.5707 
 176   2.0000      -0.274185        -7.4609 
 177   2.0000      -0.271877        -7.3981 
 178   2.0000      -0.263593        -7.1727 
 179   2.0000      -0.246269        -6.7013 
 180   0.0000      -0.167859        -4.5677 
 181   0.0000      -0.148413        -4.0385 
 182   0.0000      -0.121964        -3.3188 
 183   0.0000      -0.097916        -2.6644 
 184   0.0000      -0.078855        -2.1457 
 185   0.0000      -0.069052        -1.8790 
 186   0.0000      -0.057338        -1.5603 
 187   0.0000      -0.053883        -1.4662 
 188   0.0000      -0.044840        -1.2202 
 189   0.0000      -0.041570        -1.1312 
 190   0.0000      -0.038146        -1.0380 
 191   0.0000      -0.023839        -0.6487 
 192   0.0000      -0.010835        -0.2948 
 193   0.0000      -0.008816        -0.2399 
 194   0.0000      -0.001751        -0.0476 
 195   0.0000       0.000859         0.0234 
 196   0.0000       0.007176         0.1953 
 197   0.0000       0.015389         0.4188 
 198   0.0000       0.019988         0.5439 
 199   0.0000       0.038450         1.0463 
 200   0.0000       0.047019         1.2794 
 201   0.0000       0.061360         1.6697 
 202   0.0000       0.063120         1.7176 
 203   0.0000       0.067322         1.8319 
 204   0.0000       0.076562         2.0834 
 205   0.0000       0.078476         2.1354 
 206   0.0000       0.095023         2.5857 
 207   0.0000       0.101949         2.7742 
 208   0.0000       0.111730         3.0403 
 209   0.0000       0.128536         3.4976 
 210   0.0000       0.132776         3.6130 
 211   0.0000       0.136826         3.7232 
 212   0.0000       0.148566         4.0427 
 213   0.0000       0.153293         4.1713 
 214   0.0000       0.160304         4.3621 
 215   0.0000       0.170883         4.6500 
 216   0.0000       0.171887         4.6773 
 217   0.0000       0.174091         4.7372 
 218   0.0000       0.183281         4.9873 
 219   0.0000       0.183399         4.9905 
 220   0.0000       0.187722         5.1082 
 221   0.0000       0.193004         5.2519 
 222   0.0000       0.199023         5.4157 
 223   0.0000       0.201077         5.4716 
 224   0.0000       0.201810         5.4915 
 225   0.0000       0.204701         5.5702 
 226   0.0000       0.216916         5.9026 
 227   0.0000       0.222543         6.0557 
 228   0.0000       0.225131         6.1261 
 229   0.0000       0.225213         6.1284 
 230   0.0000       0.227923         6.2021 
 231   0.0000       0.238694         6.4952 
 232   0.0000       0.251662         6.8481 
 233   0.0000       0.254351         6.9212 
 234   0.0000       0.255296         6.9470 
 235   0.0000       0.265089         7.2135 
 236   0.0000       0.266479         7.2513 
 237   0.0000       0.286072         7.7844 
 238   0.0000       0.290985         7.9181 
 239   0.0000       0.293814         7.9951 
 240   0.0000       0.303715         8.2645 
 241   0.0000       0.304219         8.2782 
 242   0.0000       0.308435         8.3929 
 243   0.0000       0.308882         8.4051 
 244   0.0000       0.316726         8.6186 
 245   0.0000       0.322398         8.7729 
 246   0.0000       0.333523         9.0756 
 247   0.0000       0.338383         9.2079 
 248   0.0000       0.343996         9.3606 
 249   0.0000       0.354245         9.6395 
 250   0.0000       0.364918         9.9299 
 251   0.0000       0.367107         9.9895 
 252   0.0000       0.373155        10.1541 
 253   0.0000       0.393458        10.7065 
 254   0.0000       0.393770        10.7150 
 255   0.0000       0.405783        11.0419 
 256   0.0000       0.411730        11.2038 
 257   0.0000       0.417529        11.3615 
 258   0.0000       0.421318        11.4647 
 259   0.0000       0.426957        11.6181 
 260   0.0000       0.429666        11.6918 
 261   0.0000       0.432807        11.7773 
 262   0.0000       0.438609        11.9352 
 263   0.0000       0.441058        12.0018 
 264   0.0000       0.441366        12.0102 
 265   0.0000       0.445881        12.1330 
 266   0.0000       0.447278        12.1710 
 267   0.0000       0.449189        12.2231 
 268   0.0000       0.456043        12.4096 
 269   0.0000       0.457079        12.4378 
 270   0.0000       0.458175        12.4676 
 271   0.0000       0.462444        12.5837 
 272   0.0000       0.469340        12.7714 
 273   0.0000       0.469486        12.7754 
 274   0.0000       0.472467        12.8565 
 275   0.0000       0.474636        12.9155 
 276   0.0000       0.475390        12.9360 
 277   0.0000       0.476595        12.9688 
 278   0.0000       0.482382        13.1263 
 279   0.0000       0.486104        13.2276 
 280   0.0000       0.486766        13.2456 
 281   0.0000       0.487063        13.2537 
 282   0.0000       0.489683        13.3249 
 283   0.0000       0.495188        13.4748 
 284   0.0000       0.496275        13.5043 
 285   0.0000       0.496306        13.5052 
 286   0.0000       0.503923        13.7124 
 287   0.0000       0.504621        13.7314 
 288   0.0000       0.505462        13.7543 
 289   0.0000       0.505645        13.7593 
 290   0.0000       0.506238        13.7754 
 291   0.0000       0.506578        13.7847 
 292   0.0000       0.508753        13.8439 
 293   0.0000       0.509880        13.8745 
 294   0.0000       0.510746        13.8981 
 295   0.0000       0.510746        13.8981 
 296   0.0000       0.514326        13.9955 
 297   0.0000       0.515474        14.0268 
 298   0.0000       0.516425        14.0526 
 299   0.0000       0.519322        14.1315 
 300   0.0000       0.519556        14.1378 
 301   0.0000       0.523082        14.2338 
 302   0.0000       0.523547        14.2464 
 303   0.0000       0.530517        14.4361 
 304   0.0000       0.530762        14.4428 
 305   0.0000       0.533322        14.5124 
 306   0.0000       0.534502        14.5445 
 307   0.0000       0.535315        14.5667 
 308   0.0000       0.536617        14.6021 
 309   0.0000       0.536900        14.6098 
 310   0.0000       0.541585        14.7373 
 311   0.0000       0.543067        14.7776 
 312   0.0000       0.543344        14.7851 
 313   0.0000       0.544004        14.8031 
 314   0.0000       0.549295        14.9471 
 315   0.0000       0.554468        15.0878 
 316   0.0000       0.556913        15.1544 
 317   0.0000       0.559179        15.2160 
 318   0.0000       0.561408        15.2767 
 319   0.0000       0.563940        15.3456 
 320   0.0000       0.564247        15.3539 
 321   0.0000       0.567113        15.4319 
 322   0.0000       0.570530        15.5249 
 323   0.0000       0.570609        15.5270 
 324   0.0000       0.575154        15.6507 
 325   0.0000       0.575810        15.6686 
 326   0.0000       0.576092        15.6763 
 327   0.0000       0.579485        15.7686 
 328   0.0000       0.580218        15.7885 
 329   0.0000       0.582491        15.8504 
 330   0.0000       0.588198        16.0057 
 331   0.0000       0.588742        16.0205 
 332   0.0000       0.589929        16.0528 
 333   0.0000       0.590713        16.0741 
 334   0.0000       0.592931        16.1345 
 335   0.0000       0.593317        16.1450 
 336   0.0000       0.595818        16.2130 
 337   0.0000       0.600770        16.3478 
 338   0.0000       0.601803        16.3759 
 339   0.0000       0.603517        16.4225 
 340   0.0000       0.607444        16.5294 
 341   0.0000       0.608810        16.5666 
 342   0.0000       0.611383        16.6366 
 343   0.0000       0.613313        16.6891 
 344   0.0000       0.613903        16.7051 
 345   0.0000       0.614514        16.7218 
 346   0.0000       0.617303        16.7977 
 347   0.0000       0.619158        16.8482 
 348   0.0000       0.620040        16.8721 
 349   0.0000       0.621592        16.9144 
 350   0.0000       0.626131        17.0379 
 351   0.0000       0.629173        17.1207 
 352   0.0000       0.631042        17.1715 
 353   0.0000       0.633881        17.2488 
 354   0.0000       0.634411        17.2632 
 355   0.0000       0.635551        17.2942 
 356   0.0000       0.635861        17.3026 
 357   0.0000       0.639232        17.3944 
 358   0.0000       0.641830        17.4651 
 359   0.0000       0.647382        17.6162 
 360   0.0000       0.650679        17.7059 
 361   0.0000       0.654485        17.8094 
 362   0.0000       0.658520        17.9193 
 363   0.0000       0.659157        17.9366 
 364   0.0000       0.659253        17.9392 
 365   0.0000       0.665688        18.1143 
 366   0.0000       0.670201        18.2371 
 367   0.0000       0.670439        18.2436 
 368   0.0000       0.671410        18.2700 
 369   0.0000       0.672946        18.3118 
 370   0.0000       0.675581        18.3835 
 371   0.0000       0.677212        18.4279 
 372   0.0000       0.681247        18.5377 
 373   0.0000       0.681726        18.5507 
 374   0.0000       0.683250        18.5922 
 375   0.0000       0.687342        18.7035 
 376   0.0000       0.687839        18.7170 
 377   0.0000       0.691659        18.8210 
 378   0.0000       0.692853        18.8535 
 379   0.0000       0.694331        18.8937 
 380   0.0000       0.699493        19.0342 
 381   0.0000       0.711573        19.3629 
 382   0.0000       0.712032        19.3754 
 383   0.0000       0.714740        19.4491 
 384   0.0000       0.717132        19.5142 
 385   0.0000       0.721530        19.6338 
 386   0.0000       0.722234        19.6530 
 387   0.0000       0.726813        19.7776 
 388   0.0000       0.728052        19.8113 
 389   0.0000       0.728116        19.8131 
 390   0.0000       0.732759        19.9394 
 391   0.0000       0.737593        20.0709 
 392   0.0000       0.740246        20.1431 
 393   0.0000       0.740786        20.1578 
 394   0.0000       0.740875        20.1602 
 395   0.0000       0.742468        20.2036 
 396   0.0000       0.746481        20.3128 
 397   0.0000       0.748006        20.3543 
 398   0.0000       0.748034        20.3551 
 399   0.0000       0.754402        20.5283 
 400   0.0000       0.757890        20.6232 
 401   0.0000       0.759228        20.6596 
 402   0.0000       0.761469        20.7206 
 403   0.0000       0.768838        20.9211 
 404   0.0000       0.769986        20.9524 
 405   0.0000       0.773354        21.0440 
 406   0.0000       0.784667        21.3519 
 407   0.0000       0.787422        21.4268 
 408   0.0000       0.798616        21.7314 
 409   0.0000       0.799755        21.7624 
 410   0.0000       0.800543        21.7839 
 411   0.0000       0.813412        22.1341 
 412   0.0000       0.814271        22.1575 
 413   0.0000       0.827258        22.5108 
 414   0.0000       0.827560        22.5190 
 415   0.0000       0.833620        22.6840 
 416   0.0000       0.834738        22.7144 
 417   0.0000       0.836232        22.7550 
 418   0.0000       0.859554        23.3897 
 419   0.0000       0.861558        23.4442 
 420   0.0000       0.865884        23.5619 
 421   0.0000       0.868965        23.6457 
 422   0.0000       0.882441        24.0124 
 423   0.0000       0.883777        24.0488 
 424   0.0000       0.898820        24.4581 
 425   0.0000       0.902696        24.5636 
 426   0.0000       0.905709        24.6456 
 427   0.0000       0.906904        24.6781 
 428   0.0000       0.914547        24.8861 
 429   0.0000       0.915295        24.9064 
 430   0.0000       0.923331        25.1251 
 431   0.0000       0.926949        25.2236 
 432   0.0000       0.929774        25.3004 
 433   0.0000       0.936940        25.4954 
 434   0.0000       0.942445        25.6452 
 435   0.0000       0.948328        25.8053 
 436   0.0000       0.948832        25.8190 
 437   0.0000       0.958412        26.0797 
 438   0.0000       0.960335        26.1320 
 439   0.0000       0.970539        26.4097 
 440   0.0000       0.973223        26.4828 
 441   0.0000       0.973540        26.4914 
 442   0.0000       0.978674        26.6311 
 443   0.0000       0.983534        26.7633 
 444   0.0000       0.987026        26.8584 
 445   0.0000       0.992491        27.0070 
 446   0.0000       1.003036        27.2940 
 447   0.0000       1.006852        27.3978 
 448   0.0000       1.007201        27.4073 
 449   0.0000       1.007699        27.4209 
 450   0.0000       1.014039        27.5934 
 451   0.0000       1.019519        27.7425 
 452   0.0000       1.020421        27.7671 
 453   0.0000       1.027479        27.9591 
 454   0.0000       1.029431        28.0122 
 455   0.0000       1.030106        28.0306 
 456   0.0000       1.032684        28.1008 
 457   0.0000       1.041923        28.3522 
 458   0.0000       1.051024        28.5998 
 459   0.0000       1.051223        28.6052 
 460   0.0000       1.051364        28.6091 
 461   0.0000       1.057818        28.7847 
 462   0.0000       1.073739        29.2179 
 463   0.0000       1.076971        29.3059 
 464   0.0000       1.078977        29.3605 
 465   0.0000       1.086193        29.5568 
 466   0.0000       1.086746        29.5719 
 467   0.0000       1.086848        29.5746 
 468   0.0000       1.102677        30.0054 
 469   0.0000       1.102866        30.0105 
 470   0.0000       1.104224        30.0475 
 471   0.0000       1.106627        30.1129 
 472   0.0000       1.116170        30.3725 
 473   0.0000       1.121298        30.5121 
 474   0.0000       1.123559        30.5736 
 475   0.0000       1.125284        30.6205 
 476   0.0000       1.126875        30.6638 
 477   0.0000       1.134130        30.8613 
 478   0.0000       1.142944        31.1011 
 479   0.0000       1.150617        31.3099 
 480   0.0000       1.153751        31.3952 
 481   0.0000       1.163572        31.6624 
 482   0.0000       1.166901        31.7530 
 483   0.0000       1.169937        31.8356 
 484   0.0000       1.176191        32.0058 
 485   0.0000       1.177070        32.0297 
 486   0.0000       1.183660        32.2090 
 487   0.0000       1.191191        32.4139 
 488   0.0000       1.192413        32.4472 
 489   0.0000       1.193759        32.4838 
 490   0.0000       1.200227        32.6598 
 491   0.0000       1.203420        32.7467 
 492   0.0000       1.215742        33.0820 
 493   0.0000       1.217260        33.1233 
 494   0.0000       1.217675        33.1346 
 495   0.0000       1.221514        33.2391 
 496   0.0000       1.228606        33.4321 
 497   0.0000       1.232061        33.5261 
 498   0.0000       1.240307        33.7505 
 499   0.0000       1.244945        33.8767 
 500   0.0000       1.248632        33.9770 
 501   0.0000       1.253277        34.1034 
 502   0.0000       1.255277        34.1578 
 503   0.0000       1.255851        34.1734 
 504   0.0000       1.265351        34.4320 
 505   0.0000       1.266777        34.4708 
 506   0.0000       1.266836        34.4724 
 507   0.0000       1.271913        34.6105 
 508   0.0000       1.284073        34.9414 
 509   0.0000       1.287173        35.0258 
 510   0.0000       1.289027        35.0762 
 511   0.0000       1.301621        35.4189 
 512   0.0000       1.302616        35.4460 
 513   0.0000       1.306685        35.5567 
 514   0.0000       1.307591        35.5814 
 515   0.0000       1.316353        35.8198 
 516   0.0000       1.318438        35.8765 
 517   0.0000       1.348252        36.6878 
 518   0.0000       1.349834        36.7308 
 519   0.0000       1.354360        36.8540 
 520   0.0000       1.357603        36.9423 
 521   0.0000       1.369065        37.2542 
 522   0.0000       1.369391        37.2630 
 523   0.0000       1.384772        37.6816 
 524   0.0000       1.386894        37.7393 
 525   0.0000       1.393102        37.9082 
 526   0.0000       1.401195        38.1285 
 527   0.0000       1.410102        38.3708 
 528   0.0000       1.411892        38.4195 
 529   0.0000       1.421787        38.6888 
 530   0.0000       1.423746        38.7421 
 531   0.0000       1.424066        38.7508 
 532   0.0000       1.425920        38.8012 
 533   0.0000       1.453528        39.5525 
 534   0.0000       1.457862        39.6704 
 535   0.0000       1.461418        39.7672 
 536   0.0000       1.472809        40.0772 
 537   0.0000       1.485777        40.4300 
 538   0.0000       1.493951        40.6525 
 539   0.0000       1.498055        40.7641 
 540   0.0000       1.526635        41.5419 
 541   0.0000       1.535043        41.7706 
 542   0.0000       1.542378        41.9702 
 543   0.0000       1.544361        42.0242 
 544   0.0000       1.554445        42.2986 
 545   0.0000       1.557694        42.3870 
 546   0.0000       1.569881        42.7186 
 547   0.0000       1.587006        43.1846 
 548   0.0000       1.587643        43.2020 
 549   0.0000       1.590868        43.2897 
 550   0.0000       1.602075        43.5947 
 551   0.0000       1.606970        43.7279 
 552   0.0000       1.610420        43.8218 
 553   0.0000       1.624419        44.2027 
 554   0.0000       1.634443        44.4755 
 555   0.0000       1.636037        44.5188 
 556   0.0000       1.644781        44.7568 
 557   0.0000       1.662579        45.2411 
 558   0.0000       1.667158        45.3657 
 559   0.0000       1.674757        45.5725 
 560   0.0000       1.677255        45.6404 
 561   0.0000       1.678104        45.6635 
 562   0.0000       1.684001        45.8240 
 563   0.0000       1.685848        45.8743 
 564   0.0000       1.688206        45.9384 
 565   0.0000       1.689637        45.9774 
 566   0.0000       1.691842        46.0373 
 567   0.0000       1.696319        46.1592 
 568   0.0000       1.699251        46.2390 
 569   0.0000       1.700232        46.2657 
 570   0.0000       1.701040        46.2877 
 571   0.0000       1.702751        46.3342 
 572   0.0000       1.703322        46.3497 
 573   0.0000       1.712421        46.5974 
 574   0.0000       1.712427        46.5975 
 575   0.0000       1.718024        46.7498 
 576   0.0000       1.718797        46.7708 
 577   0.0000       1.720048        46.8049 
 578   0.0000       1.725426        46.9512 
 579   0.0000       1.726942        46.9925 
 580   0.0000       1.727817        47.0163 
 581   0.0000       1.732684        47.1487 
 582   0.0000       1.734089        47.1870 
 583   0.0000       1.740298        47.3559 
 584   0.0000       1.744552        47.4717 
 585   0.0000       1.748437        47.5774 
 586   0.0000       1.750364        47.6298 
 587   0.0000       1.751224        47.6532 
 588   0.0000       1.752880        47.6983 
 589   0.0000       1.755475        47.7689 
 590   0.0000       1.755907        47.7807 
 591   0.0000       1.759864        47.8883 
 592   0.0000       1.763727        47.9935 
 593   0.0000       1.766172        48.0600 
 594   0.0000       1.766792        48.0768 
 595   0.0000       1.768224        48.1158 
 596   0.0000       1.770335        48.1733 
 597   0.0000       1.770784        48.1855 
 598   0.0000       1.775679        48.3187 
 599   0.0000       1.779211        48.4148 
 600   0.0000       1.779767        48.4299 
 601   0.0000       1.782637        48.5080 
 602   0.0000       1.786404        48.6105 
 603   0.0000       1.788434        48.6658 
 604   0.0000       1.789756        48.7017 
 605   0.0000       1.790509        48.7222 
 606   0.0000       1.797758        48.9195 
 607   0.0000       1.799813        48.9754 
 608   0.0000       1.803657        49.0800 
 609   0.0000       1.806377        49.1540 
 610   0.0000       1.806415        49.1551 
 611   0.0000       1.810550        49.2676 
 612   0.0000       1.814593        49.3776 
 613   0.0000       1.820292        49.5327 
 614   0.0000       1.821534        49.5665 
 615   0.0000       1.825011        49.6611 
 616   0.0000       1.827248        49.7219 
 617   0.0000       1.836736        49.9801 
 618   0.0000       1.839132        50.0453 
 619   0.0000       1.840718        50.0885 
 620   0.0000       1.851574        50.3839 
 621   0.0000       1.855315        50.4857 
 622   0.0000       1.863712        50.7142 
 623   0.0000       1.869737        50.8781 
 624   0.0000       1.869772        50.8791 
 625   0.0000       1.871908        50.9372 
 626   0.0000       1.883343        51.2484 
 627   0.0000       1.886269        51.3280 
 628   0.0000       1.888608        51.3916 
 629   0.0000       1.906153        51.8691 
 630   0.0000       1.910625        51.9907 
 631   0.0000       1.912484        52.0413 
 632   0.0000       1.922786        52.3217 
 633   0.0000       1.927728        52.4561 
 634   0.0000       1.932771        52.5934 
 635   0.0000       1.942635        52.8618 
 636   0.0000       1.948809        53.0298 
 637   0.0000       1.956356        53.2351 
 638   0.0000       1.958587        53.2959 
 639   0.0000       1.960183        53.3393 
 640   0.0000       1.962000        53.3887 
 641   0.0000       1.967659        53.5427 
 642   0.0000       1.972643        53.6784 
 643   0.0000       1.973216        53.6939 
 644   0.0000       1.979849        53.8744 
 645   0.0000       1.988407        54.1073 
 646   0.0000       1.993242        54.2389 
 647   0.0000       1.994177        54.2643 
 648   0.0000       2.002744        54.4974 
 649   0.0000       2.010037        54.6959 
 650   0.0000       2.014745        54.8240 
 651   0.0000       2.017443        54.8974 
 652   0.0000       2.021681        55.0127 
 653   0.0000       2.025842        55.1260 
 654   0.0000       2.033240        55.3273 
 655   0.0000       2.037401        55.4405 
 656   0.0000       2.038373        55.4670 
 657   0.0000       2.046237        55.6809 
 658   0.0000       2.051413        55.8218 
 659   0.0000       2.056842        55.9695 
 660   0.0000       2.060797        56.0771 
 661   0.0000       2.061003        56.0827 
 662   0.0000       2.072562        56.3973 
 663   0.0000       2.072822        56.4043 
 664   0.0000       2.076578        56.5066 
 665   0.0000       2.078760        56.5659 
 666   0.0000       2.080889        56.6239 
 667   0.0000       2.083729        56.7012 
 668   0.0000       2.097349        57.0718 
 669   0.0000       2.097918        57.0872 
 670   0.0000       2.108059        57.3632 
 671   0.0000       2.109054        57.3903 
 672   0.0000       2.113388        57.5082 
 673   0.0000       2.118702        57.6528 
 674   0.0000       2.120076        57.6902 
 675   0.0000       2.120730        57.7080 
 676   0.0000       2.126527        57.8657 
 677   0.0000       2.131946        58.0132 
 678   0.0000       2.134036        58.0701 
 679   0.0000       2.145114        58.3715 
 680   0.0000       2.145724        58.3881 
 681   0.0000       2.146617        58.4124 
 682   0.0000       2.150330        58.5134 
 683   0.0000       2.154335        58.6224 
 684   0.0000       2.161290        58.8117 
 685   0.0000       2.162566        58.8464 
 686   0.0000       2.168303        59.0025 
 687   0.0000       2.170367        59.0587 
 688   0.0000       2.177389        59.2498 
 689   0.0000       2.197465        59.7961 
 690   0.0000       2.198501        59.8243 
 691   0.0000       2.205942        60.0267 
 692   0.0000       2.234110        60.7932 
 693   0.0000       2.275423        61.9174 
 694   0.0000       2.280913        62.0668 
 695   0.0000       2.285408        62.1891 
 696   0.0000       2.293642        62.4132 
[...]
      px      :     1.032457
      py      :     1.029477
      dz2     :     0.010227  d :     0.115324
      dxz     :     0.022327
      dyz     :     0.015249
      dx2y2   :     0.035782
      dxy     :     0.031739
 37 C s       :     2.848266  s :     2.848266
      pz      :     0.973439  p :     3.013904
      px      :     1.005972
      py      :     1.034493
      dz2     :     0.014900  d :     0.111768
      dxz     :     0.013581
      dyz     :     0.025201
      dx2y2   :     0.033899
      dxy     :     0.024187
 38 C s       :     2.835554  s :     2.835554
      pz      :     0.992972  p :     3.059347
      px      :     1.016516
      py      :     1.049860
      dz2     :     0.013980  d :     0.118016
      dxz     :     0.016167
      dyz     :     0.024234
      dx2y2   :     0.025334
      dxy     :     0.038302
 39 C s       :     2.848498  s :     2.848498
      pz      :     1.029110  p :     3.019766
      px      :     0.970688
      py      :     1.019968
      dz2     :     0.025777  d :     0.109678
      dxz     :     0.019703
      dyz     :     0.032731
      dx2y2   :     0.017057
      dxy     :     0.014410
 40 C s       :     2.841082  s :     2.841082
      pz      :     1.020536  p :     3.055572
      px      :     1.014106
      py      :     1.020930
      dz2     :     0.022106  d :     0.110588
      dxz     :     0.018168
      dyz     :     0.025506
      dx2y2   :     0.019680
      dxy     :     0.025128
 41 C s       :     2.848498  s :     2.848498
      pz      :     1.029110  p :     3.019766
      px      :     0.970688
      py      :     1.019968
      dz2     :     0.025777  d :     0.109678
      dxz     :     0.019704
      dyz     :     0.032731
      dx2y2   :     0.017057
      dxy     :     0.014410
 42 C s       :     2.835181  s :     2.835181
      pz      :     1.025351  p :     3.102902
      px      :     1.045407
      py      :     1.032144
      dz2     :     0.023858  d :     0.109778
      dxz     :     0.013021
      dyz     :     0.040630
      dx2y2   :     0.013857
      dxy     :     0.018411
 43 C s       :     2.848266  s :     2.848266
      pz      :     0.973440  p :     3.013906
      px      :     1.005973
      py      :     1.034494
      dz2     :     0.014900  d :     0.111769
      dxz     :     0.013581
      dyz     :     0.025201
      dx2y2   :     0.033899
      dxy     :     0.024187
 44 C s       :     2.848799  s :     2.848799
      pz      :     0.974463  p :     3.036398
      px      :     1.032458
      py      :     1.029478
      dz2     :     0.010227  d :     0.115324
      dxz     :     0.022327
      dyz     :     0.015249
      dx2y2   :     0.035782
      dxy     :     0.031739
 45 C s       :     2.835554  s :     2.835554
      pz      :     0.992973  p :     3.059349
      px      :     1.016516
      py      :     1.049860
      dz2     :     0.013980  d :     0.118017
      dxz     :     0.016167
      dyz     :     0.024234
      dx2y2   :     0.025334
      dxy     :     0.038302
 46 C s       :     2.841082  s :     2.841082
      pz      :     1.020537  p :     3.055573
      px      :     1.014107
      py      :     1.020930
      dz2     :     0.022106  d :     0.110588
      dxz     :     0.018168
      dyz     :     0.025506
      dx2y2   :     0.019680
      dxy     :     0.025128
 47 C s       :     2.843738  s :     2.843738
      pz      :     1.008657  p :     3.039135
      px      :     1.013006
      py      :     1.017472
      dz2     :     0.022572  d :     0.115406
      dxz     :     0.026617
      dyz     :     0.017156
      dx2y2   :     0.028230
      dxy     :     0.020831
 48 C s       :     2.850916  s :     2.850916
      pz      :     1.004178  p :     3.035762
      px      :     1.010448
      py      :     1.021136
      dz2     :     0.020648  d :     0.108643
      dxz     :     0.016025
      dyz     :     0.017466
      dx2y2   :     0.026460
      dxy     :     0.028043
 49 C s       :     2.850395  s :     2.850395
      pz      :     1.028233  p :     3.053027
      px      :     1.007025
      py      :     1.017770
      dz2     :     0.028084  d :     0.101306
      dxz     :     0.016636
      dyz     :     0.028885
      dx2y2   :     0.014030
      dxy     :     0.013671
 50 C s       :     2.850395  s :     2.850395
      pz      :     1.028233  p :     3.053027
      px      :     1.007025
      py      :     1.017770
      dz2     :     0.028084  d :     0.101306
      dxz     :     0.016636
      dyz     :     0.028885
      dx2y2   :     0.014030
      dxy     :     0.013671
 51 C s       :     2.842595  s :     2.842595
      pz      :     1.022079  p :     3.058409
      px      :     1.017786
      py      :     1.018545
      dz2     :     0.019647  d :     0.110074
      dxz     :     0.027172
      dyz     :     0.024602
      dx2y2   :     0.016730
      dxy     :     0.021923
 52 C s       :     2.843737  s :     2.843737
      pz      :     1.008657  p :     3.039134
      px      :     1.013006
      py      :     1.017471
      dz2     :     0.022572  d :     0.115406
      dxz     :     0.026617
      dyz     :     0.017156
      dx2y2   :     0.028230
      dxy     :     0.020831
 53 C s       :     2.850916  s :     2.850916
      pz      :     1.004177  p :     3.035760
      px      :     1.010448
      py      :     1.021135
      dz2     :     0.020648  d :     0.108642
      dxz     :     0.016025
      dyz     :     0.017466
      dx2y2   :     0.026460
      dxy     :     0.028043
 54 C s       :     2.842595  s :     2.842595
      pz      :     1.022079  p :     3.058409
      px      :     1.017786
      py      :     1.018545
      dz2     :     0.019647  d :     0.110074
      dxz     :     0.027172
      dyz     :     0.024602
      dx2y2   :     0.016730
      dxy     :     0.021923
 55 C s       :     2.845215  s :     2.845215
      pz      :     1.030507  p :     3.032135
      px      :     1.011727
      py      :     0.989901
      dz2     :     0.024553  d :     0.115315
      dxz     :     0.036983
      dyz     :     0.018750
      dx2y2   :     0.019214
      dxy     :     0.015815
 56 C s       :     2.855368  s :     2.855368
      pz      :     1.030728  p :     3.027424
      px      :     1.002422
      py      :     0.994274
      dz2     :     0.026530  d :     0.113422
      dxz     :     0.032022
      dyz     :     0.021557
      dx2y2   :     0.020390
      dxy     :     0.012923
 57 C s       :     2.849750  s :     2.849750
      pz      :     1.054278  p :     3.027128
      px      :     1.004846
      py      :     0.968003
      dz2     :     0.033544  d :     0.118235
      dxz     :     0.029568
      dyz     :     0.019638
      dx2y2   :     0.018746
      dxy     :     0.016739
 58 C s       :     2.855368  s :     2.855368
      pz      :     1.030728  p :     3.027424
      px      :     1.002422
      py      :     0.994274
      dz2     :     0.026530  d :     0.113422
      dxz     :     0.032022
      dyz     :     0.021557
      dx2y2   :     0.020390
      dxy     :     0.012923
 59 C s       :     2.849749  s :     2.849749
      pz      :     1.054278  p :     3.027126
      px      :     1.004846
      py      :     0.968002
      dz2     :     0.033544  d :     0.118235
      dxz     :     0.029568
      dyz     :     0.019638
      dx2y2   :     0.018746
      dxy     :     0.016739


                      *****************************
                      * MAYER POPULATION ANALYSIS *
                      *****************************

  NA   - Mulliken gross atomic population
  ZA   - Total nuclear charge
  QA   - Mulliken gross atomic charge
  VA   - Mayer's total valence
  BVA  - Mayer's bonded valence
  FA   - Mayer's free valence

  ATOM       NA         ZA         QA         VA         BVA        FA
  0 C      6.0144     6.0000    -0.0144     3.7861     3.7861    -0.0000
  1 C      6.0144     6.0000    -0.0144     3.7861     3.7861     0.0000
  2 C      6.0131     6.0000    -0.0131     3.7828     3.7828    -0.0000
  3 C      6.0131     6.0000    -0.0131     3.7828     3.7828    -0.0000
  4 C      5.9938     6.0000     0.0062     3.7563     3.7563     0.0000
  5 C      6.0070     6.0000    -0.0070     3.7607     3.7607    -0.0000
  6 C      5.9934     6.0000     0.0066     3.7395     3.7395     0.0000
  7 C      6.0171     6.0000    -0.0171     3.7813     3.7813    -0.0000
  8 C      5.9937     6.0000     0.0063     3.7133     3.7133     0.0000
  9 C      5.9934     6.0000     0.0066     3.7395     3.7395    -0.0000
 10 C      5.9937     6.0000     0.0063     3.7133     3.7133    -0.0000
 11 C      6.0070     6.0000    -0.0070     3.7607     3.7607     0.0000
 12 C      6.0170     6.0000    -0.0170     3.7813     3.7813     0.0000
 13 C      5.9661     6.0000     0.0339     3.7021     3.7021    -0.0000
 14 C      5.9958     6.0000     0.0042     3.7389     3.7389     0.0000
 15 C      6.0124     6.0000    -0.0124     3.7709     3.7709    -0.0000
 16 C      5.9661     6.0000     0.0339     3.7021     3.7021    -0.0000
 17 C      6.0124     6.0000    -0.0124     3.7709     3.7709    -0.0000
 18 C      5.9919     6.0000     0.0081     3.7480     3.7480    -0.0000
 19 C      6.0152     6.0000    -0.0152     3.7722     3.7722    -0.0000
 20 C      6.0096     6.0000    -0.0096     3.7607     3.7607    -0.0000
 21 C      5.9638     6.0000     0.0362     3.6820     3.6820    -0.0000
 22 C      6.0034     6.0000    -0.0034     3.7231     3.7231     0.0000
 23 C      6.0043     6.0000    -0.0043     3.7427     3.7427     0.0000
 24 C      5.9638     6.0000     0.0362     3.6820     3.6820    -0.0000
 25 C      6.0043     6.0000    -0.0043     3.7427     3.7427    -0.0000
 26 C      6.0152     6.0000    -0.0152     3.7722     3.7722    -0.0000
 27 C      6.0034     6.0000    -0.0034     3.7231     3.7231     0.0000
 28 C      5.9919     6.0000     0.0081     3.7480     3.7480    -0.0000
 29 C      6.0096     6.0000    -0.0096     3.7607     3.7607    -0.0000
 30 C      6.0034     6.0000    -0.0034     3.7231     3.7231    -0.0000
 31 C      6.0043     6.0000    -0.0043     3.7427     3.7427    -0.0000
 32 C      6.0043     6.0000    -0.0043     3.7427     3.7427    -0.0000
 33 C      5.9638     6.0000     0.0362     3.6820     3.6820     0.0000
 34 C      6.0034     6.0000    -0.0034     3.7231     3.7231    -0.0000
 35 C      5.9638     6.0000     0.0362     3.6820     3.6820     0.0000
 36 C      6.0096     6.0000    -0.0096     3.7607     3.7607    -0.0000
 37 C      5.9919     6.0000     0.0081     3.7480     3.7480    -0.0000
 38 C      6.0152     6.0000    -0.0152     3.7722     3.7722    -0.0000
 39 C      6.0124     6.0000    -0.0124     3.7709     3.7709    -0.0000
 40 C      5.9661     6.0000     0.0339     3.7021     3.7021    -0.0000
 41 C      6.0124     6.0000    -0.0124     3.7709     3.7709    -0.0000
 42 C      5.9958     6.0000     0.0042     3.7389     3.7389    -0.0000
 43 C      5.9919     6.0000     0.0081     3.7480     3.7480     0.0000
 44 C      6.0096     6.0000    -0.0096     3.7607     3.7607    -0.0000
 45 C      6.0152     6.0000    -0.0152     3.7722     3.7722    -0.0000
 46 C      5.9661     6.0000     0.0339     3.7021     3.7021    -0.0000
 47 C      6.0171     6.0000    -0.0171     3.7813     3.7813     0.0000
 48 C      6.0070     6.0000    -0.0070     3.7607     3.7607     0.0000
 49 C      5.9937     6.0000     0.0063     3.7133     3.7133     0.0000
 50 C      5.9937     6.0000     0.0063     3.7133     3.7133     0.0000
 51 C      5.9934     6.0000     0.0066     3.7395     3.7395     0.0000
 52 C      6.0171     6.0000    -0.0171     3.7813     3.7813    -0.0000
 53 C      6.0070     6.0000    -0.0070     3.7607     3.7607    -0.0000
 54 C      5.9934     6.0000     0.0066     3.7395     3.7395    -0.0000
 55 C      5.9938     6.0000     0.0062     3.7563     3.7563    -0.0000
 56 C      6.0131     6.0000    -0.0131     3.7828     3.7828    -0.0000
 57 C      6.0144     6.0000    -0.0144     3.7861     3.7861    -0.0000
 58 C      6.0131     6.0000    -0.0131     3.7828     3.7828    -0.0000
 59 C      6.0144     6.0000    -0.0144     3.7861     3.7861    -0.0000

  Mayer bond orders larger than 0.100000
B(  0-C ,  1-C ) :   1.3972 B(  0-C ,  3-C ) :   1.0815 B(  0-C ,  6-C ) :   1.2122 
B(  1-C ,  2-C ) :   1.0815 B(  1-C ,  9-C ) :   1.2122 B(  2-C ,  4-C ) :   1.2128 
B(  2-C , 11-C ) :   1.3907 B(  3-C ,  4-C ) :   1.2128 B(  3-C ,  5-C ) :   1.3907 
B(  4-C , 14-C ) :   1.2657 B(  5-C ,  7-C ) :   1.1260 B(  5-C , 16-C ) :   1.1743 
B(  6-C ,  7-C ) :   1.1923 B(  6-C ,  8-C ) :   1.2815 B(  7-C , 19-C ) :   1.3710 
B(  8-C , 10-C ) :   1.2436 B(  8-C , 21-C ) :   1.1464 B(  9-C , 10-C ) :   1.2815 
B(  9-C , 12-C ) :   1.1923 B( 10-C , 24-C ) :   1.1464 B( 11-C , 12-C ) :   1.1260 
B( 11-C , 13-C ) :   1.1743 B( 12-C , 26-C ) :   1.3710 B( 13-C , 15-C ) :   1.3337 
B( 13-C , 28-C ) :   1.1562 B( 14-C , 15-C ) :   1.2191 B( 14-C , 17-C ) :   1.2191 
B( 15-C , 31-C ) :   1.1152 B( 16-C , 17-C ) :   1.3337 B( 16-C , 18-C ) :   1.1562 
B( 17-C , 32-C ) :   1.1152 B( 18-C , 20-C ) :   1.3537 B( 18-C , 34-C ) :   1.1355 
B( 19-C , 20-C ) :   1.1324 B( 19-C , 22-C ) :   1.1921 B( 20-C , 36-C ) :   1.1685 
B( 21-C , 22-C ) :   1.3213 B( 21-C , 23-C ) :   1.1682 B( 22-C , 37-C ) :   1.1355 
B( 23-C , 25-C ) :   1.3729 B( 23-C , 39-C ) :   1.1152 B( 24-C , 25-C ) :   1.1682 
B( 24-C , 27-C ) :   1.3213 B( 25-C , 41-C ) :   1.1152 B( 26-C , 27-C ) :   1.1921 
B( 26-C , 29-C ) :   1.1324 B( 27-C , 43-C ) :   1.1355 B( 28-C , 29-C ) :   1.3537 
B( 28-C , 30-C ) :   1.1355 B( 29-C , 44-C ) :   1.1685 B( 30-C , 33-C ) :   1.3213 
B( 30-C , 45-C ) :   1.1921 B( 31-C , 32-C ) :   1.3729 B( 31-C , 33-C ) :   1.1682 
B( 32-C , 35-C ) :   1.1682 B( 33-C , 49-C ) :   1.1464 B( 34-C , 35-C ) :   1.3213 
B( 34-C , 38-C ) :   1.1921 B( 35-C , 50-C ) :   1.1464 B( 36-C , 37-C ) :   1.3537 
B( 36-C , 38-C ) :   1.1324 B( 37-C , 40-C ) :   1.1562 B( 38-C , 52-C ) :   1.3710 
B( 39-C , 40-C ) :   1.3337 B( 39-C , 42-C ) :   1.2191 B( 40-C , 53-C ) :   1.1743 
B( 41-C , 42-C ) :   1.2191 B( 41-C , 46-C ) :   1.3337 B( 42-C , 55-C ) :   1.2657 
B( 43-C , 44-C ) :   1.3537 B( 43-C , 46-C ) :   1.1562 B( 44-C , 45-C ) :   1.1324 
B( 45-C , 47-C ) :   1.3710 B( 46-C , 48-C ) :   1.1743 B( 47-C , 48-C ) :   1.1260 
B( 47-C , 51-C ) :   1.1923 B( 48-C , 56-C ) :   1.3907 B( 49-C , 50-C ) :   1.2436 
B( 49-C , 51-C ) :   1.2815 B( 50-C , 54-C ) :   1.2815 B( 51-C , 57-C ) :   1.2122 
B( 52-C , 53-C ) :   1.1260 B( 52-C , 54-C ) :   1.1923 B( 53-C , 58-C ) :   1.3907 
B( 54-C , 59-C ) :   1.2122 B( 55-C , 56-C ) :   1.2128 B( 55-C , 58-C ) :   1.2128 
B( 56-C , 57-C ) :   1.0815 B( 57-C , 59-C ) :   1.3972 B( 58-C , 59-C ) :   1.0815 


-------
TIMINGS
-------

Total SCF time: 0 days 0 hours 53 min 56 sec 

Total time                  ....    3236.090 sec
Sum of individual times     ....    3222.108 sec  ( 99.6%)

Fock matrix formation       ....    3125.228 sec  ( 96.6%)
  Split-RI-J                ....     181.880 sec  (  5.8% of F)
  Chain of spheres X        ....    2696.352 sec  ( 86.3% of F)
  XC integration            ....     229.593 sec  (  7.3% of F)
    Basis function eval.    ....      72.499 sec  ( 31.6% of XC)
    Density eval.           ....      79.647 sec  ( 34.7% of XC)
    XC-Functional eval.     ....       6.354 sec  (  2.8% of XC)
    XC-Potential eval.      ....      36.605 sec  ( 15.9% of XC)
Diagonalization             ....       6.284 sec  (  0.2%)
Density matrix formation    ....       0.660 sec  (  0.0%)
Population analysis         ....       0.919 sec  (  0.0%)
Initial guess               ....       1.039 sec  (  0.0%)
Orbital Transformation      ....       0.000 sec  (  0.0%)
Orbital Orthonormalization  ....       0.000 sec  (  0.0%)
DIIS solution               ....       8.937 sec  (  0.3%)
SOSCF solution              ....       9.136 sec  (  0.3%)
Grid generation             ....      69.904 sec  (  2.2%)

Maximum memory used throughout the entire SCF-calculation: 364.7 MB


-------------------------------------------------------------------------------
                          DFT DISPERSION CORRECTION                            
                                                                               
                              DFTD3 V3.1  Rev 1                                
                          USING Becke-Johnson damping                          
-------------------------------------------------------------------------------
The PBEh-3c composite method is recognized
Using three-body term ABC
Active option DFTDOPT                   ...         4   

molecular C6(AA) [au] = 83648.858239 


            DFT-D V3
 parameters
 s6 scaling factor         :     1.0000 
 a1 scaling factor         :     0.4860 
 s8 scaling factor         :     0.0000 
 a2 scaling factor         :     4.5000 
 Damping factor alpha9(ATM):    16.0000 
 ad hoc parameters k1-k3   :    16.0000     1.3333    -4.0000 

 Edisp/kcal,au: -60.958239544620  -0.097143127812 
 E6   /kcal   : -63.684951559 
 E8   /kcal   :  -0.000000000 
 E6(ABC)      :   2.726712014 
 % E8         :   0.000000000 
 % E6(ABC)    :  -4.473081956 

-------------------------   ----------------
Dispersion correction           -0.097143128
-------------------------   ----------------

------------------   -----------------
gCP correction             0.069817601
------------------   -----------------

-------------------------   --------------------
FINAL SINGLE POINT ENERGY     -2280.980683847240
-------------------------   --------------------


                            ***************************************
                            *     ORCA property calculations      *
                            ***************************************

                                    ---------------------
                                    Active property flags
                                    ---------------------
   (+) Dipole Moment


------------------------------------------------------------------------------
                       ORCA ELECTRIC PROPERTIES CALCULATION
------------------------------------------------------------------------------

Dipole Moment Calculation                       ... on
Quadrupole Moment Calculation                   ... off
Polarizability Calculation                      ... off
GBWName                                         ... pbeh-3c.gbw
Electron density                                ... pbeh-3c.scfp
The origin for moment calculation is the CENTER OF MASS  = ( 0.000000,  0.000000  0.000000)

-------------
DIPOLE MOMENT
-------------
                                X             Y             Z
Electronic contribution:      0.00000       0.00000       0.00024
Nuclear contribution   :      0.00000      -0.00000       0.00000
                        -----------------------------------------
Total Dipole Moment    :      0.00000       0.00000       0.00024
                        -----------------------------------------
Magnitude (a.u.)       :      0.00024
Magnitude (Debye)      :      0.00060



--------------------
Rotational spectrum 
--------------------
 
Rotational constants in cm-1:     0.003188     0.002781     0.002367 
Rotational constants in MHz :    95.584340    83.363383    70.959282 

 Dipole components along the rotational axes: 
x,y,z [a.u.] :     0.000001     0.000235    -0.000002 
x,y,z [Debye]:     0.000004     0.000598    -0.000004 

 

Timings for individual modules:

Sum of individual times         ...     3248.492 sec (=  54.142 min)
GTO integral calculation        ...       11.454 sec (=   0.191 min)   0.4 %
SCF iterations                  ...     3237.038 sec (=  53.951 min)  99.6 %
                             ****ORCA TERMINATED NORMALLY****
TOTAL RUN TIME: 0 days 0 hours 54 minutes 11 seconds 601 msec
