
                                 *****************
                                 * O   R   C   A *
                                 *****************

                                            #,                                       
                                            ###                                      
                                            ####                                     
                                            #####                                    
                                            ######                                   
                                           ########,                                 
                                     ,,################,,,,,                         
                               ,,#################################,,                 
                          ,,##########################################,,             
                       ,#########################################, ''#####,          
                    ,#############################################,,   '####,        
                  ,##################################################,,,,####,       
                ,###########''''           ''''###############################       
              ,#####''   ,,,,##########,,,,          '''####'''          '####       
            ,##' ,,,,###########################,,,                        '##       
           ' ,,###''''                  '''############,,,                           
         ,,##''                                '''############,,,,        ,,,,,,###''
      ,#''                                            '''#######################'''  
     '                                                          ''''####''''         
             ,#######,   #######,   ,#######,      ##                                
            ,#'     '#,  ##    ##  ,#'     '#,    #''#        ######   ,####,        
            ##       ##  ##   ,#'  ##            #'  '#       #        #'  '#        
            ##       ##  #######   ##           ,######,      #####,   #    #        
            '#,     ,#'  ##    ##  '#,     ,#' ,#      #,         ##   #,  ,#        
             '#######'   ##     ##  '#######'  #'      '#     #####' # '####'        



                  #######################################################
                  #                        -***-                        #
                  #          Department of theory and spectroscopy      #
                  #    Directorship and core code : Frank Neese         #
                  #        Max Planck Institute fuer Kohlenforschung    #
                  #                Kaiser Wilhelm Platz 1               #
                  #                 D-45470 Muelheim/Ruhr               #
                  #                      Germany                        #
                  #                                                     #
                  #                  All rights reserved                #
                  #                        -***-                        #
                  #######################################################


                         Program Version 5.0.3 -  RELEASE  -


 With contributions from (in alphabetic order):
   Daniel Aravena         : Magnetic Suceptibility
   Michael Atanasov       : Ab Initio Ligand Field Theory (pilot matlab implementation)
   Alexander A. Auer      : GIAO ZORA, VPT2 properties, NMR spectrum
   Ute Becker             : Parallelization
   Giovanni Bistoni       : ED, misc. LED, open-shell LED, HFLD
   Martin Brehm           : Molecular dynamics
   Dmytro Bykov           : SCF Hessian
   Vijay G. Chilkuri      : MRCI spin determinant printing, contributions to CSF-ICE
   Dipayan Datta          : RHF DLPNO-CCSD density
   Achintya Kumar Dutta   : EOM-CC, STEOM-CC
   Dmitry Ganyushin       : Spin-Orbit,Spin-Spin,Magnetic field MRCI
   Miquel Garcia          : C-PCM and meta-GGA Hessian, CC/C-PCM, Gaussian charge scheme
   Yang Guo               : DLPNO-NEVPT2, F12-NEVPT2, CIM, IAO-localization
   Andreas Hansen         : Spin unrestricted coupled pair/coupled cluster methods
   Benjamin Helmich-Paris : MC-RPA, TRAH-SCF, COSX integrals
   Lee Huntington         : MR-EOM, pCC
   Robert Izsak           : Overlap fitted RIJCOSX, COSX-SCS-MP3, EOM
   Marcus Kettner         : VPT2
   Christian Kollmar      : KDIIS, OOCD, Brueckner-CCSD(T), CCSD density, CASPT2, CASPT2-K
   Simone Kossmann        : Meta GGA functionals, TD-DFT gradient, OOMP2, MP2 Hessian
   Martin Krupicka        : Initial AUTO-CI
   Lucas Lang             : DCDCAS
   Marvin Lechner         : AUTO-CI (C++ implementation), FIC-MRCC
   Dagmar Lenk            : GEPOL surface, SMD
   Dimitrios Liakos       : Extrapolation schemes; Compound Job, initial MDCI parallelization
   Dimitrios Manganas     : Further ROCIS development; embedding schemes
   Dimitrios Pantazis     : SARC Basis sets
   Anastasios Papadopoulos: AUTO-CI, single reference methods and gradients
   Taras Petrenko         : DFT Hessian,TD-DFT gradient, ASA, ECA, R-Raman, ABS, FL, XAS/XES, NRVS
   Peter Pinski           : DLPNO-MP2, DLPNO-MP2 Gradient
   Christoph Reimann      : Effective Core Potentials
   Marius Retegan         : Local ZFS, SOC
   Christoph Riplinger    : Optimizer, TS searches, QM/MM, DLPNO-CCSD(T), (RO)-DLPNO pert. Triples
   Tobias Risthaus        : Range-separated hybrids, TD-DFT gradient, RPA, STAB
   Michael Roemelt        : Original ROCIS implementation
   Masaaki Saitow         : Open-shell DLPNO-CCSD energy and density
   Barbara Sandhoefer     : DKH picture change effects
   Avijit Sen             : IP-ROCIS
   Kantharuban Sivalingam : CASSCF convergence, NEVPT2, FIC-MRCI
   Bernardo de Souza      : ESD, SOC TD-DFT
   Georgi Stoychev        : AutoAux, RI-MP2 NMR, DLPNO-MP2 response
   Willem Van den Heuvel  : Paramagnetic NMR
   Boris Wezisla          : Elementary symmetry handling
   Frank Wennmohs         : Technical directorship


 We gratefully acknowledge several colleagues who have allowed us to
 interface, adapt or use parts of their codes:
   Stefan Grimme, W. Hujo, H. Kruse, P. Pracht,  : VdW corrections, initial TS optimization,
                  C. Bannwarth, S. Ehlert          DFT functionals, gCP, sTDA/sTD-DF
   Ed Valeev, F. Pavosevic, A. Kumar             : LibInt (2-el integral package), F12 methods
   Garnet Chan, S. Sharma, J. Yang, R. Olivares  : DMRG
   Ulf Ekstrom                                   : XCFun DFT Library
   Mihaly Kallay                                 : mrcc  (arbitrary order and MRCC methods)
   Jiri Pittner, Ondrej Demel                    : Mk-CCSD
   Frank Weinhold                                : gennbo (NPA and NBO analysis)
   Christopher J. Cramer and Donald G. Truhlar   : smd solvation model
   Lars Goerigk                                  : TD-DFT with DH, B97 family of functionals
   V. Asgeirsson, H. Jonsson                     : NEB implementation
   FAccTs GmbH                                   : IRC, NEB, NEB-TS, DLPNO-Multilevel, CI-OPT
                                                   MM, QMMM, 2- and 3-layer-ONIOM, Crystal-QMMM,
                                                   LR-CPCM, SF, NACMEs, symmetry and pop. for TD-DFT,
                                                   nearIR, NL-DFT gradient (VV10), updates on ESD,
                                                   ML-optimized integration grids
   S Lehtola, MJT Oliveira, MAL Marques          : LibXC Library
   Liviu Ungur et al                             : ANISO software


 Your calculation uses the libint2 library for the computation of 2-el integrals
 For citations please refer to: http://libint.valeyev.net

 Your ORCA version has been built with support for libXC version: 5.1.0
 For citations please refer to: https://tddft.org/programs/libxc/

 This ORCA versions uses:
   CBLAS   interface :  Fast vector & matrix operations
   LAPACKE interface :  Fast linear algebra routines
   SCALAPACK package :  Parallel linear algebra routines
   Shared memory     :  Shared parallel matrices
   BLAS/LAPACK       :  OpenBLAS 0.3.15  USE64BITINT DYNAMIC_ARCH NO_AFFINITY Haswell SINGLE_THREADED
        Core in use  :  Haswell
   Copyright (c) 2011-2014, The OpenBLAS Project




***************************************
The coordinates will be read from file: SI5H12_2.xyz
***************************************


Your calculation utilizes the geometrical counterpoise correction gCP
Please cite in your paper:
H.Kruse, S. Grimme J.Chem.Phys., 136, (2012), 154101 
   

Your calculation utilizes the atom-pairwise dispersion correction
with the Becke-Johnson damping scheme (D3BJ)
Cite in your paper:
S.Grimme, S.Ehrlich, L.Goerigk, J Comput Chem, (2011), 32, 1456–1465 
S.Grimme, J.Antony, S.Ehrlich and H.Krieg, J.Chem.Phys., 132, (2010), 154104 
   

Your calculation employs the composite approach PBEh-3c.
Please cite in your paper:
S. Grimme, J. G. Brandenburg, C. Bannwarth, A. Hansen J.Chem.Phys., 143, (2015), 054107 
   

================================================================================

----- Orbital basis set information -----
Your calculation utilizes the basis: def2-mSVP

----- AuxJ basis set information -----
Your calculation utilizes the auxiliary basis: def2/J
   F. Weigend, Phys. Chem. Chem. Phys. 8, 1057 (2006).

================================================================================
                                        WARNINGS
                       Please study these warnings very carefully!
================================================================================


INFO   : the flag for use of the SHARK integral package has been found!

================================================================================
                                       INPUT FILE
================================================================================
NAME = pbeh-3c.inp
|  1> ! PBEh-3c def2/J TightSCF DefGrid3
|  2> 
|  3> %maxcore 60000
|  4> 
|  5> %pal
|  6> nprocs 4
|  7> end
|  8> 
|  9> *xyzfile 0 1 SI5H12_2.xyz
| 10> 
| 11>                          ****END OF INPUT****
================================================================================

                       ****************************
                       * Single Point Calculation *
                       ****************************

---------------------------------
CARTESIAN COORDINATES (ANGSTROEM)
---------------------------------
  Si     0.000000    1.947355   -0.861673
  Si     0.000000    0.000000    0.447787
  Si     0.000000   -1.947355   -0.861673
  Si     0.000000   -3.879973    0.469947
  H      1.202071    1.940151   -1.739160
  H     -1.202071    1.940151   -1.739160
  Si     0.000000    3.879973    0.469947
  H      1.200535    0.000000    1.327897
  H     -1.200535    0.000000    1.327897
  H      1.202071   -1.940151   -1.739160
  H     -1.202071   -1.940151   -1.739160
  H      0.000000   -5.114179   -0.357781
  H      1.205443   -3.891607    1.338018
  H     -1.205443   -3.891607    1.338018
  H      0.000000    5.114179   -0.357781
  H     -1.205443    3.891607    1.338018
  H      1.205443    3.891607    1.338018

----------------------------
CARTESIAN COORDINATES (A.U.)
----------------------------
  NO LB      ZA    FRAG     MASS         X           Y           Z
   0 Si   14.0000    0    28.086    0.000000    3.679967   -1.628326
   1 Si   14.0000    0    28.086    0.000000    0.000000    0.846196
   2 Si   14.0000    0    28.086    0.000000   -3.679967   -1.628326
   3 Si   14.0000    0    28.086    0.000000   -7.332086    0.888072
   4 H     1.0000    0     1.008    2.271585    3.666354   -3.286536
   5 H     1.0000    0     1.008   -2.271585    3.666354   -3.286536
   6 Si   14.0000    0    28.086    0.000000    7.332086    0.888072
   7 H     1.0000    0     1.008    2.268682    0.000000    2.509362
   8 H     1.0000    0     1.008   -2.268682    0.000000    2.509362
   9 H     1.0000    0     1.008    2.271585   -3.666354   -3.286536
  10 H     1.0000    0     1.008   -2.271585   -3.666354   -3.286536
  11 H     1.0000    0     1.008    0.000000   -9.664398   -0.676109
  12 H     1.0000    0     1.008    2.277957   -7.354072    2.528488
  13 H     1.0000    0     1.008   -2.277957   -7.354072    2.528488
  14 H     1.0000    0     1.008    0.000000    9.664398   -0.676109
  15 H     1.0000    0     1.008   -2.277957    7.354072    2.528488
  16 H     1.0000    0     1.008    2.277957    7.354072    2.528488

--------------------------------
INTERNAL COORDINATES (ANGSTROEM)
--------------------------------
 Si     0   0   0     0.000000000000     0.00000000     0.00000000
 Si     1   0   0     2.346673630625     0.00000000     0.00000000
 Si     2   1   0     2.346673630625   112.16382844     0.00000000
 Si     3   2   1     2.346960879466   111.51413030   180.00000000
 H      1   2   3     1.488291030047   108.96442315   301.34589680
 H      1   2   3     1.488291030047   108.96442315    58.65410320
 Si     1   2   3     2.346960879466   111.51413030   180.00000000
 H      2   1   3     1.488582271157   109.26369760   121.31430444
 H      2   1   3     1.488582271157   109.26369760   238.68569556
 H      3   2   1     1.488291030047   108.96442315    58.65410320
 H      3   2   1     1.488291030047   108.96442315   301.34589680
 H      4   3   2     1.486069079895   111.58417295   180.00000000
 H      4   3   2     1.485521470104   109.75511496   300.43489233
 H      4   3   2     1.485521470104   109.75511496    59.56510767
 H      7   1   2     1.486069079895   111.58417295   180.00000000
 H      7   1   2     1.485521470104   109.75511496   300.43489233
 H      7   1   2     1.485521470104   109.75511496    59.56510767

---------------------------
INTERNAL COORDINATES (A.U.)
---------------------------
 Si     0   0   0     0.000000000000     0.00000000     0.00000000
 Si     1   0   0     4.434570487577     0.00000000     0.00000000
 Si     2   1   0     4.434570487577   112.16382844     0.00000000
 Si     3   2   1     4.435113309218   111.51413030   180.00000000
 H      1   2   3     2.812462454361   108.96442315   301.34589680
 H      1   2   3     2.812462454361   108.96442315    58.65410320
 Si     1   2   3     4.435113309218   111.51413030   180.00000000
 H      2   1   3     2.813012820298   109.26369760   121.31430444
 H      2   1   3     2.813012820298   109.26369760   238.68569556
 H      3   2   1     2.812462454361   108.96442315    58.65410320
 H      3   2   1     2.812462454361   108.96442315   301.34589680
 H      4   3   2     2.808263577090   111.58417295   180.00000000
 H      4   3   2     2.807228744556   109.75511496   300.43489233
 H      4   3   2     2.807228744556   109.75511496    59.56510767
 H      7   1   2     2.808263577090   111.58417295   180.00000000
 H      7   1   2     2.807228744556   109.75511496   300.43489233
 H      7   1   2     2.807228744556   109.75511496    59.56510767

---------------------
BASIS SET INFORMATION
---------------------
There are 2 groups of distinct atoms

 Group   1 Type Si  : 10s7p1d contracted to 4s3p1d pattern {5311/511/1}
 Group   2 Type H   : 4s contracted to 2s pattern {31}

Atom   0Si   basis set group =>   1
Atom   1Si   basis set group =>   1
Atom   2Si   basis set group =>   1
Atom   3Si   basis set group =>   1
Atom   4H    basis set group =>   2
Atom   5H    basis set group =>   2
Atom   6Si   basis set group =>   1
Atom   7H    basis set group =>   2
Atom   8H    basis set group =>   2
Atom   9H    basis set group =>   2
Atom  10H    basis set group =>   2
Atom  11H    basis set group =>   2
Atom  12H    basis set group =>   2
Atom  13H    basis set group =>   2
Atom  14H    basis set group =>   2
Atom  15H    basis set group =>   2
Atom  16H    basis set group =>   2
---------------------------------
AUXILIARY/J BASIS SET INFORMATION
---------------------------------
There are 2 groups of distinct atoms

 Group   1 Type Si  : 14s5p5d2f1g contracted to 8s4p3d1f1g pattern {71111111/2111/311/2/1}
 Group   2 Type H   : 5s2p1d contracted to 3s1p1d pattern {311/2/1}

Atom   0Si   basis set group =>   1
Atom   1Si   basis set group =>   1
Atom   2Si   basis set group =>   1
Atom   3Si   basis set group =>   1
Atom   4H    basis set group =>   2
Atom   5H    basis set group =>   2
Atom   6Si   basis set group =>   1
Atom   7H    basis set group =>   2
Atom   8H    basis set group =>   2
Atom   9H    basis set group =>   2
Atom  10H    basis set group =>   2
Atom  11H    basis set group =>   2
Atom  12H    basis set group =>   2
Atom  13H    basis set group =>   2
Atom  14H    basis set group =>   2
Atom  15H    basis set group =>   2
Atom  16H    basis set group =>   2


           ************************************************************
           *        Program running with 4 parallel MPI-processes     *
           *              working on a common directory               *
           ************************************************************
------------------------------------------------------------------------------
                           ORCA GTO INTEGRAL CALCULATION
                           -- RI-GTO INTEGRALS CHOSEN --
------------------------------------------------------------------------------
------------------------------------------------------------------------------
                   ___                                                        
                  /   \      - P O W E R E D   B Y -                         
                 /     \                                                     
                 |  |  |   _    _      __       _____    __    __             
                 |  |  |  | |  | |    /  \     |  _  \  |  |  /  |          
                  \  \/   | |  | |   /    \    | | | |  |  | /  /          
                 / \  \   | |__| |  /  /\  \   | |_| |  |  |/  /          
                |  |  |   |  __  | /  /__\  \  |    /   |      \           
                |  |  |   | |  | | |   __   |  |    \   |  |\   \          
                \     /   | |  | | |  |  |  |  | |\  \  |  | \   \       
                 \___/    |_|  |_| |__|  |__|  |_| \__\ |__|  \__/        
                                                                              
                      - O R C A' S   B I G   F R I E N D -                    
                                      &                                       
                       - I N T E G R A L  F E E D E R -                       
                                                                              
 v1 FN, 2020, v2 2021                                                         
------------------------------------------------------------------------------


Reading SHARK input file pbeh-3c.SHARKINP.tmp ... ok
----------------------
SHARK INTEGRAL PACKAGE
----------------------

Number of atoms                             ...     17
Number of basis functions                   ...    114
Number of shells                            ...     64
Maximum angular momentum                    ...      2
Integral batch strategy                     ... SHARK/LIBINT Hybrid
RI-J (if used) integral strategy            ... SPLIT-RIJ (Revised 2003 algorithm where possible)
Printlevel                                  ...      1
Contraction scheme used                     ... SEGMENTED contraction
Coulomb Range Separation                    ... NOT USED
Exchange Range Separation                   ... NOT USED
Finite Nucleus Model                        ... NOT USED
Auxiliary Coulomb fitting basis             ... AVAILABLE
   # of basis functions in Aux-J            ...    387
   # of shells in Aux-J                     ...    145
   Maximum angular momentum in Aux-J        ...      4
Auxiliary J/K fitting basis                 ... NOT available
Auxiliary Correlation fitting basis         ... NOT available
Auxiliary 'external' fitting basis          ... NOT available
Integral threshold                          ...     2.500000e-11
Primitive cut-off                           ...     2.500000e-12
Primitive pair pre-selection threshold      ...     2.500000e-12

Calculating pre-screening integrals         ... done (  0.1 sec) Dimension = 64
Organizing shell pair data                  ... done (  0.7 sec)
Shell pair information
Total number of shell pairs                 ...      2080
Shell pairs after pre-screening             ...      1732
Total number of primitive shell pairs       ...      9742
Primitive shell pairs kept                  ...      5302
          la=0 lb=0:    796 shell pairs
          la=1 lb=0:    558 shell pairs
          la=1 lb=1:    107 shell pairs
          la=2 lb=0:    190 shell pairs
          la=2 lb=1:     67 shell pairs
          la=2 lb=2:     14 shell pairs

Calculating one electron integrals          ... done (  0.0 sec)
Calculating RI/J V-Matrix + Cholesky decomp.... done (  0.4 sec)
Calculating Nuclear repulsion               ... done (  0.1 sec) ENN=    455.835379551178 Eh

SHARK setup successfully completed in   2.1 seconds

Maximum memory used throughout the entire GTOINT-calculation: 10.6 MB


           ************************************************************
           *        Program running with 4 parallel MPI-processes     *
           *              working on a common directory               *
           ************************************************************
-------------------------------------------------------------------------------
                                 ORCA SCF
-------------------------------------------------------------------------------

------------
SCF SETTINGS
------------
Hamiltonian:
 Density Functional     Method          .... DFT(GTOs)
 Exchange Functional    Exchange        .... PBE
   PBE kappa parameter   XKappa         ....  1.024500
   PBE mue parameter    XMuePBE         ....  0.123457
 Correlation Functional Correlation     .... PBE
   PBE beta parameter  CBetaPBE         ....  0.030000
 LDA part of GGA corr.  LDAOpt          .... PW91-LDA
 Gradients option       PostSCFGGA      .... off
 Hybrid DFT is turned on
   Fraction HF Exchange ScalHFX         ....  0.420000
   Scaling of DF-GGA-X  ScalDFX         ....  0.580000
   Scaling of DF-GGA-C  ScalDFC         ....  1.000000
   Scaling of DF-LDA-C  ScalLDAC        ....  1.000000
   Perturbative correction              ....  0.000000
   Density functional embedding theory  .... OFF
 RI-approximation to the Coulomb term is turned on
   Number of AuxJ basis functions       .... 387
   RIJ-ON(X) (HFX calculated with O(N)) .... on
   Number of AuxJ basis functions       .... 387
   RIJ-COSX (HFX calculated with COS-X)).... on


General Settings:
 Integral files         IntName         .... pbeh-3c
 Hartree-Fock type      HFTyp           .... RHF
 Total Charge           Charge          ....    0
 Multiplicity           Mult            ....    1
 Number of Electrons    NEL             ....   82
 Basis Dimension        Dim             ....  114
 Nuclear Repulsion      ENuc            ....    455.8353795512 Eh

Convergence Acceleration:
 DIIS                   CNVDIIS         .... on
   Start iteration      DIISMaxIt       ....    12
   Startup error        DIISStart       ....  0.200000
   # of expansion vecs  DIISMaxEq       ....     5
   Bias factor          DIISBfac        ....   1.050
   Max. coefficient     DIISMaxC        ....  10.000
 Trust-Rad. Augm. Hess. CNVTRAH         .... auto
   Auto Start mean grad. ratio tolernc. ....  1.125000
   Auto Start start iteration           ....    20
   Auto Start num. interpolation iter.  ....    10
   Max. Number of Micro iterations      ....    16
   Max. Number of Macro iterations      .... Maxiter - #DIIS iter
   Number of Davidson start vectors     ....     2
   Converg. threshold I  (grad. norm)   ....   1.000e-05
   Converg. threshold II (energy diff.) ....   1.000e-08
   Grad. Scal. Fac. for Micro threshold ....   0.100
   Minimum threshold for Micro iter.    ....   0.010
   NR start threshold (gradient norm)   ....   0.001
   Initial trust radius                 ....   0.400
   Minimum AH scaling param. (alpha)    ....   1.000
   Maximum AH scaling param. (alpha)    .... 1000.000
   Orbital update algorithm             .... Taylor
   White noise on init. David. guess    .... on
   Maximum white noise                  ....   0.010
   Quad. conv. algorithm                .... NR
   COSX micro iterations for RIJONX calc.... off
 SOSCF                  CNVSOSCF        .... on
   Start iteration      SOSCFMaxIt      ....   150
   Startup grad/error   SOSCFStart      ....  0.003300
 Level Shifting         CNVShift        .... on
   Level shift para.    LevelShift      ....    0.2500
   Turn off err/grad.   ShiftErr        ....    0.0010
 Zerner damping         CNVZerner       .... off
 Static damping         CNVDamp         .... on
   Fraction old density DampFac         ....    0.7000
   Max. Damping (<1)    DampMax         ....    0.9800
   Min. Damping (>=0)   DampMin         ....    0.0000
   Turn off err/grad.   DampErr         ....    0.1000
 Fernandez-Rico         CNVRico         .... off

SCF Procedure:
 Maximum # iterations   MaxIter         ....   125
 SCF integral mode      SCFMode         .... Direct
   Integral package                     .... SHARK and LIBINT hybrid scheme
 Reset frequency        DirectResetFreq ....    20
 Integral Threshold     Thresh          ....  2.500e-11 Eh
 Primitive CutOff       TCut            ....  2.500e-12 Eh

Convergence Tolerance:
 Convergence Check Mode ConvCheckMode   .... Total+1el-Energy
 Convergence forced     ConvForced      .... 0
 Energy Change          TolE            ....  1.000e-08 Eh
 1-El. energy change                    ....  1.000e-05 Eh
 Orbital Gradient       TolG            ....  1.000e-05
 Orbital Rotation angle TolX            ....  1.000e-05
 DIIS Error             TolErr          ....  5.000e-07


Diagonalization of the overlap matrix:
Smallest eigenvalue                        ... 4.398e-03
Time for diagonalization                   ...    0.003 sec
Threshold for overlap eigenvalues          ... 1.000e-08
Number of eigenvalues below threshold      ... 0
Time for construction of square roots      ...    0.099 sec
Total time needed                          ...    0.102 sec

--------------------------------
INITIAL GUESS: MINIMAL BASIS EHT
--------------------------------
The minimal basis has 57 functions
EHT matrix was diagonalized
Basis set overlap was calculated now projecting the orbitals
Using GuessMode=FMatrix for the initial guess
C*T matrix was formed
Effective Fockian was calculated
Effective Fockian was diagonalized
Initial density was built
                      ------------------
                      INITIAL GUESS DONE
                      ------------------
-------------------
DFT GRID GENERATION
-------------------

General Integration Accuracy     IntAcc      ... 4.959
Radial Grid Type                 RadialGrid  ... OptM3 with GC (2021)
Angular Grid (max. ang.)         AngularGrid ... 6 (Lebedev-590)
Angular grid pruning method      GridPruning ... 4 (adaptive)
Weight generation scheme         WeightScheme... Becke
Basis function cutoff            BFCut       ... 1.0000e-11
Integration weight cutoff        WCut        ... 1.0000e-14
Angular grids for H and He will be reduced by one unit
Partially contracted basis set               ... off
Rotationally invariant grid construction     ... off

Total number of grid points                  ...   187120
Total number of batches                      ...     2934
Average number of points per batch           ...       63
Average number of grid points per atom       ...    11007
Time for grid setup =    3.312 sec

--------------------
COSX GRID GENERATION
--------------------

GRIDX 1
-------
General Integration Accuracy     IntAcc      ... 4.020
Radial Grid Type                 RadialGrid  ... OptM3 with GC (2021)
Angular Grid (max. ang.)         AngularGrid ... 2 (Lebedev-110)
Angular grid pruning method      GridPruning ... 4 (adaptive)
Weight generation scheme         WeightScheme... Becke
Basis function cutoff            BFCut       ... 1.0000e-11
Integration weight cutoff        WCut        ... 1.0000e-14
Angular grids for H and He will be reduced by one unit
Partially contracted basis set               ... on
Rotationally invariant grid construction     ... off

Total number of grid points                  ...    19102
Total number of batches                      ...      308
Average number of points per batch           ...       62
Average number of grid points per atom       ...     1124
UseSFitting                                  ... on

GRIDX 2
-------
General Integration Accuracy     IntAcc      ... 4.338
Radial Grid Type                 RadialGrid  ... OptM3 with GC (2021)
Angular Grid (max. ang.)         AngularGrid ... 3 (Lebedev-194)
Angular grid pruning method      GridPruning ... 4 (adaptive)
Weight generation scheme         WeightScheme... Becke
Basis function cutoff            BFCut       ... 1.0000e-11
Integration weight cutoff        WCut        ... 1.0000e-14
Angular grids for H and He will be reduced by one unit
Partially contracted basis set               ... on
Rotationally invariant grid construction     ... off

Total number of grid points                  ...    44466
Total number of batches                      ...      702
Average number of points per batch           ...       63
Average number of grid points per atom       ...     2616
UseSFitting                                  ... on

GRIDX 3
-------
General Integration Accuracy     IntAcc      ... 4.871
Radial Grid Type                 RadialGrid  ... OptM3 with GC (2021)
Angular Grid (max. ang.)         AngularGrid ... 4 (Lebedev-302)
Angular grid pruning method      GridPruning ... 4 (adaptive)
Weight generation scheme         WeightScheme... Becke
Basis function cutoff            BFCut       ... 1.0000e-11
Integration weight cutoff        WCut        ... 1.0000e-14
Angular grids for H and He will be reduced by one unit
Partially contracted basis set               ... on
Rotationally invariant grid construction     ... off

Total number of grid points                  ...    87652
Total number of batches                      ...     1378
Average number of points per batch           ...       63
Average number of grid points per atom       ...     5156
UseSFitting                                  ... on

Time for X-Grid setup             =    4.862 sec

--------------
SCF ITERATIONS
--------------
ITER       Energy         Delta-E        Max-DP      RMS-DP      [F,P]     Damp
               ***  Starting incremental Fock matrix formation  ***
  0  -1451.5676009845   0.000000000000 0.07130268  0.00508649  0.3542443 0.7000
  1  -1451.9620530672  -0.394452082701 0.05248595  0.00366954  0.2477715 0.7000
                               ***Turning on DIIS***
  2  -1452.2366634695  -0.274610402382 0.03872904  0.00259805  0.1697454 0.7000
  3  -1452.4267418286  -0.190078359082 0.02995739  0.00182219  0.1164410 0.7000
  4  -1452.5591524435  -0.132410614893 0.07386899  0.00429366  0.0807696 0.0000
                      *** Initiating the SOSCF procedure ***
                           *** Shutting down DIIS ***
                      *** Re-Reading the Fockian *** 
                      *** Removing any level shift *** 
ITER      Energy       Delta-E        Grad      Rot      Max-DP    RMS-DP
  5  -1452.86760262  -0.3084501741  0.001395  0.001395  0.006686  0.000205
               *** Restarting incremental Fock matrix formation ***
  6  -1452.86774886  -0.0001462440  0.000680  0.001467  0.001598  0.000095
  7  -1452.86776468  -0.0000158232  0.000105  0.000308  0.001156  0.000029
  8  -1452.86776522  -0.0000005319  0.000057  0.000100  0.000349  0.000007
  9  -1452.86776536  -0.0000001402  0.000007  0.000016  0.000043  0.000001
 10  -1452.86776536  -0.0000000000  0.000004  0.000006  0.000019  0.000000
                 **** Energy Check signals convergence ****
              ***Rediagonalizing the Fockian in SOSCF/NRSCF***

               *****************************************************
               *                     SUCCESS                       *
               *           SCF CONVERGED AFTER  11 CYCLES          *
               *****************************************************

Old exchange energy                            =    -44.498966071 Eh
New exchange energy                            =    -44.499031524 Eh
Exchange energy change after final integration =     -0.000065453 Eh
Total energy after final integration           =  -1452.867830814 Eh
Final COS-X integration done in                =     3.987 sec

----------------
TOTAL SCF ENERGY
----------------

Total Energy       :        -1452.86783081 Eh          -39534.54357 eV

Components:
Nuclear Repulsion  :          455.83537955 Eh           12403.91128 eV
Electronic Energy  :        -1908.70321037 Eh          -51938.45485 eV
One Electron Energy:        -2922.07697941 Eh          -79513.75701 eV
Two Electron Energy:         1013.37376904 Eh           27575.30216 eV
Max COSX asymmetry :            0.00000147 Eh               0.00004 eV

Virial components:
Potential Energy   :        -2903.28567841 Eh          -79002.41971 eV
Kinetic Energy     :         1450.41784759 Eh           39467.87614 eV
Virial Ratio       :            2.00168916


DFT components:
N(Alpha)           :       40.999998103807 electrons
N(Beta)            :       40.999998103807 electrons
N(Total)           :       81.999996207614 electrons
E(X)               :      -59.253062566818 Eh       
E(C)               :       -3.927630631160 Eh       
E(XC)              :      -63.180693197978 Eh       
DFET-embed. en.    :        0.000000000000 Eh       

---------------
SCF CONVERGENCE
---------------

  Last Energy change         ...   -3.7330e-09  Tolerance :   1.0000e-08
  Last MAX-Density change    ...    4.8850e-15  Tolerance :   1.0000e-07
  Last RMS-Density change    ...    1.0515e-16  Tolerance :   5.0000e-09
  Last Orbital Gradient      ...    3.6059e-07  Tolerance :   1.0000e-05
  Last Orbital Rotation      ...    9.7567e-07  Tolerance :   1.0000e-05

             **** THE GBW FILE WAS UPDATED (pbeh-3c.gbw) ****
             **** DENSITY pbeh-3c.scfp WAS UPDATED ****
             **** ENERGY FILE WAS UPDATED (pbeh-3c.en.tmp) ****
             **** THE GBW FILE WAS UPDATED (pbeh-3c.gbw) ****
             **** DENSITY pbeh-3c.scfp WAS UPDATED ****
----------------
ORBITAL ENERGIES
----------------

  NO   OCC          E(Eh)            E(eV) 
   0   2.0000     -66.735754     -1815.9722 
   1   2.0000     -66.734173     -1815.9292 
   2   2.0000     -66.734145     -1815.9284 
   3   2.0000     -66.732536     -1815.8846 
   4   2.0000     -66.732534     -1815.8846 
   5   2.0000      -5.517666      -150.1433 
   6   2.0000      -5.516588      -150.1140 
   7   2.0000      -5.516574      -150.1136 
   8   2.0000      -5.516078      -150.1001 
   9   2.0000      -5.516076      -150.1001 
  10   2.0000      -3.808430      -103.6327 
  11   2.0000      -3.808141      -103.6248 
  12   2.0000      -3.808088      -103.6233 
  13   2.0000      -3.807264      -103.6009 
  14   2.0000      -3.807262      -103.6009 
  15   2.0000      -3.807073      -103.5957 
  16   2.0000      -3.807044      -103.5949 
  17   2.0000      -3.806949      -103.5924 
  18   2.0000      -3.806942      -103.5921 
  19   2.0000      -3.806658      -103.5844 
  20   2.0000      -3.806657      -103.5844 
  21   2.0000      -3.806564      -103.5819 
  22   2.0000      -3.806563      -103.5818 
  23   2.0000      -3.806308      -103.5749 
  24   2.0000      -3.806305      -103.5748 
  25   2.0000      -0.657796       -17.8995 
  26   2.0000      -0.633782       -17.2461 
  27   2.0000      -0.598596       -16.2886 
  28   2.0000      -0.560571       -15.2539 
  29   2.0000      -0.537092       -14.6150 
  30   2.0000      -0.431283       -11.7358 
  31   2.0000      -0.417093       -11.3497 
  32   2.0000      -0.409341       -11.1387 
  33   2.0000      -0.405451       -11.0329 
  34   2.0000      -0.401210       -10.9175 
  35   2.0000      -0.389866       -10.6088 
  36   2.0000      -0.385105       -10.4792 
  37   2.0000      -0.361923        -9.8484 
  38   2.0000      -0.359314        -9.7774 
  39   2.0000      -0.348291        -9.4775 
  40   2.0000      -0.308436        -8.3930 
  41   0.0000      -0.007988        -0.2174 
  42   0.0000       0.028237         0.7684 
  43   0.0000       0.033809         0.9200 
  44   0.0000       0.034463         0.9378 
  45   0.0000       0.041219         1.1216 
  46   0.0000       0.057327         1.5600 
  47   0.0000       0.064867         1.7651 
  48   0.0000       0.085071         2.3149 
  49   0.0000       0.105065         2.8590 
  50   0.0000       0.110398         3.0041 
  51   0.0000       0.114636         3.1194 
  52   0.0000       0.125393         3.4121 
  53   0.0000       0.133587         3.6351 
  54   0.0000       0.147357         4.0098 
  55   0.0000       0.154450         4.2028 
  56   0.0000       0.200975         5.4688 
  57   0.0000       0.204361         5.5609 
  58   0.0000       0.246673         6.7123 
  59   0.0000       0.266696         7.2572 
  60   0.0000       0.288837         7.8597 
  61   0.0000       0.291119         7.9218 
  62   0.0000       0.352620         9.5953 
  63   0.0000       0.369243        10.0476 
  64   0.0000       0.377290        10.2666 
  65   0.0000       0.380319        10.3490 
  66   0.0000       0.386218        10.5095 
  67   0.0000       0.405381        11.0310 
  68   0.0000       0.405703        11.0398 
  69   0.0000       0.411757        11.2045 
  70   0.0000       0.411992        11.2109 
  71   0.0000       0.416013        11.3203 
  72   0.0000       0.430001        11.7009 
  73   0.0000       0.435801        11.8587 
  74   0.0000       0.440868        11.9966 
  75   0.0000       0.458657        12.4807 
  76   0.0000       0.500315        13.6143 
  77   0.0000       0.528966        14.3939 
  78   0.0000       0.543226        14.7819 
  79   0.0000       0.571645        15.5553 
  80   0.0000       0.617089        16.7919 
  81   0.0000       0.619843        16.8668 
  82   0.0000       0.621128        16.9017 
  83   0.0000       0.623426        16.9643 
  84   0.0000       0.644079        17.5263 
  85   0.0000       0.655043        17.8246 
  86   0.0000       0.655807        17.8454 
  87   0.0000       0.664105        18.0712 
  88   0.0000       0.670646        18.2492 
  89   0.0000       0.672500        18.2996 
  90   0.0000       0.675014        18.3681 
  91   0.0000       0.677703        18.4412 
  92   0.0000       0.684535        18.6271 
  93   0.0000       0.691005        18.8032 
  94   0.0000       0.714477        19.4419 
  95   0.0000       0.716267        19.4906 
  96   0.0000       0.753500        20.5038 
  97   0.0000       0.772610        21.0238 
  98   0.0000       0.817311        22.2402 
  99   0.0000       0.821065        22.3423 
 100   0.0000       0.899068        24.4649 
 101   0.0000       0.996741        27.1227 
 102   0.0000       1.168425        31.7945 
 103   0.0000       1.170174        31.8421 
 104   0.0000       1.185555        32.2606 
 105   0.0000       1.218963        33.1697 
 106   0.0000       1.221823        33.2475 
 107   0.0000       1.223252        33.2864 
 108   0.0000       1.246249        33.9122 
 109   0.0000       1.253860        34.1193 
 110   0.0000       1.273599        34.6564 
 111   0.0000       1.294689        35.2303 
 112   0.0000       1.297216        35.2990 
 113   0.0000       1.307351        35.5748 

                    ********************************
                    * MULLIKEN POPULATION ANALYSIS *
                    ********************************

-----------------------
MULLIKEN ATOMIC CHARGES
-----------------------
   0 Si:   -0.059128
   1 Si:   -0.052113
   2 Si:   -0.059128
   3 Si:    0.049709
   4 H :    0.014060
   5 H :    0.014060
   6 Si:    0.049709
   7 H :    0.015520
   8 H :    0.015520
   9 H :    0.014060
  10 H :    0.014060
  11 H :    0.000174
  12 H :   -0.004169
  13 H :   -0.004169
  14 H :    0.000174
  15 H :   -0.004169
  16 H :   -0.004169
Sum of atomic charges:   -0.0000000

--------------------------------
MULLIKEN REDUCED ORBITAL CHARGES
--------------------------------
  0 Sis       :     5.289084  s :     5.289084
      pz      :     2.886593  p :     8.619346
      px      :     2.871884
      py      :     2.860869
      dz2     :     0.003795  d :     0.150698
      dxz     :     0.063292
      dyz     :     0.032138
      dx2y2   :     0.048331
      dxy     :     0.003142
  1 Sis       :     5.287216  s :     5.287216
      pz      :     2.887748  p :     8.612697
      px      :     2.867497
      py      :     2.857451
      dz2     :     0.004421  d :     0.152200
      dxz     :     0.063879
      dyz     :     0.031447
      dx2y2   :     0.049308
      dxy     :     0.003144
  2 Sis       :     5.289084  s :     5.289084
      pz      :     2.886593  p :     8.619346
      px      :     2.871884
      py      :     2.860869
      dz2     :     0.003795  d :     0.150698
      dxz     :     0.063292
      dyz     :     0.032138
      dx2y2   :     0.048331
      dxy     :     0.003142
  3 Sis       :     5.281170  s :     5.281170
      pz      :     2.838312  p :     8.500692
      px      :     2.834834
      py      :     2.827546
      dz2     :     0.002221  d :     0.168429
      dxz     :     0.062159
      dyz     :     0.046026
      dx2y2   :     0.056548
      dxy     :     0.001476
  4 H s       :     0.985940  s :     0.985940
  5 H s       :     0.985940  s :     0.985940
  6 Sis       :     5.281170  s :     5.281170
      pz      :     2.838312  p :     8.500691
      px      :     2.834834
      py      :     2.827546
      dz2     :     0.002221  d :     0.168429
      dxz     :     0.062159
      dyz     :     0.046026
      dx2y2   :     0.056548
      dxy     :     0.001476
  7 H s       :     0.984480  s :     0.984480
  8 H s       :     0.984480  s :     0.984480
  9 H s       :     0.985940  s :     0.985940
 10 H s       :     0.985940  s :     0.985940
 11 H s       :     0.999826  s :     0.999826
 12 H s       :     1.004169  s :     1.004169
 13 H s       :     1.004169  s :     1.004169
 14 H s       :     0.999826  s :     0.999826
 15 H s       :     1.004169  s :     1.004169
 16 H s       :     1.004169  s :     1.004169


                     *******************************
                     * LOEWDIN POPULATION ANALYSIS *
                     *******************************

----------------------
LOEWDIN ATOMIC CHARGES
----------------------
   0 Si:   -0.000955
   1 Si:    0.004478
   2 Si:   -0.000955
   3 Si:    0.052590
   4 H :   -0.004618
   5 H :   -0.004618
   6 Si:    0.052590
   7 H :   -0.004810
   8 H :   -0.004810
   9 H :   -0.004618
  10 H :   -0.004618
  11 H :   -0.012846
  12 H :   -0.013491
  13 H :   -0.013491
  14 H :   -0.012846
  15 H :   -0.013491
  16 H :   -0.013491

-------------------------------
LOEWDIN REDUCED ORBITAL CHARGES
-------------------------------
  0 Sis       :     5.083789  s :     5.083789
      pz      :     2.915537  p :     8.722506
      px      :     2.879281
      py      :     2.927687
      dz2     :     0.005054  d :     0.194660
      dxz     :     0.076842
      dyz     :     0.046204
      dx2y2   :     0.062290
      dxy     :     0.004270
  1 Sis       :     5.082244  s :     5.082244
      pz      :     2.915815  p :     8.716459
      px      :     2.878076
      py      :     2.922568
      dz2     :     0.006141  d :     0.196819
      dxz     :     0.077427
      dyz     :     0.044993
      dx2y2   :     0.063864
      dxy     :     0.004394
  2 Sis       :     5.083789  s :     5.083789
      pz      :     2.915537  p :     8.722506
      px      :     2.879281
      py      :     2.927687
      dz2     :     0.005054  d :     0.194660
      dxz     :     0.076842
      dyz     :     0.046204
      dx2y2   :     0.062290
      dxy     :     0.004270
  3 Sis       :     5.089593  s :     5.089593
      pz      :     2.885219  p :     8.646721
      px      :     2.870218
      py      :     2.891284
      dz2     :     0.003127  d :     0.211096
      dxz     :     0.075670
      dyz     :     0.059340
      dx2y2   :     0.070837
      dxy     :     0.002121
  4 H s       :     1.004618  s :     1.004618
  5 H s       :     1.004618  s :     1.004618
  6 Sis       :     5.089593  s :     5.089593
      pz      :     2.885219  p :     8.646721
      px      :     2.870218
      py      :     2.891284
      dz2     :     0.003127  d :     0.211096
      dxz     :     0.075670
      dyz     :     0.059340
      dx2y2   :     0.070837
      dxy     :     0.002121
  7 H s       :     1.004810  s :     1.004810
  8 H s       :     1.004810  s :     1.004810
  9 H s       :     1.004618  s :     1.004618
 10 H s       :     1.004618  s :     1.004618
 11 H s       :     1.012846  s :     1.012846
 12 H s       :     1.013491  s :     1.013491
 13 H s       :     1.013491  s :     1.013491
 14 H s       :     1.012846  s :     1.012846
 15 H s       :     1.013491  s :     1.013491
 16 H s       :     1.013491  s :     1.013491


                      *****************************
                      * MAYER POPULATION ANALYSIS *
                      *****************************

  NA   - Mulliken gross atomic population
  ZA   - Total nuclear charge
  QA   - Mulliken gross atomic charge
  VA   - Mayer's total valence
  BVA  - Mayer's bonded valence
  FA   - Mayer's free valence

  ATOM       NA         ZA         QA         VA         BVA        FA
  0 Si    14.0591    14.0000    -0.0591     3.9125     3.9125     0.0000
  1 Si    14.0521    14.0000    -0.0521     3.8980     3.8980    -0.0000
  2 Si    14.0591    14.0000    -0.0591     3.9125     3.9125    -0.0000
  3 Si    13.9503    14.0000     0.0497     3.8938     3.8938    -0.0000
  4 H      0.9859     1.0000     0.0141     0.9858     0.9858     0.0000
  5 H      0.9859     1.0000     0.0141     0.9858     0.9858    -0.0000
  6 Si    13.9503    14.0000     0.0497     3.8938     3.8938     0.0000
  7 H      0.9845     1.0000     0.0155     0.9857     0.9857    -0.0000
  8 H      0.9845     1.0000     0.0155     0.9857     0.9857     0.0000
  9 H      0.9859     1.0000     0.0141     0.9858     0.9858     0.0000
 10 H      0.9859     1.0000     0.0141     0.9858     0.9858    -0.0000
 11 H      0.9998     1.0000     0.0002     0.9863     0.9863     0.0000
 12 H      1.0042     1.0000    -0.0042     0.9856     0.9856    -0.0000
 13 H      1.0042     1.0000    -0.0042     0.9856     0.9856    -0.0000
 14 H      0.9998     1.0000     0.0002     0.9863     0.9863     0.0000
 15 H      1.0042     1.0000    -0.0042     0.9856     0.9856    -0.0000
 16 H      1.0042     1.0000    -0.0042     0.9856     0.9856    -0.0000

  Mayer bond orders larger than 0.100000
B(  0-Si,  1-Si) :   0.9658 B(  0-Si,  4-H ) :   0.9611 B(  0-Si,  5-H ) :   0.9611 
B(  0-Si,  6-Si) :   0.9764 B(  1-Si,  2-Si) :   0.9658 B(  1-Si,  7-H ) :   0.9616 
B(  1-Si,  8-H ) :   0.9616 B(  2-Si,  3-Si) :   0.9764 B(  2-Si,  9-H ) :   0.9611 
B(  2-Si, 10-H ) :   0.9611 B(  3-Si, 11-H ) :   0.9639 B(  3-Si, 12-H ) :   0.9636 
B(  3-Si, 13-H ) :   0.9636 B(  6-Si, 14-H ) :   0.9639 B(  6-Si, 15-H ) :   0.9636 
B(  6-Si, 16-H ) :   0.9636 

-------
TIMINGS
-------

Total SCF time: 0 days 0 hours 1 min 32 sec 

Total time                  ....      92.040 sec
Sum of individual times     ....      82.930 sec  ( 90.1%)

Fock matrix formation       ....      64.778 sec  ( 70.4%)
  Split-RI-J                ....       6.795 sec  ( 10.5% of F)
  Chain of spheres X        ....      26.725 sec  ( 41.3% of F)
  XC integration            ....      17.233 sec  ( 26.6% of F)
    Basis function eval.    ....       2.880 sec  ( 16.7% of XC)
    Density eval.           ....       1.629 sec  (  9.5% of XC)
    XC-Functional eval.     ....       1.513 sec  (  8.8% of XC)
    XC-Potential eval.      ....       0.749 sec  (  4.3% of XC)
Diagonalization             ....       4.045 sec  (  4.4%)
Density matrix formation    ....       0.120 sec  (  0.1%)
Population analysis         ....       0.477 sec  (  0.5%)
Initial guess               ....       0.103 sec  (  0.1%)
Orbital Transformation      ....       0.000 sec  (  0.0%)
Orbital Orthonormalization  ....       0.000 sec  (  0.0%)
DIIS solution               ....       3.002 sec  (  3.3%)
SOSCF solution              ....       2.231 sec  (  2.4%)
Grid generation             ....       8.175 sec  (  8.9%)

Maximum memory used throughout the entire SCF-calculation: 53.5 MB


-------------------------------------------------------------------------------
                          DFT DISPERSION CORRECTION                            
                                                                               
                              DFTD3 V3.1  Rev 1                                
                          USING Becke-Johnson damping                          
-------------------------------------------------------------------------------
The PBEh-3c composite method is recognized
Using three-body term ABC
Active option DFTDOPT                   ...         4   

molecular C6(AA) [au] = 6812.379923 


            DFT-D V3
 parameters
 s6 scaling factor         :     1.0000 
 a1 scaling factor         :     0.4860 
 s8 scaling factor         :     0.0000 
 a2 scaling factor         :     4.5000 
 Damping factor alpha9(ATM):    16.0000 
 ad hoc parameters k1-k3   :    16.0000     1.3333    -4.0000 

 Edisp/kcal,au: -5.125102727798  -0.008167370204 
 E6   /kcal   :  -5.138940398 
 E8   /kcal   :  -0.000000000 
 E6(ABC)      :   0.013837670 
 % E8         :   0.000000000 
 % E6(ABC)    :  -0.269997899 

-------------------------   ----------------
Dispersion correction           -0.008167370
-------------------------   ----------------

------------------   -----------------
gCP correction             0.014292157
------------------   -----------------

-------------------------   --------------------
FINAL SINGLE POINT ENERGY     -1452.861706027264
-------------------------   --------------------


                            ***************************************
                            *     ORCA property calculations      *
                            ***************************************

                                    ---------------------
                                    Active property flags
                                    ---------------------
   (+) Dipole Moment


------------------------------------------------------------------------------
                       ORCA ELECTRIC PROPERTIES CALCULATION
------------------------------------------------------------------------------

Dipole Moment Calculation                       ... on
Quadrupole Moment Calculation                   ... off
Polarizability Calculation                      ... off
GBWName                                         ... pbeh-3c.gbw
Electron density                                ... pbeh-3c.scfp
The origin for moment calculation is the CENTER OF MASS  = ( 0.000000,  0.000000 -0.112610)

-------------
DIPOLE MOMENT
-------------
                                X             Y             Z
Electronic contribution:      0.00000      -0.00000      -1.01761
Nuclear contribution   :      0.00000       0.00000       0.98794
                        -----------------------------------------
Total Dipole Moment    :      0.00000      -0.00000      -0.02968
                        -----------------------------------------
Magnitude (a.u.)       :      0.02968
Magnitude (Debye)      :      0.07543



--------------------
Rotational spectrum 
--------------------
 
Rotational constants in cm-1:     0.173755     0.014022     0.013273 
Rotational constants in MHz :  5209.038080   420.379655   397.925248 

 Dipole components along the rotational axes: 
x,y,z [a.u.] :    -0.000000    -0.029676     0.000000 
x,y,z [Debye]:    -0.000001    -0.075430     0.000000 

 

Timings for individual modules:

Sum of individual times         ...       95.681 sec (=   1.595 min)
GTO integral calculation        ...        2.905 sec (=   0.048 min)   3.0 %
SCF iterations                  ...       92.776 sec (=   1.546 min)  97.0 %
                             ****ORCA TERMINATED NORMALLY****
TOTAL RUN TIME: 0 days 0 hours 1 minutes 37 seconds 956 msec
