
                                 *****************
                                 * O   R   C   A *
                                 *****************

                                            #,                                       
                                            ###                                      
                                            ####                                     
                                            #####                                    
                                            ######                                   
                                           ########,                                 
                                     ,,################,,,,,                         
                               ,,#################################,,                 
                          ,,##########################################,,             
                       ,#########################################, ''#####,          
                    ,#############################################,,   '####,        
                  ,##################################################,,,,####,       
                ,###########''''           ''''###############################       
              ,#####''   ,,,,##########,,,,          '''####'''          '####       
            ,##' ,,,,###########################,,,                        '##       
           ' ,,###''''                  '''############,,,                           
         ,,##''                                '''############,,,,        ,,,,,,###''
      ,#''                                            '''#######################'''  
     '                                                          ''''####''''         
             ,#######,   #######,   ,#######,      ##                                
            ,#'     '#,  ##    ##  ,#'     '#,    #''#        ######   ,####,        
            ##       ##  ##   ,#'  ##            #'  '#       #        #'  '#        
            ##       ##  #######   ##           ,######,      #####,   #    #        
            '#,     ,#'  ##    ##  '#,     ,#' ,#      #,         ##   #,  ,#        
             '#######'   ##     ##  '#######'  #'      '#     #####' # '####'        



                  #######################################################
                  #                        -***-                        #
                  #          Department of theory and spectroscopy      #
                  #    Directorship and core code : Frank Neese         #
                  #        Max Planck Institute fuer Kohlenforschung    #
                  #                Kaiser Wilhelm Platz 1               #
                  #                 D-45470 Muelheim/Ruhr               #
                  #                      Germany                        #
                  #                                                     #
                  #                  All rights reserved                #
                  #                        -***-                        #
                  #######################################################


                         Program Version 5.0.3 -  RELEASE  -


 With contributions from (in alphabetic order):
   Daniel Aravena         : Magnetic Suceptibility
   Michael Atanasov       : Ab Initio Ligand Field Theory (pilot matlab implementation)
   Alexander A. Auer      : GIAO ZORA, VPT2 properties, NMR spectrum
   Ute Becker             : Parallelization
   Giovanni Bistoni       : ED, misc. LED, open-shell LED, HFLD
   Martin Brehm           : Molecular dynamics
   Dmytro Bykov           : SCF Hessian
   Vijay G. Chilkuri      : MRCI spin determinant printing, contributions to CSF-ICE
   Dipayan Datta          : RHF DLPNO-CCSD density
   Achintya Kumar Dutta   : EOM-CC, STEOM-CC
   Dmitry Ganyushin       : Spin-Orbit,Spin-Spin,Magnetic field MRCI
   Miquel Garcia          : C-PCM and meta-GGA Hessian, CC/C-PCM, Gaussian charge scheme
   Yang Guo               : DLPNO-NEVPT2, F12-NEVPT2, CIM, IAO-localization
   Andreas Hansen         : Spin unrestricted coupled pair/coupled cluster methods
   Benjamin Helmich-Paris : MC-RPA, TRAH-SCF, COSX integrals
   Lee Huntington         : MR-EOM, pCC
   Robert Izsak           : Overlap fitted RIJCOSX, COSX-SCS-MP3, EOM
   Marcus Kettner         : VPT2
   Christian Kollmar      : KDIIS, OOCD, Brueckner-CCSD(T), CCSD density, CASPT2, CASPT2-K
   Simone Kossmann        : Meta GGA functionals, TD-DFT gradient, OOMP2, MP2 Hessian
   Martin Krupicka        : Initial AUTO-CI
   Lucas Lang             : DCDCAS
   Marvin Lechner         : AUTO-CI (C++ implementation), FIC-MRCC
   Dagmar Lenk            : GEPOL surface, SMD
   Dimitrios Liakos       : Extrapolation schemes; Compound Job, initial MDCI parallelization
   Dimitrios Manganas     : Further ROCIS development; embedding schemes
   Dimitrios Pantazis     : SARC Basis sets
   Anastasios Papadopoulos: AUTO-CI, single reference methods and gradients
   Taras Petrenko         : DFT Hessian,TD-DFT gradient, ASA, ECA, R-Raman, ABS, FL, XAS/XES, NRVS
   Peter Pinski           : DLPNO-MP2, DLPNO-MP2 Gradient
   Christoph Reimann      : Effective Core Potentials
   Marius Retegan         : Local ZFS, SOC
   Christoph Riplinger    : Optimizer, TS searches, QM/MM, DLPNO-CCSD(T), (RO)-DLPNO pert. Triples
   Tobias Risthaus        : Range-separated hybrids, TD-DFT gradient, RPA, STAB
   Michael Roemelt        : Original ROCIS implementation
   Masaaki Saitow         : Open-shell DLPNO-CCSD energy and density
   Barbara Sandhoefer     : DKH picture change effects
   Avijit Sen             : IP-ROCIS
   Kantharuban Sivalingam : CASSCF convergence, NEVPT2, FIC-MRCI
   Bernardo de Souza      : ESD, SOC TD-DFT
   Georgi Stoychev        : AutoAux, RI-MP2 NMR, DLPNO-MP2 response
   Willem Van den Heuvel  : Paramagnetic NMR
   Boris Wezisla          : Elementary symmetry handling
   Frank Wennmohs         : Technical directorship


 We gratefully acknowledge several colleagues who have allowed us to
 interface, adapt or use parts of their codes:
   Stefan Grimme, W. Hujo, H. Kruse, P. Pracht,  : VdW corrections, initial TS optimization,
                  C. Bannwarth, S. Ehlert          DFT functionals, gCP, sTDA/sTD-DF
   Ed Valeev, F. Pavosevic, A. Kumar             : LibInt (2-el integral package), F12 methods
   Garnet Chan, S. Sharma, J. Yang, R. Olivares  : DMRG
   Ulf Ekstrom                                   : XCFun DFT Library
   Mihaly Kallay                                 : mrcc  (arbitrary order and MRCC methods)
   Jiri Pittner, Ondrej Demel                    : Mk-CCSD
   Frank Weinhold                                : gennbo (NPA and NBO analysis)
   Christopher J. Cramer and Donald G. Truhlar   : smd solvation model
   Lars Goerigk                                  : TD-DFT with DH, B97 family of functionals
   V. Asgeirsson, H. Jonsson                     : NEB implementation
   FAccTs GmbH                                   : IRC, NEB, NEB-TS, DLPNO-Multilevel, CI-OPT
                                                   MM, QMMM, 2- and 3-layer-ONIOM, Crystal-QMMM,
                                                   LR-CPCM, SF, NACMEs, symmetry and pop. for TD-DFT,
                                                   nearIR, NL-DFT gradient (VV10), updates on ESD,
                                                   ML-optimized integration grids
   S Lehtola, MJT Oliveira, MAL Marques          : LibXC Library
   Liviu Ungur et al                             : ANISO software


 Your calculation uses the libint2 library for the computation of 2-el integrals
 For citations please refer to: http://libint.valeyev.net

 Your ORCA version has been built with support for libXC version: 5.1.0
 For citations please refer to: https://tddft.org/programs/libxc/

 This ORCA versions uses:
   CBLAS   interface :  Fast vector & matrix operations
   LAPACKE interface :  Fast linear algebra routines
   SCALAPACK package :  Parallel linear algebra routines
   Shared memory     :  Shared parallel matrices
   BLAS/LAPACK       :  OpenBLAS 0.3.15  USE64BITINT DYNAMIC_ARCH NO_AFFINITY Haswell SINGLE_THREADED
        Core in use  :  Haswell
   Copyright (c) 2011-2014, The OpenBLAS Project




***************************************
The coordinates will be read from file: ph3-cbh22.xyz
***************************************


Your calculation utilizes the geometrical counterpoise correction gCP
Please cite in your paper:
H.Kruse, S. Grimme J.Chem.Phys., 136, (2012), 154101 
   

Your calculation utilizes the atom-pairwise dispersion correction
with the Becke-Johnson damping scheme (D3BJ)
Cite in your paper:
S.Grimme, S.Ehrlich, L.Goerigk, J Comput Chem, (2011), 32, 1456–1465 
S.Grimme, J.Antony, S.Ehrlich and H.Krieg, J.Chem.Phys., 132, (2010), 154104 
   

Your calculation employs the composite approach PBEh-3c.
Please cite in your paper:
S. Grimme, J. G. Brandenburg, C. Bannwarth, A. Hansen J.Chem.Phys., 143, (2015), 054107 
   

================================================================================

----- Orbital basis set information -----
Your calculation utilizes the basis: def2-mSVP

----- AuxJ basis set information -----
Your calculation utilizes the auxiliary basis: def2/J
   F. Weigend, Phys. Chem. Chem. Phys. 8, 1057 (2006).

================================================================================
                                        WARNINGS
                       Please study these warnings very carefully!
================================================================================


INFO   : the flag for use of the SHARK integral package has been found!

================================================================================
                                       INPUT FILE
================================================================================
NAME = pbeh-3c.inp
|  1> ! PBEh-3c def2/J TightSCF DefGrid3
|  2> 
|  3> %maxcore 60000
|  4> 
|  5> %pal
|  6> nprocs 4
|  7> end
|  8> 
|  9> *xyzfile 0 1 ph3-cbh22.xyz
| 10> 
| 11>                          ****END OF INPUT****
================================================================================

                       ****************************
                       * Single Point Calculation *
                       ****************************

---------------------------------
CARTESIAN COORDINATES (ANGSTROEM)
---------------------------------
  H      1.178821    1.847011    0.000000
  P     -0.032562    1.133079    0.000000
  C      0.034611   -0.587719    0.000000
  H     -0.678574    1.706845    1.101273
  H     -0.678574    1.706845   -1.101273
  B      0.034611   -1.259012    1.348844
  B      0.034611   -1.259012   -1.348844
  H     -0.045744   -0.622367    2.365816
  H     -0.045744   -0.622367   -2.365816
  H      0.102228   -2.447856    1.414943
  H      0.102228   -2.447856   -1.414943

----------------------------
CARTESIAN COORDINATES (A.U.)
----------------------------
  NO LB      ZA    FRAG     MASS         X           Y           Z
   0 H     1.0000    0     1.008    2.227649    3.490345    0.000000
   1 P    15.0000    0    30.974   -0.061533    2.141209    0.000000
   2 C     6.0000    0    12.011    0.065405   -1.110628    0.000000
   3 H     1.0000    0     1.008   -1.282319    3.225469    2.081104
   4 H     1.0000    0     1.008   -1.282319    3.225469   -2.081104
   5 B     5.0000    0    10.810    0.065405   -2.379188    2.548946
   6 B     5.0000    0    10.810    0.065405   -2.379188   -2.548946
   7 H     1.0000    0     1.008   -0.086444   -1.176103    4.470744
   8 H     1.0000    0     1.008   -0.086444   -1.176103   -4.470744
   9 H     1.0000    0     1.008    0.193183   -4.625777    2.673855
  10 H     1.0000    0     1.008    0.193183   -4.625777   -2.673855

--------------------------------
INTERNAL COORDINATES (ANGSTROEM)
--------------------------------
 H      0   0   0     0.000000000000     0.00000000     0.00000000
 P      1   0   0     1.406110746363     0.00000000     0.00000000
 C      2   1   0     1.722108482231   118.27763288     0.00000000
 H      2   1   3     1.399764597057   100.92240626   126.74834805
 H      2   1   3     1.399764597057   100.92240626   233.25165195
 B      3   2   1     1.506656571405   116.43692187    91.11212265
 B      3   2   1     1.506656571405   116.43692187   268.88787735
 H      6   3   2     1.202499688196   121.41555613     1.99425484
 H      7   3   2     1.202499688196   121.41555613   358.00574516
 H      6   3   2     1.192598404769   119.58852433   181.24162351
 H      7   3   2     1.192598404769   119.58852433   178.75837649

---------------------------
INTERNAL COORDINATES (A.U.)
---------------------------
 H      0   0   0     0.000000000000     0.00000000     0.00000000
 P      1   0   0     2.657164224589     0.00000000     0.00000000
 C      2   1   0     3.254313404320   118.27763288     0.00000000
 H      2   1   3     2.645171740397   100.92240626   126.74834805
 H      2   1   3     2.645171740397   100.92240626   233.25165195
 B      3   2   1     2.847168297828   116.43692187    91.11212265
 B      3   2   1     2.847168297828   116.43692187   268.88787735
 H      6   3   2     2.272395086815   121.41555613     1.99425484
 H      7   3   2     2.272395086815   121.41555613   358.00574516
 H      6   3   2     2.253684372764   119.58852433   181.24162351
 H      7   3   2     2.253684372764   119.58852433   178.75837649

---------------------
BASIS SET INFORMATION
---------------------
There are 4 groups of distinct atoms

 Group   1 Type H   : 4s contracted to 2s pattern {31}
 Group   2 Type P   : 10s7p1d contracted to 4s3p1d pattern {5311/511/1}
 Group   3 Type C   : 8s4p1d contracted to 4s2p1d pattern {5111/31/1}
 Group   4 Type B   : 8s4p1d contracted to 4s2p1d pattern {5111/31/1}

Atom   0H    basis set group =>   1
Atom   1P    basis set group =>   2
Atom   2C    basis set group =>   3
Atom   3H    basis set group =>   1
Atom   4H    basis set group =>   1
Atom   5B    basis set group =>   4
Atom   6B    basis set group =>   4
Atom   7H    basis set group =>   1
Atom   8H    basis set group =>   1
Atom   9H    basis set group =>   1
Atom  10H    basis set group =>   1
---------------------------------
AUXILIARY/J BASIS SET INFORMATION
---------------------------------
There are 4 groups of distinct atoms

 Group   1 Type H   : 5s2p1d contracted to 3s1p1d pattern {311/2/1}
 Group   2 Type P   : 14s5p5d2f1g contracted to 8s4p3d1f1g pattern {71111111/2111/311/2/1}
 Group   3 Type C   : 12s5p4d2f1g contracted to 6s4p3d1f1g pattern {711111/2111/211/2/1}
 Group   4 Type B   : 12s5p4d2f1g contracted to 6s4p3d1f1g pattern {711111/2111/211/2/1}

Atom   0H    basis set group =>   1
Atom   1P    basis set group =>   2
Atom   2C    basis set group =>   3
Atom   3H    basis set group =>   1
Atom   4H    basis set group =>   1
Atom   5B    basis set group =>   4
Atom   6B    basis set group =>   4
Atom   7H    basis set group =>   1
Atom   8H    basis set group =>   1
Atom   9H    basis set group =>   1
Atom  10H    basis set group =>   1


           ************************************************************
           *        Program running with 4 parallel MPI-processes     *
           *              working on a common directory               *
           ************************************************************
------------------------------------------------------------------------------
                           ORCA GTO INTEGRAL CALCULATION
                           -- RI-GTO INTEGRALS CHOSEN --
------------------------------------------------------------------------------
------------------------------------------------------------------------------
                   ___                                                        
                  /   \      - P O W E R E D   B Y -                         
                 /     \                                                     
                 |  |  |   _    _      __       _____    __    __             
                 |  |  |  | |  | |    /  \     |  _  \  |  |  /  |          
                  \  \/   | |  | |   /    \    | | | |  |  | /  /          
                 / \  \   | |__| |  /  /\  \   | |_| |  |  |/  /          
                |  |  |   |  __  | /  /__\  \  |    /   |      \           
                |  |  |   | |  | | |   __   |  |    \   |  |\   \          
                \     /   | |  | | |  |  |  |  | |\  \  |  | \   \       
                 \___/    |_|  |_| |__|  |__|  |_| \__\ |__|  \__/        
                                                                              
                      - O R C A' S   B I G   F R I E N D -                    
                                      &                                       
                       - I N T E G R A L  F E E D E R -                       
                                                                              
 v1 FN, 2020, v2 2021                                                         
------------------------------------------------------------------------------


Reading SHARK input file pbeh-3c.SHARKINP.tmp ... ok
----------------------
SHARK INTEGRAL PACKAGE
----------------------

Number of atoms                             ...     11
Number of basis functions                   ...     77
Number of shells                            ...     43
Maximum angular momentum                    ...      2
Integral batch strategy                     ... SHARK/LIBINT Hybrid
RI-J (if used) integral strategy            ... SPLIT-RIJ (Revised 2003 algorithm where possible)
Printlevel                                  ...      1
Contraction scheme used                     ... SEGMENTED contraction
Coulomb Range Separation                    ... NOT USED
Exchange Range Separation                   ... NOT USED
Finite Nucleus Model                        ... NOT USED
Auxiliary Coulomb fitting basis             ... AVAILABLE
   # of basis functions in Aux-J            ...    275
   # of shells in Aux-J                     ...     97
   Maximum angular momentum in Aux-J        ...      4
Auxiliary J/K fitting basis                 ... NOT available
Auxiliary Correlation fitting basis         ... NOT available
Auxiliary 'external' fitting basis          ... NOT available
Integral threshold                          ...     2.500000e-11
Primitive cut-off                           ...     2.500000e-12
Primitive pair pre-selection threshold      ...     2.500000e-12

Calculating pre-screening integrals         ... done (  0.1 sec) Dimension = 43
Organizing shell pair data                  ... done (  0.2 sec)
Shell pair information
Total number of shell pairs                 ...       946
Shell pairs after pre-screening             ...       914
Total number of primitive shell pairs       ...      3738
Primitive shell pairs kept                  ...      2722
          la=0 lb=0:    437 shell pairs
          la=1 lb=0:    266 shell pairs
          la=1 lb=1:     45 shell pairs
          la=2 lb=0:    120 shell pairs
          la=2 lb=1:     36 shell pairs
          la=2 lb=2:     10 shell pairs

Calculating one electron integrals          ... done (  0.0 sec)
Calculating RI/J V-Matrix + Cholesky decomp.... done (  0.3 sec)
Calculating Nuclear repulsion               ... done (  0.0 sec) ENN=    137.983593435391 Eh

SHARK setup successfully completed in   1.8 seconds

Maximum memory used throughout the entire GTOINT-calculation: 9.7 MB


           ************************************************************
           *        Program running with 4 parallel MPI-processes     *
           *              working on a common directory               *
           ************************************************************
-------------------------------------------------------------------------------
                                 ORCA SCF
-------------------------------------------------------------------------------

------------
SCF SETTINGS
------------
Hamiltonian:
 Density Functional     Method          .... DFT(GTOs)
 Exchange Functional    Exchange        .... PBE
   PBE kappa parameter   XKappa         ....  1.024500
   PBE mue parameter    XMuePBE         ....  0.123457
 Correlation Functional Correlation     .... PBE
   PBE beta parameter  CBetaPBE         ....  0.030000
 LDA part of GGA corr.  LDAOpt          .... PW91-LDA
 Gradients option       PostSCFGGA      .... off
 Hybrid DFT is turned on
   Fraction HF Exchange ScalHFX         ....  0.420000
   Scaling of DF-GGA-X  ScalDFX         ....  0.580000
   Scaling of DF-GGA-C  ScalDFC         ....  1.000000
   Scaling of DF-LDA-C  ScalLDAC        ....  1.000000
   Perturbative correction              ....  0.000000
   Density functional embedding theory  .... OFF
 RI-approximation to the Coulomb term is turned on
   Number of AuxJ basis functions       .... 275
   RIJ-ON(X) (HFX calculated with O(N)) .... on
   Number of AuxJ basis functions       .... 275
   RIJ-COSX (HFX calculated with COS-X)).... on


General Settings:
 Integral files         IntName         .... pbeh-3c
 Hartree-Fock type      HFTyp           .... RHF
 Total Charge           Charge          ....    0
 Multiplicity           Mult            ....    1
 Number of Electrons    NEL             ....   38
 Basis Dimension        Dim             ....   77
 Nuclear Repulsion      ENuc            ....    137.9835934354 Eh

Convergence Acceleration:
 DIIS                   CNVDIIS         .... on
   Start iteration      DIISMaxIt       ....    12
   Startup error        DIISStart       ....  0.200000
   # of expansion vecs  DIISMaxEq       ....     5
   Bias factor          DIISBfac        ....   1.050
   Max. coefficient     DIISMaxC        ....  10.000
 Trust-Rad. Augm. Hess. CNVTRAH         .... auto
   Auto Start mean grad. ratio tolernc. ....  1.125000
   Auto Start start iteration           ....    20
   Auto Start num. interpolation iter.  ....    10
   Max. Number of Micro iterations      ....    16
   Max. Number of Macro iterations      .... Maxiter - #DIIS iter
   Number of Davidson start vectors     ....     2
   Converg. threshold I  (grad. norm)   ....   1.000e-05
   Converg. threshold II (energy diff.) ....   1.000e-08
   Grad. Scal. Fac. for Micro threshold ....   0.100
   Minimum threshold for Micro iter.    ....   0.010
   NR start threshold (gradient norm)   ....   0.001
   Initial trust radius                 ....   0.400
   Minimum AH scaling param. (alpha)    ....   1.000
   Maximum AH scaling param. (alpha)    .... 1000.000
   Orbital update algorithm             .... Taylor
   White noise on init. David. guess    .... on
   Maximum white noise                  ....   0.010
   Quad. conv. algorithm                .... NR
   COSX micro iterations for RIJONX calc.... off
 SOSCF                  CNVSOSCF        .... on
   Start iteration      SOSCFMaxIt      ....   150
   Startup grad/error   SOSCFStart      ....  0.003300
 Level Shifting         CNVShift        .... on
   Level shift para.    LevelShift      ....    0.2500
   Turn off err/grad.   ShiftErr        ....    0.0010
 Zerner damping         CNVZerner       .... off
 Static damping         CNVDamp         .... on
   Fraction old density DampFac         ....    0.7000
   Max. Damping (<1)    DampMax         ....    0.9800
   Min. Damping (>=0)   DampMin         ....    0.0000
   Turn off err/grad.   DampErr         ....    0.1000
 Fernandez-Rico         CNVRico         .... off

SCF Procedure:
 Maximum # iterations   MaxIter         ....   125
 SCF integral mode      SCFMode         .... Direct
   Integral package                     .... SHARK and LIBINT hybrid scheme
 Reset frequency        DirectResetFreq ....    20
 Integral Threshold     Thresh          ....  2.500e-11 Eh
 Primitive CutOff       TCut            ....  2.500e-12 Eh

Convergence Tolerance:
 Convergence Check Mode ConvCheckMode   .... Total+1el-Energy
 Convergence forced     ConvForced      .... 0
 Energy Change          TolE            ....  1.000e-08 Eh
 1-El. energy change                    ....  1.000e-05 Eh
 Orbital Gradient       TolG            ....  1.000e-05
 Orbital Rotation angle TolX            ....  1.000e-05
 DIIS Error             TolErr          ....  5.000e-07


Diagonalization of the overlap matrix:
Smallest eigenvalue                        ... 8.630e-03
Time for diagonalization                   ...    0.002 sec
Threshold for overlap eigenvalues          ... 1.000e-08
Number of eigenvalues below threshold      ... 0
Time for construction of square roots      ...    0.311 sec
Total time needed                          ...    0.313 sec

--------------------------------
INITIAL GUESS: MINIMAL BASIS EHT
--------------------------------
The minimal basis has 31 functions
EHT matrix was diagonalized
Basis set overlap was calculated now projecting the orbitals
Using GuessMode=FMatrix for the initial guess
C*T matrix was formed
Effective Fockian was calculated
Effective Fockian was diagonalized
Initial density was built
                      ------------------
                      INITIAL GUESS DONE
                      ------------------
-------------------
DFT GRID GENERATION
-------------------

General Integration Accuracy     IntAcc      ... 4.959
Radial Grid Type                 RadialGrid  ... OptM3 with GC (2021)
Angular Grid (max. ang.)         AngularGrid ... 6 (Lebedev-590)
Angular grid pruning method      GridPruning ... 4 (adaptive)
Weight generation scheme         WeightScheme... Becke
Basis function cutoff            BFCut       ... 1.0000e-11
Integration weight cutoff        WCut        ... 1.0000e-14
Angular grids for H and He will be reduced by one unit
Partially contracted basis set               ... off
Rotationally invariant grid construction     ... off

Total number of grid points                  ...   121300
Total number of batches                      ...     1900
Average number of points per batch           ...       63
Average number of grid points per atom       ...    11027
Time for grid setup =    2.730 sec

--------------------
COSX GRID GENERATION
--------------------

GRIDX 1
-------
General Integration Accuracy     IntAcc      ... 4.020
Radial Grid Type                 RadialGrid  ... OptM3 with GC (2021)
Angular Grid (max. ang.)         AngularGrid ... 2 (Lebedev-110)
Angular grid pruning method      GridPruning ... 4 (adaptive)
Weight generation scheme         WeightScheme... Becke
Basis function cutoff            BFCut       ... 1.0000e-11
Integration weight cutoff        WCut        ... 1.0000e-14
Angular grids for H and He will be reduced by one unit
Partially contracted basis set               ... on
Rotationally invariant grid construction     ... off

Total number of grid points                  ...    12845
Total number of batches                      ...      208
Average number of points per batch           ...       61
Average number of grid points per atom       ...     1168
UseSFitting                                  ... on

GRIDX 2
-------
General Integration Accuracy     IntAcc      ... 4.338
Radial Grid Type                 RadialGrid  ... OptM3 with GC (2021)
Angular Grid (max. ang.)         AngularGrid ... 3 (Lebedev-194)
Angular grid pruning method      GridPruning ... 4 (adaptive)
Weight generation scheme         WeightScheme... Becke
Basis function cutoff            BFCut       ... 1.0000e-11
Integration weight cutoff        WCut        ... 1.0000e-14
Angular grids for H and He will be reduced by one unit
Partially contracted basis set               ... on
Rotationally invariant grid construction     ... off

Total number of grid points                  ...    28784
Total number of batches                      ...      455
Average number of points per batch           ...       63
Average number of grid points per atom       ...     2617
UseSFitting                                  ... on

GRIDX 3
-------
General Integration Accuracy     IntAcc      ... 4.871
Radial Grid Type                 RadialGrid  ... OptM3 with GC (2021)
Angular Grid (max. ang.)         AngularGrid ... 4 (Lebedev-302)
Angular grid pruning method      GridPruning ... 4 (adaptive)
Weight generation scheme         WeightScheme... Becke
Basis function cutoff            BFCut       ... 1.0000e-11
Integration weight cutoff        WCut        ... 1.0000e-14
Angular grids for H and He will be reduced by one unit
Partially contracted basis set               ... on
Rotationally invariant grid construction     ... off

Total number of grid points                  ...    56825
Total number of batches                      ...      896
Average number of points per batch           ...       63
Average number of grid points per atom       ...     5166
UseSFitting                                  ... on

Time for X-Grid setup             =    3.324 sec

--------------
SCF ITERATIONS
--------------
ITER       Energy         Delta-E        Max-DP      RMS-DP      [F,P]     Damp
               ***  Starting incremental Fock matrix formation  ***
  0   -432.0112912604   0.000000000000 0.17226547  0.00566260  0.4063117 0.7000
  1   -432.2308090653  -0.219517804938 0.11569206  0.00403472  0.2710962 0.7000
                               ***Turning on DIIS***
  2   -432.3706663938  -0.139857328535 0.07017033  0.00263500  0.1805396 0.7000
  3   -432.4658316183  -0.095165224461 0.03742963  0.00172539  0.1250570 0.7000
  4   -432.5326423956  -0.066810777263 0.09887312  0.00407771  0.0864061 0.0000
  5   -432.6901727796  -0.157530384000 0.01589918  0.00042405  0.0114732 0.0000
  6   -432.6903652943  -0.000192514705 0.00342261  0.00013077  0.0044233 0.0000
                      *** Initiating the SOSCF procedure ***
                           *** Shutting down DIIS ***
                      *** Re-Reading the Fockian *** 
                      *** Removing any level shift *** 
ITER      Energy       Delta-E        Grad      Rot      Max-DP    RMS-DP
  7   -432.69041643  -0.0000511373  0.000571  0.000571  0.001613  0.000066
               *** Restarting incremental Fock matrix formation ***
  8   -432.69041582   0.0000006149  0.000201  0.000496  0.001111  0.000045
  9   -432.69041692  -0.0000011071  0.000139  0.000482  0.000576  0.000021
 10   -432.69041701  -0.0000000901  0.000097  0.000183  0.000207  0.000008
 11   -432.69041708  -0.0000000691  0.000008  0.000019  0.000044  0.000002
 12   -432.69041708  -0.0000000017  0.000006  0.000008  0.000023  0.000001
                 **** Energy Check signals convergence ****
              ***Rediagonalizing the Fockian in SOSCF/NRSCF***

               *****************************************************
               *                     SUCCESS                       *
               *           SCF CONVERGED AFTER  13 CYCLES          *
               *****************************************************

Old exchange energy                            =    -15.984839264 Eh
New exchange energy                            =    -15.984839049 Eh
Exchange energy change after final integration =      0.000000214 Eh
Total energy after final integration           =   -432.690416872 Eh
Final COS-X integration done in                =     1.147 sec

----------------
TOTAL SCF ENERGY
----------------

Total Energy       :         -432.69041687 Eh          -11774.10483 eV

Components:
Nuclear Repulsion  :          137.98359344 Eh            3754.72446 eV
Electronic Energy  :         -570.67401031 Eh          -15528.82929 eV
One Electron Energy:         -866.47989706 Eh          -23578.11669 eV
Two Electron Energy:          295.80588675 Eh            8049.28740 eV
Max COSX asymmetry :            0.00000065 Eh               0.00002 eV

Virial components:
Potential Energy   :         -864.00425804 Eh          -23510.75112 eV
Kinetic Energy     :          431.31384117 Eh           11736.64630 eV
Virial Ratio       :            2.00319159


DFT components:
N(Alpha)           :       18.999999997826 electrons
N(Beta)            :       18.999999997826 electrons
N(Total)           :       37.999999995653 electrons
E(X)               :      -21.228354150757 Eh       
E(C)               :       -1.676236864147 Eh       
E(XC)              :      -22.904591014904 Eh       
DFET-embed. en.    :        0.000000000000 Eh       

---------------
SCF CONVERGENCE
---------------

  Last Energy change         ...   -1.2802e-09  Tolerance :   1.0000e-08
  Last MAX-Density change    ...    7.1054e-15  Tolerance :   1.0000e-07
  Last RMS-Density change    ...    1.2091e-16  Tolerance :   5.0000e-09
  Last Orbital Gradient      ...    1.4491e-07  Tolerance :   1.0000e-05
  Last Orbital Rotation      ...    3.3449e-07  Tolerance :   1.0000e-05

             **** THE GBW FILE WAS UPDATED (pbeh-3c.gbw) ****
             **** DENSITY pbeh-3c.scfp WAS UPDATED ****
             **** ENERGY FILE WAS UPDATED (pbeh-3c.en.tmp) ****
             **** THE GBW FILE WAS UPDATED (pbeh-3c.gbw) ****
             **** DENSITY pbeh-3c.scfp WAS UPDATED ****
----------------
ORBITAL ENERGIES
----------------

  NO   OCC          E(Eh)            E(eV) 
   0   2.0000     -77.821681     -2117.6356 
   1   2.0000     -10.407891      -283.2131 
   2   2.0000      -6.932590      -188.6454 
   3   2.0000      -6.932556      -188.6445 
   4   2.0000      -6.897969      -187.7033 
   5   2.0000      -4.989359      -135.7674 
   6   2.0000      -4.988785      -135.7517 
   7   2.0000      -4.987392      -135.7138 
   8   2.0000      -0.845113       -22.9967 
   9   2.0000      -0.703285       -19.1373 
  10   2.0000      -0.568064       -15.4578 
  11   2.0000      -0.514750       -14.0070 
  12   2.0000      -0.511678       -13.9235 
  13   2.0000      -0.499958       -13.6046 
  14   2.0000      -0.432475       -11.7682 
  15   2.0000      -0.380628       -10.3574 
  16   2.0000      -0.344859        -9.3841 
  17   2.0000      -0.340280        -9.2595 
  18   2.0000      -0.289545        -7.8789 
  19   0.0000      -0.009659        -0.2628 
  20   0.0000       0.026559         0.7227 
  21   0.0000       0.057024         1.5517 
  22   0.0000       0.064235         1.7479 
  23   0.0000       0.108528         2.9532 
  24   0.0000       0.115777         3.1504 
  25   0.0000       0.203988         5.5508 
  26   0.0000       0.215190         5.8556 
  27   0.0000       0.240084         6.5330 
  28   0.0000       0.258257         7.0275 
  29   0.0000       0.288843         7.8598 
  30   0.0000       0.296171         8.0592 
  31   0.0000       0.338558         9.2126 
  32   0.0000       0.351464         9.5638 
  33   0.0000       0.352610         9.5950 
  34   0.0000       0.376460        10.2440 
  35   0.0000       0.415109        11.2957 
  36   0.0000       0.453207        12.3324 
  37   0.0000       0.457616        12.4524 
  38   0.0000       0.500489        13.6190 
  39   0.0000       0.528874        14.3914 
  40   0.0000       0.560572        15.2539 
  41   0.0000       0.594550        16.1785 
  42   0.0000       0.598796        16.2941 
  43   0.0000       0.695693        18.9308 
  44   0.0000       0.712167        19.3791 
  45   0.0000       0.757795        20.6207 
  46   0.0000       0.758891        20.6505 
  47   0.0000       0.792966        21.5777 
  48   0.0000       0.804462        21.8905 
  49   0.0000       0.952574        25.9208 
  50   0.0000       1.018566        27.7166 
  51   0.0000       1.093352        29.7516 
  52   0.0000       1.113396        30.2970 
  53   0.0000       1.125339        30.6220 
  54   0.0000       1.174182        31.9511 
  55   0.0000       1.223124        33.2829 
  56   0.0000       1.238044        33.6889 
  57   0.0000       1.301951        35.4279 
  58   0.0000       1.305457        35.5233 
  59   0.0000       1.485237        40.4153 
  60   0.0000       1.720789        46.8250 
  61   0.0000       1.821566        49.5673 
  62   0.0000       1.865519        50.7634 
  63   0.0000       1.933884        52.6236 
  64   0.0000       1.950488        53.0755 
  65   0.0000       2.094732        57.0006 
  66   0.0000       2.145051        58.3698 
  67   0.0000       2.213353        60.2284 
  68   0.0000       2.237817        60.8941 
  69   0.0000       2.267264        61.6954 
  70   0.0000       2.428749        66.0896 
  71   0.0000       2.476192        67.3806 
  72   0.0000       2.788024        75.8660 
  73   0.0000       2.855758        77.7091 
  74   0.0000       9.089114       247.3274 
  75   0.0000       9.147836       248.9253 
  76   0.0000      13.869579       377.4104 

                    ********************************
                    * MULLIKEN POPULATION ANALYSIS *
                    ********************************

-----------------------
MULLIKEN ATOMIC CHARGES
-----------------------
   0 H :    0.104812
   1 P :    0.185869
   2 C :   -0.543598
   3 H :    0.127872
   4 H :    0.127872
   5 B :   -0.048903
   6 B :   -0.048903
   7 H :    0.002010
   8 H :    0.002010
   9 H :    0.045478
  10 H :    0.045478
Sum of atomic charges:   -0.0000000

--------------------------------
MULLIKEN REDUCED ORBITAL CHARGES
--------------------------------
  0 H s       :     0.895188  s :     0.895188
  1 P s       :     5.456440  s :     5.456440
      pz      :     3.023682  p :     9.086924
      px      :     3.041154
      py      :     3.022087
      dz2     :     0.036825  d :     0.270767
      dxz     :     0.033755
      dyz     :     0.070434
      dx2y2   :     0.027670
      dxy     :     0.102083
  2 C s       :     3.302549  s :     3.302549
      pz      :     1.135112  p :     3.224074
      px      :     1.291637
      py      :     0.797325
      dz2     :     0.007592  d :     0.016975
      dxz     :     0.000025
      dyz     :     0.002838
      dx2y2   :     0.005409
      dxy     :     0.001111
  3 H s       :     0.872128  s :     0.872128
  4 H s       :     0.872128  s :     0.872128
  5 B s       :     2.998367  s :     2.998367
      pz      :     0.817545  p :     2.022838
      px      :     0.252789
      py      :     0.952504
      dz2     :     0.008498  d :     0.027698
      dxz     :     0.002984
      dyz     :     0.010090
      dx2y2   :     0.005173
      dxy     :     0.000952
  6 B s       :     2.998367  s :     2.998367
      pz      :     0.817545  p :     2.022838
      px      :     0.252789
      py      :     0.952504
      dz2     :     0.008498  d :     0.027698
      dxz     :     0.002984
      dyz     :     0.010090
      dx2y2   :     0.005173
      dxy     :     0.000952
  7 H s       :     0.997990  s :     0.997990
  8 H s       :     0.997990  s :     0.997990
  9 H s       :     0.954522  s :     0.954522
 10 H s       :     0.954522  s :     0.954522


                     *******************************
                     * LOEWDIN POPULATION ANALYSIS *
                     *******************************

----------------------
LOEWDIN ATOMIC CHARGES
----------------------
   0 H :    0.032436
   1 P :    0.587354
   2 C :   -0.510784
   3 H :    0.051975
   4 H :    0.051975
   5 B :   -0.116815
   6 B :   -0.116815
   7 H :   -0.009080
   8 H :   -0.009080
   9 H :    0.019417
  10 H :    0.019417

-------------------------------
LOEWDIN REDUCED ORBITAL CHARGES
-------------------------------
  0 H s       :     0.967564  s :     0.967564
  1 P s       :     5.137830  s :     5.137830
      pz      :     2.961330  p :     8.952269
      px      :     2.991863
      py      :     2.999077
      dz2     :     0.044126  d :     0.322547
      dxz     :     0.037086
      dyz     :     0.082972
      dx2y2   :     0.035378
      dxy     :     0.122985
  2 C s       :     2.958677  s :     2.958677
      pz      :     1.241519  p :     3.506920
      px      :     1.227706
      py      :     1.037695
      dz2     :     0.019599  d :     0.045187
      dxz     :     0.000060
      dyz     :     0.009916
      dx2y2   :     0.013584
      dxy     :     0.002028
  3 H s       :     0.948025  s :     0.948025
  4 H s       :     0.948025  s :     0.948025
  5 B s       :     2.844922  s :     2.844922
      pz      :     0.934354  p :     2.219548
      px      :     0.292598
      py      :     0.992596
      dz2     :     0.016856  d :     0.052345
      dxz     :     0.005819
      dyz     :     0.020027
      dx2y2   :     0.007906
      dxy     :     0.001738
  6 B s       :     2.844922  s :     2.844922
      pz      :     0.934354  p :     2.219548
      px      :     0.292598
      py      :     0.992596
      dz2     :     0.016856  d :     0.052345
      dxz     :     0.005819
      dyz     :     0.020027
      dx2y2   :     0.007906
      dxy     :     0.001738
  7 H s       :     1.009080  s :     1.009080
  8 H s       :     1.009080  s :     1.009080
  9 H s       :     0.980583  s :     0.980583
 10 H s       :     0.980583  s :     0.980583


                      *****************************
                      * MAYER POPULATION ANALYSIS *
                      *****************************

  NA   - Mulliken gross atomic population
  ZA   - Total nuclear charge
  QA   - Mulliken gross atomic charge
  VA   - Mayer's total valence
  BVA  - Mayer's bonded valence
  FA   - Mayer's free valence

  ATOM       NA         ZA         QA         VA         BVA        FA
  0 H      0.8952     1.0000     0.1048     0.9470     0.9470    -0.0000
  1 P     14.8141    15.0000     0.1859     4.0051     4.0051    -0.0000
  2 C      6.5436     6.0000    -0.5436     3.6615     3.6615    -0.0000
  3 H      0.8721     1.0000     0.1279     0.9553     0.9553    -0.0000
  4 H      0.8721     1.0000     0.1279     0.9553     0.9553    -0.0000
  5 B      5.0489     5.0000    -0.0489     3.3240     3.3240    -0.0000
  6 B      5.0489     5.0000    -0.0489     3.3240     3.3240     0.0000
  7 H      0.9980     1.0000     0.0020     0.9816     0.9816     0.0000
  8 H      0.9980     1.0000     0.0020     0.9816     0.9816     0.0000
  9 H      0.9545     1.0000     0.0455     0.9896     0.9896     0.0000
 10 H      0.9545     1.0000     0.0455     0.9896     0.9896     0.0000

  Mayer bond orders larger than 0.100000
B(  0-H ,  1-P ) :   0.8780 B(  1-P ,  2-C ) :   1.1991 B(  1-P ,  3-H ) :   0.9182 
B(  1-P ,  4-H ) :   0.9182 B(  2-C ,  5-B ) :   1.2234 B(  2-C ,  6-B ) :   1.2234 
B(  5-B ,  7-H ) :   0.9851 B(  5-B ,  9-H ) :   0.9885 B(  6-B ,  8-H ) :   0.9851 
B(  6-B , 10-H ) :   0.9885 

-------
TIMINGS
-------

Total SCF time: 0 days 0 hours 0 min 51 sec 

Total time                  ....      51.454 sec
Sum of individual times     ....      46.360 sec  ( 90.1%)

Fock matrix formation       ....      37.846 sec  ( 73.6%)
  Split-RI-J                ....       4.828 sec  ( 12.8% of F)
  Chain of spheres X        ....       9.880 sec  ( 26.1% of F)
  XC integration            ....      12.305 sec  ( 32.5% of F)
    Basis function eval.    ....       1.743 sec  ( 14.2% of XC)
    Density eval.           ....       1.098 sec  (  8.9% of XC)
    XC-Functional eval.     ....       0.987 sec  (  8.0% of XC)
    XC-Potential eval.      ....       0.464 sec  (  3.8% of XC)
Diagonalization             ....       0.625 sec  (  1.2%)
Density matrix formation    ....       0.003 sec  (  0.0%)
Population analysis         ....       0.121 sec  (  0.2%)
Initial guess               ....       0.005 sec  (  0.0%)
Orbital Transformation      ....       0.000 sec  (  0.0%)
Orbital Orthonormalization  ....       0.000 sec  (  0.0%)
DIIS solution               ....       1.556 sec  (  3.0%)
SOSCF solution              ....       0.150 sec  (  0.3%)
Grid generation             ....       6.054 sec  ( 11.8%)

Maximum memory used throughout the entire SCF-calculation: 48.7 MB


-------------------------------------------------------------------------------
                          DFT DISPERSION CORRECTION                            
                                                                               
                              DFTD3 V3.1  Rev 1                                
                          USING Becke-Johnson damping                          
-------------------------------------------------------------------------------
The PBEh-3c composite method is recognized
Using three-body term ABC
Active option DFTDOPT                   ...         4   

molecular C6(AA) [au] = 1670.409729 


            DFT-D V3
 parameters
 s6 scaling factor         :     1.0000 
 a1 scaling factor         :     0.4860 
 s8 scaling factor         :     0.0000 
 a2 scaling factor         :     4.5000 
 Damping factor alpha9(ATM):    16.0000 
 ad hoc parameters k1-k3   :    16.0000     1.3333    -4.0000 

 Edisp/kcal,au: -2.850017888250  -0.004541792120 
 E6   /kcal   :  -2.855686962 
 E8   /kcal   :  -0.000000000 
 E6(ABC)      :   0.005669073 
 % E8         :   0.000000000 
 % E6(ABC)    :  -0.198913609 

-------------------------   ----------------
Dispersion correction           -0.004541792
-------------------------   ----------------

------------------   -----------------
gCP correction             0.008757250
------------------   -----------------

-------------------------   --------------------
FINAL SINGLE POINT ENERGY      -432.686201413492
-------------------------   --------------------


                            ***************************************
                            *     ORCA property calculations      *
                            ***************************************

                                    ---------------------
                                    Active property flags
                                    ---------------------
   (+) Dipole Moment


------------------------------------------------------------------------------
                       ORCA ELECTRIC PROPERTIES CALCULATION
------------------------------------------------------------------------------

Dipole Moment Calculation                       ... on
Quadrupole Moment Calculation                   ... off
Polarizability Calculation                      ... off
GBWName                                         ... pbeh-3c.gbw
Electron density                                ... pbeh-3c.scfp
The origin for moment calculation is the CENTER OF MASS  = ( 0.002361, -0.001839  0.000000)

-------------
DIPOLE MOMENT
-------------
                                X             Y             Z
Electronic contribution:      0.00269       1.95267      -0.00000
Nuclear contribution   :     -0.08976       0.06988       0.00000
                        -----------------------------------------
Total Dipole Moment    :     -0.08706       2.02256      -0.00000
                        -----------------------------------------
Magnitude (a.u.)       :      2.02443
Magnitude (Debye)      :      5.14569



--------------------
Rotational spectrum 
--------------------
 
Rotational constants in cm-1:     0.283606     0.164008     0.107002 
Rotational constants in MHz :  8502.284161  4916.841728  3207.847821 

 Dipole components along the rotational axes: 
x,y,z [a.u.] :    -2.024251    -0.000000     0.026870 
x,y,z [Debye]:    -5.145236    -0.000000     0.068297 

 

Timings for individual modules:

Sum of individual times         ...       55.082 sec (=   0.918 min)
GTO integral calculation        ...        2.845 sec (=   0.047 min)   5.2 %
SCF iterations                  ...       52.237 sec (=   0.871 min)  94.8 %
                             ****ORCA TERMINATED NORMALLY****
TOTAL RUN TIME: 0 days 0 hours 0 minutes 58 seconds 812 msec
