
                                 *****************
                                 * O   R   C   A *
                                 *****************

                                            #,                                       
                                            ###                                      
                                            ####                                     
                                            #####                                    
                                            ######                                   
                                           ########,                                 
                                     ,,################,,,,,                         
                               ,,#################################,,                 
                          ,,##########################################,,             
                       ,#########################################, ''#####,          
                    ,#############################################,,   '####,        
                  ,##################################################,,,,####,       
                ,###########''''           ''''###############################       
              ,#####''   ,,,,##########,,,,          '''####'''          '####       
            ,##' ,,,,###########################,,,                        '##       
           ' ,,###''''                  '''############,,,                           
         ,,##''                                '''############,,,,        ,,,,,,###''
      ,#''                                            '''#######################'''  
     '                                                          ''''####''''         
             ,#######,   #######,   ,#######,      ##                                
            ,#'     '#,  ##    ##  ,#'     '#,    #''#        ######   ,####,        
            ##       ##  ##   ,#'  ##            #'  '#       #        #'  '#        
            ##       ##  #######   ##           ,######,      #####,   #    #        
            '#,     ,#'  ##    ##  '#,     ,#' ,#      #,         ##   #,  ,#        
             '#######'   ##     ##  '#######'  #'      '#     #####' # '####'        



                  #######################################################
                  #                        -***-                        #
                  #          Department of theory and spectroscopy      #
                  #    Directorship and core code : Frank Neese         #
                  #        Max Planck Institute fuer Kohlenforschung    #
                  #                Kaiser Wilhelm Platz 1               #
                  #                 D-45470 Muelheim/Ruhr               #
                  #                      Germany                        #
                  #                                                     #
                  #                  All rights reserved                #
                  #                        -***-                        #
                  #######################################################


                         Program Version 5.0.3 -  RELEASE  -


 With contributions from (in alphabetic order):
   Daniel Aravena         : Magnetic Suceptibility
   Michael Atanasov       : Ab Initio Ligand Field Theory (pilot matlab implementation)
   Alexander A. Auer      : GIAO ZORA, VPT2 properties, NMR spectrum
   Ute Becker             : Parallelization
   Giovanni Bistoni       : ED, misc. LED, open-shell LED, HFLD
   Martin Brehm           : Molecular dynamics
   Dmytro Bykov           : SCF Hessian
   Vijay G. Chilkuri      : MRCI spin determinant printing, contributions to CSF-ICE
   Dipayan Datta          : RHF DLPNO-CCSD density
   Achintya Kumar Dutta   : EOM-CC, STEOM-CC
   Dmitry Ganyushin       : Spin-Orbit,Spin-Spin,Magnetic field MRCI
   Miquel Garcia          : C-PCM and meta-GGA Hessian, CC/C-PCM, Gaussian charge scheme
   Yang Guo               : DLPNO-NEVPT2, F12-NEVPT2, CIM, IAO-localization
   Andreas Hansen         : Spin unrestricted coupled pair/coupled cluster methods
   Benjamin Helmich-Paris : MC-RPA, TRAH-SCF, COSX integrals
   Lee Huntington         : MR-EOM, pCC
   Robert Izsak           : Overlap fitted RIJCOSX, COSX-SCS-MP3, EOM
   Marcus Kettner         : VPT2
   Christian Kollmar      : KDIIS, OOCD, Brueckner-CCSD(T), CCSD density, CASPT2, CASPT2-K
   Simone Kossmann        : Meta GGA functionals, TD-DFT gradient, OOMP2, MP2 Hessian
   Martin Krupicka        : Initial AUTO-CI
   Lucas Lang             : DCDCAS
   Marvin Lechner         : AUTO-CI (C++ implementation), FIC-MRCC
   Dagmar Lenk            : GEPOL surface, SMD
   Dimitrios Liakos       : Extrapolation schemes; Compound Job, initial MDCI parallelization
   Dimitrios Manganas     : Further ROCIS development; embedding schemes
   Dimitrios Pantazis     : SARC Basis sets
   Anastasios Papadopoulos: AUTO-CI, single reference methods and gradients
   Taras Petrenko         : DFT Hessian,TD-DFT gradient, ASA, ECA, R-Raman, ABS, FL, XAS/XES, NRVS
   Peter Pinski           : DLPNO-MP2, DLPNO-MP2 Gradient
   Christoph Reimann      : Effective Core Potentials
   Marius Retegan         : Local ZFS, SOC
   Christoph Riplinger    : Optimizer, TS searches, QM/MM, DLPNO-CCSD(T), (RO)-DLPNO pert. Triples
   Tobias Risthaus        : Range-separated hybrids, TD-DFT gradient, RPA, STAB
   Michael Roemelt        : Original ROCIS implementation
   Masaaki Saitow         : Open-shell DLPNO-CCSD energy and density
   Barbara Sandhoefer     : DKH picture change effects
   Avijit Sen             : IP-ROCIS
   Kantharuban Sivalingam : CASSCF convergence, NEVPT2, FIC-MRCI
   Bernardo de Souza      : ESD, SOC TD-DFT
   Georgi Stoychev        : AutoAux, RI-MP2 NMR, DLPNO-MP2 response
   Willem Van den Heuvel  : Paramagnetic NMR
   Boris Wezisla          : Elementary symmetry handling
   Frank Wennmohs         : Technical directorship


 We gratefully acknowledge several colleagues who have allowed us to
 interface, adapt or use parts of their codes:
   Stefan Grimme, W. Hujo, H. Kruse, P. Pracht,  : VdW corrections, initial TS optimization,
                  C. Bannwarth, S. Ehlert          DFT functionals, gCP, sTDA/sTD-DF
   Ed Valeev, F. Pavosevic, A. Kumar             : LibInt (2-el integral package), F12 methods
   Garnet Chan, S. Sharma, J. Yang, R. Olivares  : DMRG
   Ulf Ekstrom                                   : XCFun DFT Library
   Mihaly Kallay                                 : mrcc  (arbitrary order and MRCC methods)
   Jiri Pittner, Ondrej Demel                    : Mk-CCSD
   Frank Weinhold                                : gennbo (NPA and NBO analysis)
   Christopher J. Cramer and Donald G. Truhlar   : smd solvation model
   Lars Goerigk                                  : TD-DFT with DH, B97 family of functionals
   V. Asgeirsson, H. Jonsson                     : NEB implementation
   FAccTs GmbH                                   : IRC, NEB, NEB-TS, DLPNO-Multilevel, CI-OPT
                                                   MM, QMMM, 2- and 3-layer-ONIOM, Crystal-QMMM,
                                                   LR-CPCM, SF, NACMEs, symmetry and pop. for TD-DFT,
                                                   nearIR, NL-DFT gradient (VV10), updates on ESD,
                                                   ML-optimized integration grids
   S Lehtola, MJT Oliveira, MAL Marques          : LibXC Library
   Liviu Ungur et al                             : ANISO software


 Your calculation uses the libint2 library for the computation of 2-el integrals
 For citations please refer to: http://libint.valeyev.net

 Your ORCA version has been built with support for libXC version: 5.1.0
 For citations please refer to: https://tddft.org/programs/libxc/

 This ORCA versions uses:
   CBLAS   interface :  Fast vector & matrix operations
   LAPACKE interface :  Fast linear algebra routines
   SCALAPACK package :  Parallel linear algebra routines
   Shared memory     :  Shared parallel matrices
   BLAS/LAPACK       :  OpenBLAS 0.3.15  USE64BITINT DYNAMIC_ARCH NO_AFFINITY Haswell SINGLE_THREADED
        Core in use  :  Haswell
   Copyright (c) 2011-2014, The OpenBLAS Project




***************************************
The coordinates will be read from file: 33.xyz
***************************************


Your calculation utilizes the geometrical counterpoise correction gCP
Please cite in your paper:
H.Kruse, S. Grimme J.Chem.Phys., 136, (2012), 154101 
   

Your calculation utilizes the atom-pairwise dispersion correction
with the Becke-Johnson damping scheme (D3BJ)
Cite in your paper:
S.Grimme, S.Ehrlich, L.Goerigk, J Comput Chem, (2011), 32, 1456–1465 
S.Grimme, J.Antony, S.Ehrlich and H.Krieg, J.Chem.Phys., 132, (2010), 154104 
   

Your calculation employs the composite approach PBEh-3c.
Please cite in your paper:
S. Grimme, J. G. Brandenburg, C. Bannwarth, A. Hansen J.Chem.Phys., 143, (2015), 054107 
   

================================================================================

----- Orbital basis set information -----
Your calculation utilizes the basis: def2-mSVP

----- AuxJ basis set information -----
Your calculation utilizes the auxiliary basis: def2/J
   F. Weigend, Phys. Chem. Chem. Phys. 8, 1057 (2006).

================================================================================
                                        WARNINGS
                       Please study these warnings very carefully!
================================================================================


INFO   : the flag for use of the SHARK integral package has been found!

================================================================================
                                       INPUT FILE
================================================================================
NAME = pbeh-3c.inp
|  1> ! PBEh-3c def2/J TightSCF DefGrid3
|  2> 
|  3> %maxcore 60000
|  4> 
|  5> %pal
|  6> nprocs 4
|  7> end
|  8> 
|  9> *xyzfile 0 1 33.xyz
| 10> 
| 11>                          ****END OF INPUT****
================================================================================

                       ****************************
                       * Single Point Calculation *
                       ****************************

---------------------------------
CARTESIAN COORDINATES (ANGSTROEM)
---------------------------------
  N     -0.325720    2.735176   -0.029892
  C      0.768116    2.089669    0.505810
  C      0.433273    0.795202    0.836014
  C     -0.947211    0.632021    0.474056
  C     -1.850081   -0.445223    0.560644
  C     -3.149964   -0.255229    0.125466
  C     -3.579570    0.984749   -0.398290
  C     -2.708850    2.058260   -0.498079
  C     -1.392241    1.867153   -0.061201
  H     -0.339735    3.689994   -0.338575
  H      1.711870    2.600395    0.610424
  H     -1.562984   -1.404688    0.971103
  H     -4.612406    1.088757   -0.702263
  H     -3.044154    3.009707   -0.890287
  O     -4.059846   -1.290484    0.248852
  C     -4.337691   -1.925087   -0.996531
  H     -3.429966   -2.363570   -1.418356
  H     -4.759168   -1.220377   -1.716585
  H     -5.061496   -2.709855   -0.792937
  C      1.346241   -0.257702    1.380326
  C      1.840198   -1.208357    0.275086
  N      2.567119   -0.520354   -0.776519
  C      3.892211   -0.169671   -0.738723
  C      4.766195   -0.918403    0.248728
  H      0.831680   -0.844786    2.146099
  H      2.208978    0.211141    1.858606
  H      0.984881   -1.708772   -0.180951
  H      2.476841   -1.983048    0.698718
  H      2.022478    0.085953   -1.372026
  O      4.349464    0.675199   -1.495619
  H      4.717038   -1.993385    0.077010
  H      4.457459   -0.727618    1.276559
  H      5.787040   -0.576760    0.113331

----------------------------
CARTESIAN COORDINATES (A.U.)
----------------------------
  NO LB      ZA    FRAG     MASS         X           Y           Z
   0 N     7.0000    0    14.007   -0.615521    5.168734   -0.056488
   1 C     6.0000    0    12.011    1.451529    3.948903    0.955842
   2 C     6.0000    0    12.011    0.818768    1.502713    1.579838
   3 C     6.0000    0    12.011   -1.789969    1.194346    0.895836
   4 C     6.0000    0    12.011   -3.496147   -0.841350    1.059464
   5 C     6.0000    0    12.011   -5.952570   -0.482313    0.237097
   6 C     6.0000    0    12.011   -6.764408    1.860905   -0.752659
   7 C     6.0000    0    12.011   -5.118986    3.889547   -0.941233
   8 C     6.0000    0    12.011   -2.630953    3.528409   -0.115653
   9 H     1.0000    0     1.008   -0.642005    6.973079   -0.639814
  10 H     1.0000    0     1.008    3.234966    4.914033    1.153534
  11 H     1.0000    0     1.008   -2.953611   -2.654476    1.835119
  12 H     1.0000    0     1.008   -8.716185    2.057452   -1.327085
  13 H     1.0000    0     1.008   -5.752616    5.687523   -1.682398
  14 O     8.0000    0    15.999   -7.671998   -2.438662    0.470262
  15 C     6.0000    0    12.011   -8.197049   -3.637888   -1.883170
  16 H     1.0000    0     1.008   -6.481697   -4.466500   -2.680304
  17 H     1.0000    0     1.008   -8.993525   -2.306179   -3.243875
  18 H     1.0000    0     1.008   -9.564842   -5.120884   -1.498434
  19 C     6.0000    0    12.011    2.544027   -0.486987    2.608438
  20 C     6.0000    0    12.011    3.477471   -2.283464    0.519837
  21 N     7.0000    0    14.007    4.851152   -0.983327   -1.467408
  22 C     6.0000    0    12.011    7.355213   -0.320632   -1.395984
  23 C     6.0000    0    12.011    9.006803   -1.735531    0.470028
  24 H     1.0000    0     1.008    1.571648   -1.596415    4.055539
  25 H     1.0000    0     1.008    4.174364    0.398998    3.512256
  26 H     1.0000    0     1.008    1.861156   -3.229111   -0.341948
  27 H     1.0000    0     1.008    4.680552   -3.747418    1.320386
  28 H     1.0000    0     1.008    3.821930    0.162427   -2.592753
  29 O     8.0000    0    15.999    8.219296    1.275940   -2.826310
  30 H     1.0000    0     1.008    8.913910   -3.766952    0.145528
  31 H     1.0000    0     1.008    8.423377   -1.374999    2.412347
  32 H     1.0000    0     1.008   10.935921   -1.089919    0.214165

--------------------------------
INTERNAL COORDINATES (ANGSTROEM)
--------------------------------
 N      0   0   0     0.000000000000     0.00000000     0.00000000
 C      1   0   0     1.378452995114     0.00000000     0.00000000
 C      2   1   0     1.377244226851   109.90052728     0.00000000
 C      3   2   1     1.436446111305   106.26091564     0.37026208
 C      4   3   2     1.408235691885   133.43763321   180.00209185
 C      5   4   3     1.383897784664   118.54559066   179.13461604
 C      6   5   4     1.412949700188   121.50930372     0.06010694
 C      7   6   5     1.385834276238   121.02816869     0.16585600
 C      1   2   3     1.375467575716   109.18462822   359.80057291
 H      1   2   3     1.003573130289   125.18022392   179.25347846
 H      2   1   3     1.078172313866   120.69566846   179.77612563
 H      5   4   3     1.082346931945   122.09772854     0.24181272
 H      7   6   5     1.081650241585   118.61258496   181.47608939
 H      8   7   6     1.082362380854   120.82318505   180.63892183
 O      6   5   4     1.383785478052   119.13466350   182.27763897
 C     15   6   5     1.425095523930   112.54584112   254.90232489
 H     16  15   6     1.092780061666   110.73607919    61.19595643
 H     16  15   6     1.092124736144   111.35056154   299.79060514
 H     16  15   6     1.086832491198   106.71906589   180.44450942
 C      3   2   1     1.496125851127   126.89301427   176.79812144
 C     20   3   2     1.539251085585   111.66854294   261.59399004
 N     21  20   3     1.451769655956   112.83707881    59.49183245
 C     22  21  20     1.371231409141   125.80990857    82.71949201
 C     23  22  21     1.516412409422   116.65592410    20.33847413
 H     20   3   2     1.093548662493   110.20922205   140.54630747
 H     20   3   2     1.092190669615   109.83063134    22.67555535
 H     21  20   3     1.090849084763   109.38313268   299.39308107
 H     21  20   3     1.088542314940   110.35172608   181.75880166
 H     22  21  20     1.009391075756   116.22108448   290.68145677
 O     23  22  21     1.223019597102   121.39281317   198.07472114
 H     24  23  22     1.089719933358   111.00584540    56.45524307
 H     24  23  22     1.090024494441   111.36802175   296.12014444
 H     24  23  22     1.084977681722   107.79095816   176.34229220

---------------------------
INTERNAL COORDINATES (A.U.)
---------------------------
 N      0   0   0     0.000000000000     0.00000000     0.00000000
 C      1   0   0     2.604898649250     0.00000000     0.00000000
 C      2   1   0     2.602614408273   109.90052728     0.00000000
 C      3   2   1     2.714489756503   106.26091564     0.37026208
 C      4   3   2     2.661179789675   133.43763321   180.00209185
 C      5   4   3     2.615187810355   118.54559066   179.13461604
 C      6   5   4     2.670087974361   121.50930372     0.06010694
 C      7   6   5     2.618847249091   121.02816869     0.16585600
 C      1   2   3     2.599257024192   109.18462822   359.80057291
 H      1   2   3     1.896478371608   125.18022392   179.25347846
 H      2   1   3     2.037450398382   120.69566846   179.77612563
 H      5   4   3     2.045339283266   122.09772854     0.24181272
 H      7   6   5     2.044022729286   118.61258496   181.47608939
 H      8   7   6     2.045368477473   120.82318505   180.63892183
 O      6   5   4     2.614975581616   119.13466350   182.27763897
 C     15   6   5     2.693040254905   112.54584112   254.90232489
 H     16  15   6     2.065055041158   110.73607919    61.19595643
 H     16  15   6     2.063816655393   111.35056154   299.79060514
 H     16  15   6     2.053815761812   106.71906589   180.44450942
 C      3   2   1     2.827268120509   126.89301427   176.79812144
 C     20   3   2     2.908763003096   111.66854294   261.59399004
 N     21  20   3     2.743447059294   112.83707881    59.49183245
 C     22  21  20     2.591251829507   125.80990857    82.71949201
 C     23  22  21     2.865604159886   116.65592410    20.33847413
 H     20   3   2     2.066507486227   110.20922205   140.54630747
 H     20   3   2     2.063941251596   109.83063134    22.67555535
 H     21  20   3     2.061406023642   109.38313268   299.39308107
 H     21  20   3     2.057046860422   110.35172608   181.75880166
 H     22  21  20     1.907472695203   116.22108448   290.68145677
 O     23  22  21     2.311172094941   121.39281317   198.07472114
 H     24  23  22     2.059272236721   111.00584540    56.45524307
 H     24  23  22     2.059847773760   111.36802175   296.12014444
 H     24  23  22     2.050310679871   107.79095816   176.34229220

---------------------
BASIS SET INFORMATION
---------------------
There are 4 groups of distinct atoms

 Group   1 Type N   : 8s4p1d contracted to 4s2p1d pattern {5111/31/1}
 Group   2 Type C   : 8s4p1d contracted to 4s2p1d pattern {5111/31/1}
 Group   3 Type H   : 4s contracted to 2s pattern {31}
 Group   4 Type O   : 8s4p1d contracted to 4s2p1d pattern {5111/31/1}

Atom   0N    basis set group =>   1
Atom   1C    basis set group =>   2
Atom   2C    basis set group =>   2
Atom   3C    basis set group =>   2
Atom   4C    basis set group =>   2
Atom   5C    basis set group =>   2
Atom   6C    basis set group =>   2
Atom   7C    basis set group =>   2
Atom   8C    basis set group =>   2
Atom   9H    basis set group =>   3
Atom  10H    basis set group =>   3
Atom  11H    basis set group =>   3
Atom  12H    basis set group =>   3
Atom  13H    basis set group =>   3
Atom  14O    basis set group =>   4
Atom  15C    basis set group =>   2
Atom  16H    basis set group =>   3
Atom  17H    basis set group =>   3
Atom  18H    basis set group =>   3
Atom  19C    basis set group =>   2
Atom  20C    basis set group =>   2
Atom  21N    basis set group =>   1
Atom  22C    basis set group =>   2
Atom  23C    basis set group =>   2
Atom  24H    basis set group =>   3
Atom  25H    basis set group =>   3
Atom  26H    basis set group =>   3
Atom  27H    basis set group =>   3
Atom  28H    basis set group =>   3
Atom  29O    basis set group =>   4
Atom  30H    basis set group =>   3
Atom  31H    basis set group =>   3
Atom  32H    basis set group =>   3
---------------------------------
AUXILIARY/J BASIS SET INFORMATION
---------------------------------
There are 4 groups of distinct atoms

 Group   1 Type N   : 12s5p4d2f1g contracted to 6s4p3d1f1g pattern {711111/2111/211/2/1}
 Group   2 Type C   : 12s5p4d2f1g contracted to 6s4p3d1f1g pattern {711111/2111/211/2/1}
 Group   3 Type H   : 5s2p1d contracted to 3s1p1d pattern {311/2/1}
 Group   4 Type O   : 12s5p4d2f1g contracted to 6s4p3d1f1g pattern {711111/2111/211/2/1}

Atom   0N    basis set group =>   1
Atom   1C    basis set group =>   2
Atom   2C    basis set group =>   2
Atom   3C    basis set group =>   2
Atom   4C    basis set group =>   2
Atom   5C    basis set group =>   2
Atom   6C    basis set group =>   2
Atom   7C    basis set group =>   2
Atom   8C    basis set group =>   2
Atom   9H    basis set group =>   3
Atom  10H    basis set group =>   3
Atom  11H    basis set group =>   3
Atom  12H    basis set group =>   3
Atom  13H    basis set group =>   3
Atom  14O    basis set group =>   4
Atom  15C    basis set group =>   2
Atom  16H    basis set group =>   3
Atom  17H    basis set group =>   3
Atom  18H    basis set group =>   3
Atom  19C    basis set group =>   2
Atom  20C    basis set group =>   2
Atom  21N    basis set group =>   1
Atom  22C    basis set group =>   2
Atom  23C    basis set group =>   2
Atom  24H    basis set group =>   3
Atom  25H    basis set group =>   3
Atom  26H    basis set group =>   3
Atom  27H    basis set group =>   3
Atom  28H    basis set group =>   3
Atom  29O    basis set group =>   4
Atom  30H    basis set group =>   3
Atom  31H    basis set group =>   3
Atom  32H    basis set group =>   3


           ************************************************************
           *        Program running with 4 parallel MPI-processes     *
           *              working on a common directory               *
           ************************************************************
------------------------------------------------------------------------------
                           ORCA GTO INTEGRAL CALCULATION
                           -- RI-GTO INTEGRALS CHOSEN --
------------------------------------------------------------------------------
------------------------------------------------------------------------------
                   ___                                                        
                  /   \      - P O W E R E D   B Y -                         
                 /     \                                                     
                 |  |  |   _    _      __       _____    __    __             
                 |  |  |  | |  | |    /  \     |  _  \  |  |  /  |          
                  \  \/   | |  | |   /    \    | | | |  |  | /  /          
                 / \  \   | |__| |  /  /\  \   | |_| |  |  |/  /          
                |  |  |   |  __  | /  /__\  \  |    /   |      \           
                |  |  |   | |  | | |   __   |  |    \   |  |\   \          
                \     /   | |  | | |  |  |  |  | |\  \  |  | \   \       
                 \___/    |_|  |_| |__|  |__|  |_| \__\ |__|  \__/        
                                                                              
                      - O R C A' S   B I G   F R I E N D -                    
                                      &                                       
                       - I N T E G R A L  F E E D E R -                       
                                                                              
 v1 FN, 2020, v2 2021                                                         
------------------------------------------------------------------------------


Reading SHARK input file pbeh-3c.SHARKINP.tmp ... ok
----------------------
SHARK INTEGRAL PACKAGE
----------------------

Number of atoms                             ...     33
Number of basis functions                   ...    287
Number of shells                            ...    151
Maximum angular momentum                    ...      2
Integral batch strategy                     ... SHARK/LIBINT Hybrid
RI-J (if used) integral strategy            ... SPLIT-RIJ (Revised 2003 algorithm where possible)
Printlevel                                  ...      1
Contraction scheme used                     ... SEGMENTED contraction
Coulomb Range Separation                    ... NOT USED
Exchange Range Separation                   ... NOT USED
Finite Nucleus Model                        ... NOT USED
Auxiliary Coulomb fitting basis             ... AVAILABLE
   # of basis functions in Aux-J            ...   1009
   # of shells in Aux-J                     ...    335
   Maximum angular momentum in Aux-J        ...      4
Auxiliary J/K fitting basis                 ... NOT available
Auxiliary Correlation fitting basis         ... NOT available
Auxiliary 'external' fitting basis          ... NOT available
Integral threshold                          ...     2.500000e-11
Primitive cut-off                           ...     2.500000e-12
Primitive pair pre-selection threshold      ...     2.500000e-12

Calculating pre-screening integrals         ... done (  0.1 sec) Dimension = 151
Organizing shell pair data                  ... done (  0.2 sec)
Shell pair information
Total number of shell pairs                 ...     11476
Shell pairs after pre-screening             ...      8096
Total number of primitive shell pairs       ...     41024
Primitive shell pairs kept                  ...     18726
          la=0 lb=0:   3211 shell pairs
          la=1 lb=0:   2696 shell pairs
          la=1 lb=1:    532 shell pairs
          la=2 lb=0:   1080 shell pairs
          la=2 lb=1:    473 shell pairs
          la=2 lb=2:    104 shell pairs

Calculating one electron integrals          ... done (  0.1 sec)
Calculating RI/J V-Matrix + Cholesky decomp.... done (  0.6 sec)
Calculating Nuclear repulsion               ... done (  0.0 sec) ENN=   1166.156978964426 Eh

SHARK setup successfully completed in   1.7 seconds

Maximum memory used throughout the entire GTOINT-calculation: 17.9 MB


           ************************************************************
           *        Program running with 4 parallel MPI-processes     *
           *              working on a common directory               *
           ************************************************************
-------------------------------------------------------------------------------
                                 ORCA SCF
-------------------------------------------------------------------------------

------------
SCF SETTINGS
------------
Hamiltonian:
 Density Functional     Method          .... DFT(GTOs)
 Exchange Functional    Exchange        .... PBE
   PBE kappa parameter   XKappa         ....  1.024500
   PBE mue parameter    XMuePBE         ....  0.123457
 Correlation Functional Correlation     .... PBE
   PBE beta parameter  CBetaPBE         ....  0.030000
 LDA part of GGA corr.  LDAOpt          .... PW91-LDA
 Gradients option       PostSCFGGA      .... off
 Hybrid DFT is turned on
   Fraction HF Exchange ScalHFX         ....  0.420000
   Scaling of DF-GGA-X  ScalDFX         ....  0.580000
   Scaling of DF-GGA-C  ScalDFC         ....  1.000000
   Scaling of DF-LDA-C  ScalLDAC        ....  1.000000
   Perturbative correction              ....  0.000000
   Density functional embedding theory  .... OFF
 RI-approximation to the Coulomb term is turned on
   Number of AuxJ basis functions       .... 1009
   RIJ-ON(X) (HFX calculated with O(N)) .... on
   Number of AuxJ basis functions       .... 1009
   RIJ-COSX (HFX calculated with COS-X)).... on


General Settings:
 Integral files         IntName         .... pbeh-3c
 Hartree-Fock type      HFTyp           .... RHF
 Total Charge           Charge          ....    0
 Multiplicity           Mult            ....    1
 Number of Electrons    NEL             ....  124
 Basis Dimension        Dim             ....  287
 Nuclear Repulsion      ENuc            ....   1166.1569789644 Eh

Convergence Acceleration:
 DIIS                   CNVDIIS         .... on
   Start iteration      DIISMaxIt       ....    12
   Startup error        DIISStart       ....  0.200000
   # of expansion vecs  DIISMaxEq       ....     5
   Bias factor          DIISBfac        ....   1.050
   Max. coefficient     DIISMaxC        ....  10.000
 Trust-Rad. Augm. Hess. CNVTRAH         .... auto
   Auto Start mean grad. ratio tolernc. ....  1.125000
   Auto Start start iteration           ....    20
   Auto Start num. interpolation iter.  ....    10
   Max. Number of Micro iterations      ....    16
   Max. Number of Macro iterations      .... Maxiter - #DIIS iter
   Number of Davidson start vectors     ....     2
   Converg. threshold I  (grad. norm)   ....   1.000e-05
   Converg. threshold II (energy diff.) ....   1.000e-08
   Grad. Scal. Fac. for Micro threshold ....   0.100
   Minimum threshold for Micro iter.    ....   0.010
   NR start threshold (gradient norm)   ....   0.001
   Initial trust radius                 ....   0.400
   Minimum AH scaling param. (alpha)    ....   1.000
   Maximum AH scaling param. (alpha)    .... 1000.000
   Orbital update algorithm             .... Taylor
   White noise on init. David. guess    .... on
   Maximum white noise                  ....   0.010
   Quad. conv. algorithm                .... NR
   COSX micro iterations for RIJONX calc.... off
 SOSCF                  CNVSOSCF        .... on
   Start iteration      SOSCFMaxIt      ....   150
   Startup grad/error   SOSCFStart      ....  0.003300
 Level Shifting         CNVShift        .... on
   Level shift para.    LevelShift      ....    0.2500
   Turn off err/grad.   ShiftErr        ....    0.0010
 Zerner damping         CNVZerner       .... off
 Static damping         CNVDamp         .... on
   Fraction old density DampFac         ....    0.7000
   Max. Damping (<1)    DampMax         ....    0.9800
   Min. Damping (>=0)   DampMin         ....    0.0000
   Turn off err/grad.   DampErr         ....    0.1000
 Fernandez-Rico         CNVRico         .... off

SCF Procedure:
 Maximum # iterations   MaxIter         ....   125
 SCF integral mode      SCFMode         .... Direct
   Integral package                     .... SHARK and LIBINT hybrid scheme
 Reset frequency        DirectResetFreq ....    20
 Integral Threshold     Thresh          ....  2.500e-11 Eh
 Primitive CutOff       TCut            ....  2.500e-12 Eh

Convergence Tolerance:
 Convergence Check Mode ConvCheckMode   .... Total+1el-Energy
 Convergence forced     ConvForced      .... 0
 Energy Change          TolE            ....  1.000e-08 Eh
 1-El. energy change                    ....  1.000e-05 Eh
 Orbital Gradient       TolG            ....  1.000e-05
 Orbital Rotation angle TolX            ....  1.000e-05
 DIIS Error             TolErr          ....  5.000e-07


Diagonalization of the overlap matrix:
Smallest eigenvalue                        ... 4.061e-04
Time for diagonalization                   ...    0.048 sec
Threshold for overlap eigenvalues          ... 1.000e-08
Number of eigenvalues below threshold      ... 0
Time for construction of square roots      ...    0.097 sec
Total time needed                          ...    0.161 sec

--------------------------------
INITIAL GUESS: MINIMAL BASIS EHT
--------------------------------
The minimal basis has 101 functions
EHT matrix was diagonalized
Basis set overlap was calculated now projecting the orbitals
Using GuessMode=FMatrix for the initial guess
C*T matrix was formed
Effective Fockian was calculated
Effective Fockian was diagonalized
Initial density was built
                      ------------------
                      INITIAL GUESS DONE
                      ------------------
-------------------
DFT GRID GENERATION
-------------------

General Integration Accuracy     IntAcc      ... 4.959
Radial Grid Type                 RadialGrid  ... OptM3 with GC (2021)
Angular Grid (max. ang.)         AngularGrid ... 6 (Lebedev-590)
Angular grid pruning method      GridPruning ... 4 (adaptive)
Weight generation scheme         WeightScheme... Becke
Basis function cutoff            BFCut       ... 1.0000e-11
Integration weight cutoff        WCut        ... 1.0000e-14
Angular grids for H and He will be reduced by one unit
Partially contracted basis set               ... off
Rotationally invariant grid construction     ... off

Total number of grid points                  ...   378737
Total number of batches                      ...     5937
Average number of points per batch           ...       63
Average number of grid points per atom       ...    11477
Time for grid setup =    7.425 sec

--------------------
COSX GRID GENERATION
--------------------

GRIDX 1
-------
General Integration Accuracy     IntAcc      ... 4.020
Radial Grid Type                 RadialGrid  ... OptM3 with GC (2021)
Angular Grid (max. ang.)         AngularGrid ... 2 (Lebedev-110)
Angular grid pruning method      GridPruning ... 4 (adaptive)
Weight generation scheme         WeightScheme... Becke
Basis function cutoff            BFCut       ... 1.0000e-11
Integration weight cutoff        WCut        ... 1.0000e-14
Angular grids for H and He will be reduced by one unit
Partially contracted basis set               ... on
Rotationally invariant grid construction     ... off

Total number of grid points                  ...    41923
Total number of batches                      ...      672
Average number of points per batch           ...       62
Average number of grid points per atom       ...     1270
UseSFitting                                  ... on

GRIDX 2
-------
General Integration Accuracy     IntAcc      ... 4.338
Radial Grid Type                 RadialGrid  ... OptM3 with GC (2021)
Angular Grid (max. ang.)         AngularGrid ... 3 (Lebedev-194)
Angular grid pruning method      GridPruning ... 4 (adaptive)
Weight generation scheme         WeightScheme... Becke
Basis function cutoff            BFCut       ... 1.0000e-11
Integration weight cutoff        WCut        ... 1.0000e-14
Angular grids for H and He will be reduced by one unit
Partially contracted basis set               ... on
Rotationally invariant grid construction     ... off

Total number of grid points                  ...    91594
Total number of batches                      ...     1446
Average number of points per batch           ...       63
Average number of grid points per atom       ...     2776
UseSFitting                                  ... on

GRIDX 3
-------
General Integration Accuracy     IntAcc      ... 4.871
Radial Grid Type                 RadialGrid  ... OptM3 with GC (2021)
Angular Grid (max. ang.)         AngularGrid ... 4 (Lebedev-302)
Angular grid pruning method      GridPruning ... 4 (adaptive)
Weight generation scheme         WeightScheme... Becke
Basis function cutoff            BFCut       ... 1.0000e-11
Integration weight cutoff        WCut        ... 1.0000e-14
Angular grids for H and He will be reduced by one unit
Partially contracted basis set               ... on
Rotationally invariant grid construction     ... off

Total number of grid points                  ...   173381
Total number of batches                      ...     2725
Average number of points per batch           ...       63
Average number of grid points per atom       ...     5254
UseSFitting                                  ... on

Time for X-Grid setup             =    6.544 sec

--------------
SCF ITERATIONS
--------------
ITER       Energy         Delta-E        Max-DP      RMS-DP      [F,P]     Damp
               ***  Starting incremental Fock matrix formation  ***
  0   -761.2552475171   0.000000000000 0.19449187  0.00494731  0.5524218 0.7000
  1   -761.9726111290  -0.717363611904 0.12221965  0.00319180  0.2924538 0.7000
  2   -762.3791160961  -0.406504967041 0.08403734  0.00211735  0.2056907 0.7000
                               ***Turning on DIIS***
  3   -762.6656030121  -0.286486916047 0.06101442  0.00149767  0.1445740 0.7000
  4   -762.8710615345  -0.205458522345 0.04292069  0.00111544  0.1014180 0.7000
  5   -763.0165016252  -0.145440090682 0.09873175  0.00271149  0.0712021 0.0000
  6   -763.3623572248  -0.345855599673 0.00429803  0.00010522  0.0033069 0.0000
                      *** Initiating the SOSCF procedure ***
                           *** Shutting down DIIS ***
                      *** Re-Reading the Fockian *** 
                      *** Removing any level shift *** 
ITER      Energy       Delta-E        Grad      Rot      Max-DP    RMS-DP
  7   -763.36253921  -0.0001819807  0.000527  0.000527  0.002346  0.000046
               *** Restarting incremental Fock matrix formation ***
  8   -763.36256521  -0.0000259995  0.000837  0.002345  0.001563  0.000035
  9   -763.36257168  -0.0000064766  0.000450  0.000456  0.001810  0.000025
 10   -763.36257737  -0.0000056915  0.000094  0.000183  0.000577  0.000009
 11   -763.36257774  -0.0000003625  0.000030  0.000057  0.000120  0.000002
 12   -763.36257779  -0.0000000535  0.000014  0.000028  0.000102  0.000002
 13   -763.36257781  -0.0000000213  0.000005  0.000020  0.000016  0.000000
 14   -763.36257781   0.0000000022  0.000007  0.000013  0.000008  0.000000
                  ***Gradient check signals convergence***
              ***Rediagonalizing the Fockian in SOSCF/NRSCF***

               *****************************************************
               *                     SUCCESS                       *
               *           SCF CONVERGED AFTER  15 CYCLES          *
               *****************************************************

Old exchange energy                            =    -43.177668046 Eh
New exchange energy                            =    -43.177667817 Eh
Exchange energy change after final integration =      0.000000230 Eh
Total energy after final integration           =   -763.362577578 Eh
Final COS-X integration done in                =    27.789 sec

----------------
TOTAL SCF ENERGY
----------------

Total Energy       :         -763.36257758 Eh          -20772.15177 eV

Components:
Nuclear Repulsion  :         1166.15697896 Eh           31732.74466 eV
Electronic Energy  :        -1929.51955654 Eh          -52504.89643 eV
One Electron Energy:        -3352.64327752 Eh          -91230.06163 eV
Two Electron Energy:         1423.12372098 Eh           38725.16520 eV
Max COSX asymmetry :            0.00000189 Eh               0.00005 eV

Virial components:
Potential Energy   :        -1520.77591304 Eh          -41382.41644 eV
Kinetic Energy     :          757.41333546 Eh           20610.26466 eV
Virial Ratio       :            2.00785468


DFT components:
N(Alpha)           :       61.999986741824 electrons
N(Beta)            :       61.999986741824 electrons
N(Total)           :      123.999973483648 electrons
E(X)               :      -57.395554741020 Eh       
E(C)               :       -5.446474272013 Eh       
E(XC)              :      -62.842029013033 Eh       
DFET-embed. en.    :        0.000000000000 Eh       

---------------
SCF CONVERGENCE
---------------

  Last Energy change         ...    6.4506e-10  Tolerance :   1.0000e-08
  Last MAX-Density change    ...    1.6653e-15  Tolerance :   1.0000e-07
  Last RMS-Density change    ...    3.3768e-17  Tolerance :   5.0000e-09
  Last Orbital Gradient      ...    6.3567e-07  Tolerance :   1.0000e-05
  Last Orbital Rotation      ...    1.7717e-06  Tolerance :   1.0000e-05

             **** THE GBW FILE WAS UPDATED (pbeh-3c.gbw) ****
             **** DENSITY pbeh-3c.scfp WAS UPDATED ****
             **** ENERGY FILE WAS UPDATED (pbeh-3c.en.tmp) ****
             **** THE GBW FILE WAS UPDATED (pbeh-3c.gbw) ****
             **** DENSITY pbeh-3c.scfp WAS UPDATED ****
----------------
ORBITAL ENERGIES
----------------

  NO   OCC          E(Eh)            E(eV) 
   0   2.0000     -19.506986      -530.8121 
   1   2.0000     -19.448237      -529.2134 
   2   2.0000     -14.690029      -399.7360 
   3   2.0000     -14.650175      -398.6515 
   4   2.0000     -10.542486      -286.8756 
   5   2.0000     -10.496439      -285.6226 
   6   2.0000     -10.484202      -285.2896 
   7   2.0000     -10.483807      -285.2789 
   8   2.0000     -10.482705      -285.2489 
   9   2.0000     -10.482489      -285.2430 
  10   2.0000     -10.456875      -284.5460 
  11   2.0000     -10.452482      -284.4265 
  12   2.0000     -10.450920      -284.3840 
  13   2.0000     -10.447415      -284.2886 
  14   2.0000     -10.447090      -284.2798 
  15   2.0000     -10.446408      -284.2612 
  16   2.0000     -10.438525      -284.0467 
  17   2.0000      -1.155346       -31.4386 
  18   2.0000      -1.133366       -30.8405 
  19   2.0000      -1.092637       -29.7322 
  20   2.0000      -1.017550       -27.6889 
  21   2.0000      -0.941321       -25.6147 
  22   2.0000      -0.902685       -24.5633 
  23   2.0000      -0.845678       -23.0121 
  24   2.0000      -0.832255       -22.6468 
  25   2.0000      -0.823567       -22.4104 
  26   2.0000      -0.808005       -21.9869 
  27   2.0000      -0.768432       -20.9101 
  28   2.0000      -0.732524       -19.9330 
  29   2.0000      -0.702555       -19.1175 
  30   2.0000      -0.670990       -18.2586 
  31   2.0000      -0.649934       -17.6856 
  32   2.0000      -0.630079       -17.1453 
  33   2.0000      -0.613072       -16.6825 
  34   2.0000      -0.573859       -15.6155 
  35   2.0000      -0.559586       -15.2271 
  36   2.0000      -0.554583       -15.0910 
  37   2.0000      -0.544259       -14.8100 
  38   2.0000      -0.525218       -14.2919 
  39   2.0000      -0.519299       -14.1308 
  40   2.0000      -0.516424       -14.0526 
  41   2.0000      -0.506522       -13.7832 
  42   2.0000      -0.498290       -13.5592 
  43   2.0000      -0.493570       -13.4307 
  44   2.0000      -0.479741       -13.0544 
  45   2.0000      -0.475787       -12.9468 
  46   2.0000      -0.465356       -12.6630 
  47   2.0000      -0.458398       -12.4736 
  48   2.0000      -0.453679       -12.3452 
  49   2.0000      -0.451026       -12.2731 
  50   2.0000      -0.430817       -11.7231 
  51   2.0000      -0.424517       -11.5517 
  52   2.0000      -0.409499       -11.1430 
  53   2.0000      -0.405683       -11.0392 
  54   2.0000      -0.395051       -10.7499 
  55   2.0000      -0.378131       -10.2895 
  56   2.0000      -0.329356        -8.9622 
  57   2.0000      -0.327136        -8.9018 
  58   2.0000      -0.302864        -8.2414 
  59   2.0000      -0.292250        -7.9525 
  60   2.0000      -0.258330        -7.0295 
  61   2.0000      -0.246543        -6.7088 
  62   0.0000       0.000766         0.0209 
  63   0.0000       0.045888         1.2487 
  64   0.0000       0.064301         1.7497 
  65   0.0000       0.082973         2.2578 
  66   0.0000       0.121266         3.2998 
  67   0.0000       0.126385         3.4391 
  68   0.0000       0.148743         4.0475 
  69   0.0000       0.150387         4.0922 
  70   0.0000       0.152753         4.1566 
  71   0.0000       0.167749         4.5647 
  72   0.0000       0.178672         4.8619 
  73   0.0000       0.187221         5.0945 
  74   0.0000       0.191406         5.2084 
  75   0.0000       0.199510         5.4289 
  76   0.0000       0.203514         5.5379 
  77   0.0000       0.204867         5.5747 
  78   0.0000       0.212972         5.7953 
  79   0.0000       0.218339         5.9413 
  80   0.0000       0.221517         6.0278 
  81   0.0000       0.225333         6.1316 
  82   0.0000       0.228379         6.2145 
  83   0.0000       0.242913         6.6100 
  84   0.0000       0.247977         6.7478 
  85   0.0000       0.258803         7.0424 
  86   0.0000       0.264582         7.1996 
  87   0.0000       0.272850         7.4246 
  88   0.0000       0.279396         7.6027 
  89   0.0000       0.309242         8.4149 
  90   0.0000       0.319961         8.7066 
  91   0.0000       0.335394         9.1265 
  92   0.0000       0.337896         9.1946 
  93   0.0000       0.358957         9.7677 
  94   0.0000       0.368309        10.0222 
  95   0.0000       0.410533        11.1712 
  96   0.0000       0.418737        11.3944 
  97   0.0000       0.432858        11.7787 
  98   0.0000       0.459748        12.5104 
  99   0.0000       0.487467        13.2647 
 100   0.0000       0.490569        13.3491 
 101   0.0000       0.496725        13.5166 
 102   0.0000       0.510389        13.8884 
 103   0.0000       0.516386        14.0516 
 104   0.0000       0.527323        14.3492 
 105   0.0000       0.531525        14.4635 
 106   0.0000       0.539508        14.6808 
 107   0.0000       0.549337        14.9482 
 108   0.0000       0.556531        15.1440 
 109   0.0000       0.564896        15.3716 
 110   0.0000       0.568140        15.4599 
 111   0.0000       0.582978        15.8636 
 112   0.0000       0.591471        16.0948 
 113   0.0000       0.600079        16.3290 
 114   0.0000       0.603846        16.4315 
 115   0.0000       0.607919        16.5423 
 116   0.0000       0.614729        16.7276 
 117   0.0000       0.632955        17.2236 
 118   0.0000       0.635064        17.2810 
 119   0.0000       0.647921        17.6308 
 120   0.0000       0.653811        17.7911 
 121   0.0000       0.661748        18.0071 
 122   0.0000       0.673821        18.3356 
 123   0.0000       0.682803        18.5800 
 124   0.0000       0.695745        18.9322 
 125   0.0000       0.711576        19.3630 
 126   0.0000       0.721712        19.6388 
 127   0.0000       0.728665        19.8280 
 128   0.0000       0.745871        20.2962 
 129   0.0000       0.765351        20.8263 
 130   0.0000       0.780918        21.2499 
 131   0.0000       0.794782        21.6271 
 132   0.0000       0.816203        22.2100 
 133   0.0000       0.822122        22.3711 
 134   0.0000       0.849999        23.1296 
 135   0.0000       0.876996        23.8643 
 136   0.0000       0.890158        24.2224 
 137   0.0000       0.910084        24.7646 
 138   0.0000       0.920332        25.0435 
 139   0.0000       0.946719        25.7615 
 140   0.0000       0.955606        26.0034 
 141   0.0000       0.958946        26.0942 
 142   0.0000       0.973726        26.4964 
 143   0.0000       0.976308        26.5667 
 144   0.0000       0.985412        26.8144 
 145   0.0000       0.993598        27.0372 
 146   0.0000       0.997133        27.1334 
 147   0.0000       1.000555        27.2265 
 148   0.0000       1.004400        27.3311 
 149   0.0000       1.017763        27.6947 
 150   0.0000       1.026958        27.9449 
 151   0.0000       1.030601        28.0441 
 152   0.0000       1.034558        28.1518 
 153   0.0000       1.040275        28.3073 
 154   0.0000       1.052665        28.6445 
 155   0.0000       1.069855        29.1122 
 156   0.0000       1.081113        29.4186 
 157   0.0000       1.085900        29.5488 
 158   0.0000       1.101164        29.9642 
 159   0.0000       1.113339        30.2955 
 160   0.0000       1.126737        30.6601 
 161   0.0000       1.135737        30.9050 
 162   0.0000       1.144353        31.1394 
 163   0.0000       1.148782        31.2599 
 164   0.0000       1.167246        31.7624 
 165   0.0000       1.194225        32.4965 
 166   0.0000       1.200418        32.6650 
 167   0.0000       1.214975        33.0612 
 168   0.0000       1.247362        33.9424 
 169   0.0000       1.251724        34.0612 
 170   0.0000       1.268752        34.5245 
 171   0.0000       1.289095        35.0781 
 172   0.0000       1.291472        35.1427 
 173   0.0000       1.331996        36.2454 
 174   0.0000       1.368424        37.2367 
 175   0.0000       1.384328        37.6695 
 176   0.0000       1.411066        38.3971 
 177   0.0000       1.413635        38.4670 
 178   0.0000       1.432714        38.9861 
 179   0.0000       1.439260        39.1642 
 180   0.0000       1.456797        39.6415 
 181   0.0000       1.459515        39.7154 
 182   0.0000       1.470414        40.0120 
 183   0.0000       1.481761        40.3208 
 184   0.0000       1.519923        41.3592 
 185   0.0000       1.528942        41.6046 
 186   0.0000       1.531229        41.6669 
 187   0.0000       1.554913        42.3113 
 188   0.0000       1.570527        42.7362 
 189   0.0000       1.579769        42.9877 
 190   0.0000       1.590816        43.2883 
 191   0.0000       1.606950        43.7273 
 192   0.0000       1.645949        44.7885 
 193   0.0000       1.679078        45.6900 
 194   0.0000       1.704880        46.3921 
 195   0.0000       1.804616        49.1061 
 196   0.0000       1.813239        49.3407 
 197   0.0000       1.823747        49.6267 
 198   0.0000       1.839439        50.0537 
 199   0.0000       1.844995        50.2049 
 200   0.0000       1.859940        50.6115 
 201   0.0000       1.868451        50.8431 
 202   0.0000       1.880034        51.1583 
 203   0.0000       1.885700        51.3125 
 204   0.0000       1.897421        51.6315 
 205   0.0000       1.926621        52.4260 
 206   0.0000       1.933390        52.6102 
 207   0.0000       1.974918        53.7402 
 208   0.0000       1.985555        54.0297 
 209   0.0000       1.998795        54.3900 
 210   0.0000       2.015917        54.8559 
 211   0.0000       2.020228        54.9732 
 212   0.0000       2.028719        55.2042 
 213   0.0000       2.059450        56.0405 
 214   0.0000       2.064781        56.1856 
 215   0.0000       2.093648        56.9711 
 216   0.0000       2.104442        57.2648 
 217   0.0000       2.120298        57.6962 
 218   0.0000       2.127048        57.8799 
 219   0.0000       2.144070        58.3431 
 220   0.0000       2.149764        58.4980 
 221   0.0000       2.163621        58.8751 
 222   0.0000       2.180100        59.3235 
 223   0.0000       2.191359        59.6299 
 224   0.0000       2.201887        59.9164 
 225   0.0000       2.212956        60.2176 
 226   0.0000       2.252582        61.2959 
 227   0.0000       2.256998        61.4160 
 228   0.0000       2.267163        61.6927 
 229   0.0000       2.279230        62.0210 
 230   0.0000       2.304469        62.7078 
 231   0.0000       2.317416        63.0601 
 232   0.0000       2.320672        63.1487 
 233   0.0000       2.326168        63.2983 
 234   0.0000       2.336536        63.5804 
 235   0.0000       2.371489        64.5315 
 236   0.0000       2.389085        65.0103 
 237   0.0000       2.409118        65.5554 
 238   0.0000       2.415963        65.7417 
 239   0.0000       2.450003        66.6680 
 240   0.0000       2.483332        67.5749 
 241   0.0000       2.502858        68.1062 
 242   0.0000       2.503787        68.1315 
 243   0.0000       2.533995        68.9535 
 244   0.0000       2.572581        70.0035 
 245   0.0000       2.582637        70.2771 
 246   0.0000       2.599299        70.7305 
 247   0.0000       2.619495        71.2801 
 248   0.0000       2.648629        72.0729 
 249   0.0000       2.676199        72.8231 
 250   0.0000       2.681124        72.9571 
 251   0.0000       2.706497        73.6475 
 252   0.0000       2.736824        74.4728 
 253   0.0000       2.744806        74.6900 
 254   0.0000       2.747579        74.7654 
 255   0.0000       2.778955        75.6192 
 256   0.0000       2.786259        75.8180 
 257   0.0000       2.824950        76.8708 
 258   0.0000       2.840450        77.2926 
 259   0.0000       2.899905        78.9104 
 260   0.0000       2.963450        80.6396 
 261   0.0000       2.978186        81.0406 
 262   0.0000       2.991205        81.3948 
 263   0.0000       3.040549        82.7375 
 264   0.0000       3.084039        83.9210 
 265   0.0000       3.125979        85.0622 
 266   0.0000       3.200422        87.0879 
 267   0.0000       3.224184        87.7345 
 268   0.0000       3.341696        90.9322 
 269   0.0000       3.511661        95.5572 
 270   0.0000      13.269664       361.0859 
 271   0.0000      13.616498       370.5237 
 272   0.0000      13.664833       371.8390 
 273   0.0000      13.748803       374.1240 
 274   0.0000      13.791367       375.2822 
 275   0.0000      13.838338       376.5603 
 276   0.0000      13.851097       376.9075 
 277   0.0000      14.038044       381.9946 
 278   0.0000      14.044339       382.1659 
 279   0.0000      14.113273       384.0417 
 280   0.0000      14.228631       387.1807 
 281   0.0000      14.334130       390.0515 
 282   0.0000      14.543849       395.7583 
 283   0.0000      19.298847       525.1483 
 284   0.0000      19.400564       527.9162 
 285   0.0000      25.727345       700.0766 
 286   0.0000      25.791773       701.8298 

                    ********************************
                    * MULLIKEN POPULATION ANALYSIS *
                    ********************************

-----------------------
MULLIKEN ATOMIC CHARGES
-----------------------
   0 N :   -0.699400
   1 C :   -0.054941
   2 C :    0.009701
   3 C :    0.072499
   4 C :   -0.434461
   5 C :    0.362936
   6 C :   -0.312377
   7 C :   -0.261989
   8 C :    0.365373
   9 H :    0.362286
  10 H :    0.252953
  11 H :    0.214041
  12 H :    0.228978
  13 H :    0.216894
  14 O :   -0.485490
  15 C :   -0.376888
  16 H :    0.201334
  17 H :    0.198559
  18 H :    0.221066
  19 C :   -0.532461
  20 C :   -0.296099
  21 N :   -0.596815
  22 C :    0.487811
  23 C :   -0.778750
  24 H :    0.231683
  25 H :    0.230801
  26 H :    0.245731
  27 H :    0.233498
  28 H :    0.368749
  29 O :   -0.419451
  30 H :    0.241092
  31 H :    0.231342
  32 H :    0.271796
Sum of atomic charges:   -0.0000000

--------------------------------
MULLIKEN REDUCED ORBITAL CHARGES
--------------------------------
  0 N s       :     3.599050  s :     3.599050
      pz      :     1.562203  p :     4.058912
      px      :     1.224107
      py      :     1.272603
      dz2     :     0.004921  d :     0.041438
      dxz     :     0.008235
      dyz     :     0.005478
      dx2y2   :     0.013536
      dxy     :     0.009268
  1 C s       :     3.161934  s :     3.161934
      pz      :     1.000791  p :     2.836378
      px      :     0.881176
      py      :     0.954411
      dz2     :     0.008338  d :     0.056629
      dxz     :     0.007799
      dyz     :     0.008964
      dx2y2   :     0.011842
      dxy     :     0.019687
  2 C s       :     3.199696  s :     3.199696
      pz      :     1.029053  p :     2.745211
      px      :     0.831433
      py      :     0.884725
      dz2     :     0.004706  d :     0.045392
      dxz     :     0.007295
      dyz     :     0.008089
      dx2y2   :     0.014860
      dxy     :     0.010441
  3 C s       :     3.218337  s :     3.218337
      pz      :     0.992982  p :     2.662454
      px      :     0.806063
      py      :     0.863409
      dz2     :     0.005206  d :     0.046711
      dxz     :     0.008075
      dyz     :     0.007522
      dx2y2   :     0.013329
      dxy     :     0.012579
  4 C s       :     3.362706  s :     3.362706
      pz      :     1.051950  p :     3.033401
      px      :     0.960021
      py      :     1.021429
      dz2     :     0.003854  d :     0.038353
      dxz     :     0.007171
      dyz     :     0.005333
      dx2y2   :     0.012042
      dxy     :     0.009953
  5 C s       :     3.061533  s :     3.061533
      pz      :     0.975522  p :     2.501460
      px      :     0.758564
      py      :     0.767374
      dz2     :     0.006984  d :     0.074072
      dxz     :     0.010305
      dyz     :     0.009976
      dx2y2   :     0.024060
      dxy     :     0.022748
  6 C s       :     3.265982  s :     3.265982
      pz      :     1.027455  p :     3.008190
      px      :     1.059373
      py      :     0.921363
      dz2     :     0.004225  d :     0.038205
      dxz     :     0.004432
      dyz     :     0.007304
      dx2y2   :     0.013213
      dxy     :     0.009031
  7 C s       :     3.257297  s :     3.257297
      pz      :     1.026630  p :     2.964892
      px      :     0.920684
      py      :     1.017577
      dz2     :     0.003657  d :     0.039800
      dxz     :     0.007572
      dyz     :     0.005611
      dx2y2   :     0.013062
      dxy     :     0.009898
  8 C s       :     3.072866  s :     3.072866
      pz      :     0.976686  p :     2.498309
      px      :     0.702009
      py      :     0.819615
      dz2     :     0.006426  d :     0.063451
      dxz     :     0.011602
      dyz     :     0.009437
      dx2y2   :     0.015317
      dxy     :     0.020668
  9 H s       :     0.637714  s :     0.637714
 10 H s       :     0.747047  s :     0.747047
 11 H s       :     0.785959  s :     0.785959
 12 H s       :     0.771022  s :     0.771022
 13 H s       :     0.783106  s :     0.783106
 14 O s       :     3.796664  s :     3.796664
      pz      :     1.489969  p :     4.656255
      px      :     1.653933
      py      :     1.512353
      dz2     :     0.009438  d :     0.032571
      dxz     :     0.005350
      dyz     :     0.006730
      dx2y2   :     0.003956
      dxy     :     0.007097
 15 C s       :     3.337437  s :     3.337437
      pz      :     0.812073  p :     2.977616
      px      :     1.118296
      py      :     1.047248
      dz2     :     0.013739  d :     0.061834
      dxz     :     0.013492
      dyz     :     0.017494
      dx2y2   :     0.003682
      dxy     :     0.013427
 16 H s       :     0.798666  s :     0.798666
 17 H s       :     0.801441  s :     0.801441
 18 H s       :     0.778934  s :     0.778934
 19 C s       :     3.388777  s :     3.388777
      pz      :     1.010889  p :     3.100086
      px      :     1.072577
      py      :     1.016621
      dz2     :     0.004631  d :     0.043598
      dxz     :     0.010115
      dyz     :     0.012570
      dx2y2   :     0.004362
      dxy     :     0.011919
 20 C s       :     3.292498  s :     3.292498
      pz      :     0.900614  p :     2.945148
      px      :     1.063238
      py      :     0.981296
      dz2     :     0.010161  d :     0.058454
      dxz     :     0.014820
      dyz     :     0.014414
      dx2y2   :     0.004220
      dxy     :     0.014838
 21 N s       :     3.540940  s :     3.540940
      pz      :     1.387178  p :     4.021363
      px      :     1.153185
      py      :     1.481000
      dz2     :     0.004672  d :     0.034512
      dxz     :     0.008628
      dyz     :     0.006097
      dx2y2   :     0.005606
      dxy     :     0.009510
 22 C s       :     2.976386  s :     2.976386
      pz      :     0.818741  p :     2.414724
      px      :     0.791981
      py      :     0.804002
      dz2     :     0.021616  d :     0.121079
      dxz     :     0.024587
      dyz     :     0.016778
      dx2y2   :     0.029059
      dxy     :     0.029039
 23 C s       :     3.414158  s :     3.414158
      pz      :     1.074499  p :     3.330716
      px      :     1.138784
      py      :     1.117434
      dz2     :     0.009735  d :     0.033876
      dxz     :     0.005857
      dyz     :     0.003671
      dx2y2   :     0.009982
      dxy     :     0.004630
 24 H s       :     0.768317  s :     0.768317
 25 H s       :     0.769199  s :     0.769199
 26 H s       :     0.754269  s :     0.754269
 27 H s       :     0.766502  s :     0.766502
 28 H s       :     0.631251  s :     0.631251
 29 O s       :     3.758116  s :     3.758116
      pz      :     1.469109  p :     4.632098
      px      :     1.742946
      py      :     1.420043
      dz2     :     0.007222  d :     0.029237
      dxz     :     0.004671
      dyz     :     0.006829
      dx2y2   :     0.005684
      dxy     :     0.004830
 30 H s       :     0.758908  s :     0.758908
 31 H s       :     0.768658  s :     0.768658
 32 H s       :     0.728204  s :     0.728204


                     *******************************
                     * LOEWDIN POPULATION ANALYSIS *
                     *******************************

----------------------
LOEWDIN ATOMIC CHARGES
----------------------
   0 N :   -0.155519
   1 C :   -0.080263
   2 C :   -0.113181
   3 C :   -0.057130
   4 C :   -0.154475
   5 C :    0.043634
   6 C :   -0.158921
   7 C :   -0.151569
   8 C :    0.012712
   9 H :    0.263818
  10 H :    0.141563
  11 H :    0.142828
  12 H :    0.142599
  13 H :    0.138012
  14 O :   -0.220064
  15 C :   -0.172416
  16 H :    0.109962
  17 H :    0.107985
  18 H :    0.124485
  19 C :   -0.236819
  20 C :   -0.147153
  21 N :   -0.243913
  22 C :    0.104554
  23 C :   -0.398903
  24 H :    0.137006
  25 H :    0.132937
  26 H :    0.130644
  27 H :    0.128837
  28 H :    0.261930
  29 O :   -0.275000
  30 H :    0.145417
  31 H :    0.140366
  32 H :    0.156039

-------------------------------
LOEWDIN REDUCED ORBITAL CHARGES
-------------------------------
  0 N s       :     3.076002  s :     3.076002
      pz      :     1.520230  p :     3.985362
      px      :     1.236183
      py      :     1.228949
      dz2     :     0.008536  d :     0.094156
      dxz     :     0.018681
      dyz     :     0.009735
      dx2y2   :     0.031029
      dxy     :     0.026174
  1 C s       :     2.885488  s :     2.885488
      pz      :     1.025908  p :     3.071679
      px      :     0.998721
      py      :     1.047049
      dz2     :     0.016390  d :     0.123097
      dxz     :     0.016097
      dyz     :     0.019544
      dx2y2   :     0.028208
      dxy     :     0.042857
  2 C s       :     2.842650  s :     2.842650
      pz      :     1.061560  p :     3.161943
      px      :     1.042100
      py      :     1.058283
      dz2     :     0.009054  d :     0.108588
      dxz     :     0.015768
      dyz     :     0.017135
      dx2y2   :     0.038564
      dxy     :     0.028067
  3 C s       :     2.832265  s :     2.832265
      pz      :     1.018059  p :     3.111577
      px      :     1.042154
      py      :     1.051364
      dz2     :     0.010430  d :     0.113288
      dxz     :     0.017207
      dyz     :     0.016641
      dx2y2   :     0.035783
      dxy     :     0.033226
  4 C s       :     2.891228  s :     2.891228
      pz      :     1.041441  p :     3.176361
      px      :     1.063459
      py      :     1.071460
      dz2     :     0.006875  d :     0.086886
      dxz     :     0.015487
      dyz     :     0.009653
      dx2y2   :     0.029399
      dxy     :     0.025474
  5 C s       :     2.828069  s :     2.828069
      pz      :     1.003051  p :     2.955135
      px      :     0.994126
      py      :     0.957958
      dz2     :     0.015232  d :     0.173162
      dxz     :     0.022185
      dyz     :     0.021967
      dx2y2   :     0.059140
      dxy     :     0.054639
  6 C s       :     2.894670  s :     2.894670
      pz      :     1.034503  p :     3.177503
      px      :     1.076116
      py      :     1.066885
      dz2     :     0.007841  d :     0.086748
      dxz     :     0.007807
      dyz     :     0.016253
      dx2y2   :     0.030986
      dxy     :     0.023861
  7 C s       :     2.886152  s :     2.886152
      pz      :     1.033038  p :     3.175434
      px      :     1.062536
      py      :     1.079860
      dz2     :     0.006512  d :     0.089983
      dxz     :     0.016497
      dyz     :     0.010107
      dx2y2   :     0.031195
      dxy     :     0.025672
  8 C s       :     2.813691  s :     2.813691
      pz      :     1.020750  p :     3.025896
      px      :     1.008239
      py      :     0.996907
      dz2     :     0.013482  d :     0.147701
      dxz     :     0.024284
      dyz     :     0.020729
      dx2y2   :     0.038599
      dxy     :     0.050607
  9 H s       :     0.736182  s :     0.736182
 10 H s       :     0.858437  s :     0.858437
 11 H s       :     0.857172  s :     0.857172
 12 H s       :     0.857401  s :     0.857401
 13 H s       :     0.861988  s :     0.861988
 14 O s       :     3.441255  s :     3.441255
      pz      :     1.528776  p :     4.709118
      px      :     1.652165
      py      :     1.528177
      dz2     :     0.018321  d :     0.069691
      dxz     :     0.011205
      dyz     :     0.015635
      dx2y2   :     0.009383
      dxy     :     0.015146
 15 C s       :     2.957767  s :     2.957767
      pz      :     0.901342  p :     3.093728
      px      :     1.124938
      py      :     1.067448
      dz2     :     0.029900  d :     0.120920
      dxz     :     0.026406
      dyz     :     0.034997
      dx2y2   :     0.005960
      dxy     :     0.023656
 16 H s       :     0.890038  s :     0.890038
 17 H s       :     0.892015  s :     0.892015
 18 H s       :     0.875515  s :     0.875515
 19 C s       :     2.905606  s :     2.905606
      pz      :     1.077065  p :     3.241218
      px      :     1.088038
      py      :     1.076116
      dz2     :     0.009564  d :     0.089995
      dxz     :     0.019906
      dyz     :     0.027023
      dx2y2   :     0.009260
      dxy     :     0.024242
 20 C s       :     2.900315  s :     2.900315
      pz      :     1.008817  p :     3.125901
      px      :     1.067630
      py      :     1.049454
      dz2     :     0.021890  d :     0.120937
      dxz     :     0.030222
      dyz     :     0.031838
      dx2y2   :     0.008151
      dxy     :     0.028836
 21 N s       :     3.121340  s :     3.121340
      pz      :     1.378656  p :     4.042276
      px      :     1.199675
      py      :     1.463945
      dz2     :     0.012263  d :     0.080297
      dxz     :     0.021333
      dyz     :     0.010716
      dx2y2   :     0.015289
      dxy     :     0.020696
 22 C s       :     2.832430  s :     2.832430
      pz      :     0.918577  p :     2.789634
      px      :     0.964804
      py      :     0.906254
      dz2     :     0.046299  d :     0.273382
      dxz     :     0.055044
      dyz     :     0.038565
      dx2y2   :     0.064621
      dxy     :     0.068853
 23 C s       :     2.965775  s :     2.965775
      pz      :     1.110270  p :     3.370447
      px      :     1.134065
      py      :     1.126111
      dz2     :     0.017774  d :     0.062681
      dxz     :     0.011390
      dyz     :     0.007439
      dx2y2   :     0.017485
      dxy     :     0.008592
 24 H s       :     0.862994  s :     0.862994
 25 H s       :     0.867063  s :     0.867063
 26 H s       :     0.869356  s :     0.869356
 27 H s       :     0.871163  s :     0.871163
 28 H s       :     0.738070  s :     0.738070
 29 O s       :     3.523769  s :     3.523769
      pz      :     1.501787  p :     4.695983
      px      :     1.737660
      py      :     1.456536
      dz2     :     0.010174  d :     0.055248
      dxz     :     0.008956
      dyz     :     0.016289
      dx2y2   :     0.009794
      dxy     :     0.010035
 30 H s       :     0.854583  s :     0.854583
 31 H s       :     0.859634  s :     0.859634
 32 H s       :     0.843961  s :     0.843961


                      *****************************
                      * MAYER POPULATION ANALYSIS *
                      *****************************

  NA   - Mulliken gross atomic population
  ZA   - Total nuclear charge
  QA   - Mulliken gross atomic charge
  VA   - Mayer's total valence
  BVA  - Mayer's bonded valence
  FA   - Mayer's free valence

  ATOM       NA         ZA         QA         VA         BVA        FA
  0 N      7.6994     7.0000    -0.6994     3.1757     3.1757    -0.0000
  1 C      6.0549     6.0000    -0.0549     3.6945     3.6945    -0.0000
  2 C      5.9903     6.0000     0.0097     3.6958     3.6958    -0.0000
  3 C      5.9275     6.0000     0.0725     3.7172     3.7172    -0.0000
  4 C      6.4345     6.0000    -0.4345     3.7741     3.7741     0.0000
  5 C      5.6371     6.0000     0.3629     3.7845     3.7845    -0.0000
  6 C      6.3124     6.0000    -0.3124     3.8303     3.8303     0.0000
  7 C      6.2620     6.0000    -0.2620     3.7598     3.7598    -0.0000
  8 C      5.6346     6.0000     0.3654     3.5412     3.5412    -0.0000
  9 H      0.6377     1.0000     0.3623     0.8490     0.8490    -0.0000
 10 H      0.7470     1.0000     0.2530     0.8998     0.8998    -0.0000
 11 H      0.7860     1.0000     0.2140     0.9249     0.9249     0.0000
 12 H      0.7710     1.0000     0.2290     0.9122     0.9122     0.0000
 13 H      0.7831     1.0000     0.2169     0.9134     0.9134    -0.0000
 14 O      8.4855     8.0000    -0.4855     2.0218     2.0218    -0.0000
 15 C      6.3769     6.0000    -0.3769     3.7024     3.7024    -0.0000
 16 H      0.7987     1.0000     0.2013     0.9107     0.9107     0.0000
 17 H      0.8014     1.0000     0.1986     0.9098     0.9098     0.0000
 18 H      0.7789     1.0000     0.2211     0.9147     0.9147    -0.0000
 19 C      6.5325     6.0000    -0.5325     3.6911     3.6911     0.0000
 20 C      6.2961     6.0000    -0.2961     3.7036     3.7036     0.0000
 21 N      7.5968     7.0000    -0.5968     3.0015     3.0015    -0.0000
 22 C      5.5122     6.0000     0.4878     4.0776     4.0776     0.0000
 23 C      6.7788     6.0000    -0.7788     3.6603     3.6603    -0.0000
 24 H      0.7683     1.0000     0.2317     0.9041     0.9041     0.0000
 25 H      0.7692     1.0000     0.2308     0.9062     0.9062     0.0000
 26 H      0.7543     1.0000     0.2457     0.8967     0.8967     0.0000
 27 H      0.7665     1.0000     0.2335     0.9050     0.9050    -0.0000
 28 H      0.6313     1.0000     0.3687     0.8451     0.8451     0.0000
 29 O      8.4195     8.0000    -0.4195     2.1878     2.1878    -0.0000
 30 H      0.7589     1.0000     0.2411     0.9035     0.9035    -0.0000
 31 H      0.7687     1.0000     0.2313     0.9076     0.9076    -0.0000
 32 H      0.7282     1.0000     0.2718     0.9030     0.9030    -0.0000

  Mayer bond orders larger than 0.100000
B(  0-N ,  1-C ) :   1.1366 B(  0-N ,  8-C ) :   1.0156 B(  0-N ,  9-H ) :   0.8313 
B(  1-C ,  2-C ) :   1.5564 B(  1-C , 10-H ) :   0.9055 B(  2-C ,  3-C ) :   1.2394 
B(  2-C , 19-C ) :   0.9593 B(  3-C ,  4-C ) :   1.2400 B(  3-C ,  8-C ) :   1.2434 
B(  4-C ,  5-C ) :   1.4861 B(  4-C , 11-H ) :   0.9302 B(  5-C ,  6-C ) :   1.3173 
B(  5-C , 14-O ) :   0.9533 B(  6-C ,  7-C ) :   1.4848 B(  6-C , 12-H ) :   0.9119 
B(  7-C ,  8-C ) :   1.2895 B(  7-C , 13-H ) :   0.9200 B( 14-O , 15-C ) :   0.9520 
B( 15-C , 16-H ) :   0.9128 B( 15-C , 17-H ) :   0.9116 B( 15-C , 18-H ) :   0.9282 
B( 19-C , 20-C ) :   0.9443 B( 19-C , 24-H ) :   0.9117 B( 19-C , 25-H ) :   0.9239 
B( 20-C , 21-N ) :   0.9748 B( 20-C , 26-H ) :   0.9097 B( 20-C , 27-H ) :   0.9074 
B( 21-N , 22-C ) :   1.1522 B( 21-N , 28-H ) :   0.8126 B( 22-C , 23-C ) :   0.9255 
B( 22-C , 29-O ) :   2.0304 B( 23-C , 30-H ) :   0.9094 B( 23-C , 31-H ) :   0.9086 
B( 23-C , 32-H ) :   0.9158 

-------
TIMINGS
-------

Total SCF time: 0 days 0 hours 4 min 26 sec 

Total time                  ....     266.748 sec
Sum of individual times     ....     259.353 sec  ( 97.2%)

Fock matrix formation       ....     237.068 sec  ( 88.9%)
  Split-RI-J                ....      16.615 sec  (  7.0% of F)
  Chain of spheres X        ....     167.012 sec  ( 70.4% of F)
  XC integration            ....      38.980 sec  ( 16.4% of F)
    Basis function eval.    ....      12.284 sec  ( 31.5% of XC)
    Density eval.           ....       7.025 sec  ( 18.0% of XC)
    XC-Functional eval.     ....       3.035 sec  (  7.8% of XC)
    XC-Potential eval.      ....       3.757 sec  (  9.6% of XC)
Diagonalization             ....       1.367 sec  (  0.5%)
Density matrix formation    ....       0.248 sec  (  0.1%)
Population analysis         ....       0.191 sec  (  0.1%)
Initial guess               ....       0.200 sec  (  0.1%)
Orbital Transformation      ....       0.000 sec  (  0.0%)
Orbital Orthonormalization  ....       0.000 sec  (  0.0%)
DIIS solution               ....       4.755 sec  (  1.8%)
SOSCF solution              ....       1.554 sec  (  0.6%)
Grid generation             ....      13.969 sec  (  5.2%)

Maximum memory used throughout the entire SCF-calculation: 98.4 MB


-------------------------------------------------------------------------------
                          DFT DISPERSION CORRECTION                            
                                                                               
                              DFTD3 V3.1  Rev 1                                
                          USING Becke-Johnson damping                          
-------------------------------------------------------------------------------
The PBEh-3c composite method is recognized
Using three-body term ABC
Active option DFTDOPT                   ...         4   

molecular C6(AA) [au] = 10860.027477 


            DFT-D V3
 parameters
 s6 scaling factor         :     1.0000 
 a1 scaling factor         :     0.4860 
 s8 scaling factor         :     0.0000 
 a2 scaling factor         :     4.5000 
 Damping factor alpha9(ATM):    16.0000 
 ad hoc parameters k1-k3   :    16.0000     1.3333    -4.0000 

 Edisp/kcal,au: -13.583117157689  -0.021646072721 
 E6   /kcal   : -13.655257561 
 E8   /kcal   :  -0.000000000 
 E6(ABC)      :   0.072140403 
 % E8         :   0.000000000 
 % E6(ABC)    :  -0.531103447 

-------------------------   ----------------
Dispersion correction           -0.021646073
-------------------------   ----------------

------------------   -----------------
gCP correction             0.061216821
------------------   -----------------

-------------------------   --------------------
FINAL SINGLE POINT ENERGY      -763.323006829187
-------------------------   --------------------


                            ***************************************
                            *     ORCA property calculations      *
                            ***************************************

                                    ---------------------
                                    Active property flags
                                    ---------------------
   (+) Dipole Moment


------------------------------------------------------------------------------
                       ORCA ELECTRIC PROPERTIES CALCULATION
------------------------------------------------------------------------------

Dipole Moment Calculation                       ... on
Quadrupole Moment Calculation                   ... off
Polarizability Calculation                      ... off
GBWName                                         ... pbeh-3c.gbw
Electron density                                ... pbeh-3c.scfp
The origin for moment calculation is the CENTER OF MASS  = (-0.167999,  0.449871 -0.083968)

-------------
DIPOLE MOMENT
-------------
                                X             Y             Z
Electronic contribution:     -4.15158       8.18088      -0.74931
Nuclear contribution   :      3.59542      -8.12733       0.96478
                        -----------------------------------------
Total Dipole Moment    :     -0.55617       0.05356       0.21547
                        -----------------------------------------
Magnitude (a.u.)       :      0.59885
Magnitude (Debye)      :      1.52215



--------------------
Rotational spectrum 
--------------------
 
Rotational constants in cm-1:     0.029792     0.007773     0.006817 
Rotational constants in MHz :   893.127708   233.035032   204.369159 

 Dipole components along the rotational axes: 
x,y,z [a.u.] :     0.559739     0.056032     0.205350 
x,y,z [Debye]:     1.422744     0.142423     0.521958 

 

Timings for individual modules:

Sum of individual times         ...      269.340 sec (=   4.489 min)
GTO integral calculation        ...        2.268 sec (=   0.038 min)   0.8 %
SCF iterations                  ...      267.073 sec (=   4.451 min)  99.2 %
                             ****ORCA TERMINATED NORMALLY****
TOTAL RUN TIME: 0 days 0 hours 4 minutes 30 seconds 814 msec
