
                                 *****************
                                 * O   R   C   A *
                                 *****************

                                            #,                                       
                                            ###                                      
                                            ####                                     
                                            #####                                    
                                            ######                                   
                                           ########,                                 
                                     ,,################,,,,,                         
                               ,,#################################,,                 
                          ,,##########################################,,             
                       ,#########################################, ''#####,          
                    ,#############################################,,   '####,        
                  ,##################################################,,,,####,       
                ,###########''''           ''''###############################       
              ,#####''   ,,,,##########,,,,          '''####'''          '####       
            ,##' ,,,,###########################,,,                        '##       
           ' ,,###''''                  '''############,,,                           
         ,,##''                                '''############,,,,        ,,,,,,###''
      ,#''                                            '''#######################'''  
     '                                                          ''''####''''         
             ,#######,   #######,   ,#######,      ##                                
            ,#'     '#,  ##    ##  ,#'     '#,    #''#        ######   ,####,        
            ##       ##  ##   ,#'  ##            #'  '#       #        #'  '#        
            ##       ##  #######   ##           ,######,      #####,   #    #        
            '#,     ,#'  ##    ##  '#,     ,#' ,#      #,         ##   #,  ,#        
             '#######'   ##     ##  '#######'  #'      '#     #####' # '####'        



                  #######################################################
                  #                        -***-                        #
                  #          Department of theory and spectroscopy      #
                  #    Directorship and core code : Frank Neese         #
                  #        Max Planck Institute fuer Kohlenforschung    #
                  #                Kaiser Wilhelm Platz 1               #
                  #                 D-45470 Muelheim/Ruhr               #
                  #                      Germany                        #
                  #                                                     #
                  #                  All rights reserved                #
                  #                        -***-                        #
                  #######################################################


                         Program Version 5.0.3 -  RELEASE  -


 With contributions from (in alphabetic order):
   Daniel Aravena         : Magnetic Suceptibility
   Michael Atanasov       : Ab Initio Ligand Field Theory (pilot matlab implementation)
   Alexander A. Auer      : GIAO ZORA, VPT2 properties, NMR spectrum
   Ute Becker             : Parallelization
   Giovanni Bistoni       : ED, misc. LED, open-shell LED, HFLD
   Martin Brehm           : Molecular dynamics
   Dmytro Bykov           : SCF Hessian
   Vijay G. Chilkuri      : MRCI spin determinant printing, contributions to CSF-ICE
   Dipayan Datta          : RHF DLPNO-CCSD density
   Achintya Kumar Dutta   : EOM-CC, STEOM-CC
   Dmitry Ganyushin       : Spin-Orbit,Spin-Spin,Magnetic field MRCI
   Miquel Garcia          : C-PCM and meta-GGA Hessian, CC/C-PCM, Gaussian charge scheme
   Yang Guo               : DLPNO-NEVPT2, F12-NEVPT2, CIM, IAO-localization
   Andreas Hansen         : Spin unrestricted coupled pair/coupled cluster methods
   Benjamin Helmich-Paris : MC-RPA, TRAH-SCF, COSX integrals
   Lee Huntington         : MR-EOM, pCC
   Robert Izsak           : Overlap fitted RIJCOSX, COSX-SCS-MP3, EOM
   Marcus Kettner         : VPT2
   Christian Kollmar      : KDIIS, OOCD, Brueckner-CCSD(T), CCSD density, CASPT2, CASPT2-K
   Simone Kossmann        : Meta GGA functionals, TD-DFT gradient, OOMP2, MP2 Hessian
   Martin Krupicka        : Initial AUTO-CI
   Lucas Lang             : DCDCAS
   Marvin Lechner         : AUTO-CI (C++ implementation), FIC-MRCC
   Dagmar Lenk            : GEPOL surface, SMD
   Dimitrios Liakos       : Extrapolation schemes; Compound Job, initial MDCI parallelization
   Dimitrios Manganas     : Further ROCIS development; embedding schemes
   Dimitrios Pantazis     : SARC Basis sets
   Anastasios Papadopoulos: AUTO-CI, single reference methods and gradients
   Taras Petrenko         : DFT Hessian,TD-DFT gradient, ASA, ECA, R-Raman, ABS, FL, XAS/XES, NRVS
   Peter Pinski           : DLPNO-MP2, DLPNO-MP2 Gradient
   Christoph Reimann      : Effective Core Potentials
   Marius Retegan         : Local ZFS, SOC
   Christoph Riplinger    : Optimizer, TS searches, QM/MM, DLPNO-CCSD(T), (RO)-DLPNO pert. Triples
   Tobias Risthaus        : Range-separated hybrids, TD-DFT gradient, RPA, STAB
   Michael Roemelt        : Original ROCIS implementation
   Masaaki Saitow         : Open-shell DLPNO-CCSD energy and density
   Barbara Sandhoefer     : DKH picture change effects
   Avijit Sen             : IP-ROCIS
   Kantharuban Sivalingam : CASSCF convergence, NEVPT2, FIC-MRCI
   Bernardo de Souza      : ESD, SOC TD-DFT
   Georgi Stoychev        : AutoAux, RI-MP2 NMR, DLPNO-MP2 response
   Willem Van den Heuvel  : Paramagnetic NMR
   Boris Wezisla          : Elementary symmetry handling
   Frank Wennmohs         : Technical directorship


 We gratefully acknowledge several colleagues who have allowed us to
 interface, adapt or use parts of their codes:
   Stefan Grimme, W. Hujo, H. Kruse, P. Pracht,  : VdW corrections, initial TS optimization,
                  C. Bannwarth, S. Ehlert          DFT functionals, gCP, sTDA/sTD-DF
   Ed Valeev, F. Pavosevic, A. Kumar             : LibInt (2-el integral package), F12 methods
   Garnet Chan, S. Sharma, J. Yang, R. Olivares  : DMRG
   Ulf Ekstrom                                   : XCFun DFT Library
   Mihaly Kallay                                 : mrcc  (arbitrary order and MRCC methods)
   Jiri Pittner, Ondrej Demel                    : Mk-CCSD
   Frank Weinhold                                : gennbo (NPA and NBO analysis)
   Christopher J. Cramer and Donald G. Truhlar   : smd solvation model
   Lars Goerigk                                  : TD-DFT with DH, B97 family of functionals
   V. Asgeirsson, H. Jonsson                     : NEB implementation
   FAccTs GmbH                                   : IRC, NEB, NEB-TS, DLPNO-Multilevel, CI-OPT
                                                   MM, QMMM, 2- and 3-layer-ONIOM, Crystal-QMMM,
                                                   LR-CPCM, SF, NACMEs, symmetry and pop. for TD-DFT,
                                                   nearIR, NL-DFT gradient (VV10), updates on ESD,
                                                   ML-optimized integration grids
   S Lehtola, MJT Oliveira, MAL Marques          : LibXC Library
   Liviu Ungur et al                             : ANISO software


 Your calculation uses the libint2 library for the computation of 2-el integrals
 For citations please refer to: http://libint.valeyev.net

 Your ORCA version has been built with support for libXC version: 5.1.0
 For citations please refer to: https://tddft.org/programs/libxc/

 This ORCA versions uses:
   CBLAS   interface :  Fast vector & matrix operations
   LAPACKE interface :  Fast linear algebra routines
   SCALAPACK package :  Parallel linear algebra routines
   Shared memory     :  Shared parallel matrices
   BLAS/LAPACK       :  OpenBLAS 0.3.15  USE64BITINT DYNAMIC_ARCH NO_AFFINITY Haswell SINGLE_THREADED
        Core in use  :  Haswell
   Copyright (c) 2011-2014, The OpenBLAS Project




***************************************
The coordinates will be read from file: 35.xyz
***************************************


Your calculation utilizes the geometrical counterpoise correction gCP
Please cite in your paper:
H.Kruse, S. Grimme J.Chem.Phys., 136, (2012), 154101 
   

Your calculation utilizes the atom-pairwise dispersion correction
with the Becke-Johnson damping scheme (D3BJ)
Cite in your paper:
S.Grimme, S.Ehrlich, L.Goerigk, J Comput Chem, (2011), 32, 1456–1465 
S.Grimme, J.Antony, S.Ehrlich and H.Krieg, J.Chem.Phys., 132, (2010), 154104 
   

Your calculation employs the composite approach PBEh-3c.
Please cite in your paper:
S. Grimme, J. G. Brandenburg, C. Bannwarth, A. Hansen J.Chem.Phys., 143, (2015), 054107 
   

================================================================================

----- Orbital basis set information -----
Your calculation utilizes the basis: def2-mSVP

----- AuxJ basis set information -----
Your calculation utilizes the auxiliary basis: def2/J
   F. Weigend, Phys. Chem. Chem. Phys. 8, 1057 (2006).

================================================================================
                                        WARNINGS
                       Please study these warnings very carefully!
================================================================================


INFO   : the flag for use of the SHARK integral package has been found!

================================================================================
                                       INPUT FILE
================================================================================
NAME = pbeh-3c.inp
|  1> ! PBEh-3c def2/J TightSCF DefGrid3
|  2> 
|  3> %maxcore 60000
|  4> 
|  5> %pal
|  6> nprocs 4
|  7> end
|  8> 
|  9> *xyzfile 0 1 35.xyz
| 10> 
| 11>                          ****END OF INPUT****
================================================================================

                       ****************************
                       * Single Point Calculation *
                       ****************************

---------------------------------
CARTESIAN COORDINATES (ANGSTROEM)
---------------------------------
  C     -2.530170   -0.400866   -2.291208
  H     -2.559673   -0.966081   -3.222670
  H     -2.553823   -1.117156   -1.469856
  H     -3.436000    0.200853   -2.235743
  C     -1.275944    0.460344   -2.222489
  H     -1.277871    1.041927   -1.297429
  H     -1.280126    1.185264   -3.039672
  C      0.002418   -0.364007   -2.293522
  H      0.008042   -1.094704   -1.478683
  H      0.006462   -0.943814   -3.221335
  C      1.268547    0.479105   -2.223145
  H      1.262233    1.060959   -1.298268
  H      1.261848    1.203766   -3.040549
  C      2.535179   -0.363716   -2.291828
  H      2.572653   -0.929008   -3.222966
  H      3.432194    0.251124   -2.236937
  H      2.569421   -1.079101   -1.470058
  C     -0.000308    0.080680    2.268792
  C      0.000764   -0.059451    3.788525
  H     -0.886272    0.404625    4.221894
  H      0.010015   -1.110231    4.081535
  H      0.879424    0.420214    4.222168
  C     -1.239763   -0.600972    1.694893
  H     -1.263063   -0.512015    0.608064
  H     -1.251849   -1.662248    1.947906
  H     -2.150707   -0.148681    2.089978
  C      1.252297   -0.576861    1.695321
  H      1.273624   -0.488575    0.608351
  H      1.285427   -1.637421    1.949414
  H      2.154109   -0.106217    2.089743
  C     -0.014556    1.560472    1.894170
  H      0.863210    2.071060    2.293126
  H     -0.015080    1.686927    0.810519
  H     -0.902662    2.053806    2.291959

----------------------------
CARTESIAN COORDINATES (A.U.)
----------------------------
  NO LB      ZA    FRAG     MASS         X           Y           Z
   0 C     6.0000    0    12.011   -4.781328   -0.757528   -4.329755
   1 H     1.0000    0     1.008   -4.837080   -1.825629   -6.089964
   2 H     1.0000    0     1.008   -4.826026   -2.111119   -2.777626
   3 H     1.0000    0     1.008   -6.493099    0.379556   -4.224942
   4 C     6.0000    0    12.011   -2.411184    0.869924   -4.199896
   5 H     1.0000    0     1.008   -2.414825    1.968956   -2.451785
   6 H     1.0000    0     1.008   -2.419087    2.239825   -5.744148
   7 C     6.0000    0    12.011    0.004569   -0.687874   -4.334128
   8 H     1.0000    0     1.008    0.015197   -2.068691   -2.794306
   9 H     1.0000    0     1.008    0.012211   -1.783550   -6.087440
  10 C     6.0000    0    12.011    2.397205    0.905377   -4.201135
  11 H     1.0000    0     1.008    2.385274    2.004922   -2.453371
  12 H     1.0000    0     1.008    2.384547    2.274788   -5.745804
  13 C     6.0000    0    12.011    4.790794   -0.687323   -4.330927
  14 H     1.0000    0     1.008    4.861610   -1.755570   -6.090523
  15 H     1.0000    0     1.008    6.485907    0.474555   -4.227197
  16 H     1.0000    0     1.008    4.855501   -2.039206   -2.778007
  17 C     6.0000    0    12.011   -0.000582    0.152463    4.287395
  18 C     6.0000    0    12.011    0.001443   -0.112346    7.159274
  19 H     1.0000    0     1.008   -1.674812    0.764630    7.978223
  20 H     1.0000    0     1.008    0.018926   -2.098033    7.712982
  21 H     1.0000    0     1.008    1.661870    0.794089    7.978741
  22 C     6.0000    0    12.011   -2.342813   -1.135672    3.202884
  23 H     1.0000    0     1.008   -2.386842   -0.967568    1.149075
  24 H     1.0000    0     1.008   -2.365652   -3.141194    3.681010
  25 H     1.0000    0     1.008   -4.064247   -0.280966    3.949487
  26 C     6.0000    0    12.011    2.366498   -1.090109    3.203693
  27 H     1.0000    0     1.008    2.406800   -0.923273    1.149616
  28 H     1.0000    0     1.008    2.429106   -3.094278    3.683858
  29 H     1.0000    0     1.008    4.070676   -0.200722    3.949041
  30 C     6.0000    0    12.011   -0.027507    2.948866    3.579463
  31 H     1.0000    0     1.008    1.631230    3.913735    4.333379
  32 H     1.0000    0     1.008   -0.028497    3.187831    1.531659
  33 H     1.0000    0     1.008   -1.705784    3.881131    4.331174

--------------------------------
INTERNAL COORDINATES (ANGSTROEM)
--------------------------------
 C      0   0   0     0.000000000000     0.00000000     0.00000000
 H      1   0   0     1.089935945764     0.00000000     0.00000000
 H      1   2   0     1.090068004036   107.61294861     0.00000000
 H      1   2   3     1.088885350408   107.91337122   243.84612799
 C      1   2   3     1.522986567951   110.73791494   121.26302288
 H      5   1   2     1.092693688356   109.73793493   178.29674924
 H      5   1   2     1.092389692693   109.77627057    61.85826562
 C      5   1   2     1.522763282210   112.52764956   300.12353638
 H      8   5   1     1.094491383797   109.32944775   302.35865862
 H      8   5   1     1.094088156570   109.24131079    58.07676860
 C      8   5   1     1.522784704333   113.33614955   180.12999780
 H     11   8   5     1.092699337670   109.21632649    57.72543944
 H     11   8   5     1.092394979662   109.12340274   301.95428039
 C     11   8   5     1.522965131972   112.52123637   179.84151858
 H     14  11   8     1.089943705471   110.74094331    59.86511547
 H     14  11   8     1.088887610350   111.73918215   180.20249003
 H     14  11   8     1.090070658613   110.81271475   300.51947034
 C      6   5   1     3.908208047563   129.86799673    86.41378439
 C     18   6   5     1.526180086798   158.66246599   225.12072209
 H     19  18   6     1.090875078058   110.85213414   356.79065869
 H     19  18   6     1.090907516844   110.84891320   116.78998428
 H     19  18   6     1.090948228837   110.85523612   236.78753189
 C     18   6   5     1.526518303268    60.08957417   290.67308790
 H     23  18   6     1.090712488889   110.82649602    20.47228262
 H     23  18   6     1.091086214953   110.86418504   140.47982352
 H     23  18   6     1.091090317466   110.89477184   260.51961923
 C     18   6   5     1.526514737290    91.79830562    42.13750402
 H     27  18   6     1.090758872076   110.82702039     1.17965037
 H     27  18   6     1.091077331848   110.86257895   241.17312594
 H     27  18   6     1.091026246201   110.89348319   121.13278841
 C     18   6   5     1.526541734826    62.26352109   153.23343122
 H     31  18   6     1.091025850812   110.87987581   218.47302517
 H     31  18   6     1.091004998477   110.86166646   338.45271053
 H     31  18   6     1.091029642691   110.88222294    98.43332779

---------------------------
INTERNAL COORDINATES (A.U.)
---------------------------
 C      0   0   0     0.000000000000     0.00000000     0.00000000
 H      1   0   0     2.059680441011     0.00000000     0.00000000
 H      1   2   0     2.059929994979   107.61294861     0.00000000
 H      1   2   3     2.057695103510   107.91337122   243.84612799
 C      1   2   3     2.878027519068   110.73791494   121.26302288
 H      5   1   2     2.064891819258   109.73793493   178.29674924
 H      5   1   2     2.064317350708   109.77627057    61.85826562
 C      5   1   2     2.877605570168   112.52764956   300.12353638
 H      8   5   1     2.068288971313   109.32944775   302.35865862
 H      8   5   1     2.067526982284   109.24131079    58.07676860
 C      8   5   1     2.877646052113   113.33614955   180.12999780
 H     11   8   5     2.064902494914   109.21632649    57.72543944
 H     11   8   5     2.064327341632   109.12340274   301.95428039
 C     11   8   5     2.877987010938   112.52123637   179.84151858
 H     14  11   8     2.059695104731   110.74094331    59.86511547
 H     14  11   8     2.057699374181   111.73918215   180.20249003
 H     14  11   8     2.059935011401   110.81271475   300.51947034
 C      6   5   1     7.385442884280   129.86799673    86.41378439
 C     18   6   5     2.884062395092   158.66246599   225.12072209
 H     19  18   6     2.061455143850   110.85213414   356.79065869
 H     19  18   6     2.061516444271   110.84891320   116.78998428
 H     19  18   6     2.061593378789   110.85523612   236.78753189
 C     18   6   5     2.884701531595    60.08957417   290.67308790
 H     23  18   6     2.061147894848   110.82649602    20.47228262
 H     23  18   6     2.061854134758   110.86418504   140.47982352
 H     23  18   6     2.061861887383   110.89477184   260.51961923
 C     18   6   5     2.884694792873    91.79830562    42.13750402
 H     27  18   6     2.061235546368   110.82702039     1.17965037
 H     27  18   6     2.061837348122   110.86257895   241.17312594
 H     27  18   6     2.061740810241   110.89348319   121.13278841
 C     18   6   5     2.884745810822    62.26352109   153.23343122
 H     31  18   6     2.061740063064   110.87987581   218.47302517
 H     31  18   6     2.061700657861   110.86166646   338.45271053
 H     31  18   6     2.061747228675   110.88222294    98.43332779

---------------------
BASIS SET INFORMATION
---------------------
There are 2 groups of distinct atoms

 Group   1 Type C   : 8s4p1d contracted to 4s2p1d pattern {5111/31/1}
 Group   2 Type H   : 4s contracted to 2s pattern {31}

Atom   0C    basis set group =>   1
Atom   1H    basis set group =>   2
Atom   2H    basis set group =>   2
Atom   3H    basis set group =>   2
Atom   4C    basis set group =>   1
Atom   5H    basis set group =>   2
Atom   6H    basis set group =>   2
Atom   7C    basis set group =>   1
Atom   8H    basis set group =>   2
Atom   9H    basis set group =>   2
Atom  10C    basis set group =>   1
Atom  11H    basis set group =>   2
Atom  12H    basis set group =>   2
Atom  13C    basis set group =>   1
Atom  14H    basis set group =>   2
Atom  15H    basis set group =>   2
Atom  16H    basis set group =>   2
Atom  17C    basis set group =>   1
Atom  18C    basis set group =>   1
Atom  19H    basis set group =>   2
Atom  20H    basis set group =>   2
Atom  21H    basis set group =>   2
Atom  22C    basis set group =>   1
Atom  23H    basis set group =>   2
Atom  24H    basis set group =>   2
Atom  25H    basis set group =>   2
Atom  26C    basis set group =>   1
Atom  27H    basis set group =>   2
Atom  28H    basis set group =>   2
Atom  29H    basis set group =>   2
Atom  30C    basis set group =>   1
Atom  31H    basis set group =>   2
Atom  32H    basis set group =>   2
Atom  33H    basis set group =>   2
---------------------------------
AUXILIARY/J BASIS SET INFORMATION
---------------------------------
There are 2 groups of distinct atoms

 Group   1 Type C   : 12s5p4d2f1g contracted to 6s4p3d1f1g pattern {711111/2111/211/2/1}
 Group   2 Type H   : 5s2p1d contracted to 3s1p1d pattern {311/2/1}

Atom   0C    basis set group =>   1
Atom   1H    basis set group =>   2
Atom   2H    basis set group =>   2
Atom   3H    basis set group =>   2
Atom   4C    basis set group =>   1
Atom   5H    basis set group =>   2
Atom   6H    basis set group =>   2
Atom   7C    basis set group =>   1
Atom   8H    basis set group =>   2
Atom   9H    basis set group =>   2
Atom  10C    basis set group =>   1
Atom  11H    basis set group =>   2
Atom  12H    basis set group =>   2
Atom  13C    basis set group =>   1
Atom  14H    basis set group =>   2
Atom  15H    basis set group =>   2
Atom  16H    basis set group =>   2
Atom  17C    basis set group =>   1
Atom  18C    basis set group =>   1
Atom  19H    basis set group =>   2
Atom  20H    basis set group =>   2
Atom  21H    basis set group =>   2
Atom  22C    basis set group =>   1
Atom  23H    basis set group =>   2
Atom  24H    basis set group =>   2
Atom  25H    basis set group =>   2
Atom  26C    basis set group =>   1
Atom  27H    basis set group =>   2
Atom  28H    basis set group =>   2
Atom  29H    basis set group =>   2
Atom  30C    basis set group =>   1
Atom  31H    basis set group =>   2
Atom  32H    basis set group =>   2
Atom  33H    basis set group =>   2


           ************************************************************
           *        Program running with 4 parallel MPI-processes     *
           *              working on a common directory               *
           ************************************************************
------------------------------------------------------------------------------
                           ORCA GTO INTEGRAL CALCULATION
                           -- RI-GTO INTEGRALS CHOSEN --
------------------------------------------------------------------------------
------------------------------------------------------------------------------
                   ___                                                        
                  /   \      - P O W E R E D   B Y -                         
                 /     \                                                     
                 |  |  |   _    _      __       _____    __    __             
                 |  |  |  | |  | |    /  \     |  _  \  |  |  /  |          
                  \  \/   | |  | |   /    \    | | | |  |  | /  /          
                 / \  \   | |__| |  /  /\  \   | |_| |  |  |/  /          
                |  |  |   |  __  | /  /__\  \  |    /   |      \           
                |  |  |   | |  | | |   __   |  |    \   |  |\   \          
                \     /   | |  | | |  |  |  |  | |\  \  |  | \   \       
                 \___/    |_|  |_| |__|  |__|  |_| \__\ |__|  \__/        
                                                                              
                      - O R C A' S   B I G   F R I E N D -                    
                                      &                                       
                       - I N T E G R A L  F E E D E R -                       
                                                                              
 v1 FN, 2020, v2 2021                                                         
------------------------------------------------------------------------------


Reading SHARK input file pbeh-3c.SHARKINP.tmp ... ok
----------------------
SHARK INTEGRAL PACKAGE
----------------------

Number of atoms                             ...     34
Number of basis functions                   ...    198
Number of shells                            ...    118
Maximum angular momentum                    ...      2
Integral batch strategy                     ... SHARK/LIBINT Hybrid
RI-J (if used) integral strategy            ... SPLIT-RIJ (Revised 2003 algorithm where possible)
Printlevel                                  ...      1
Contraction scheme used                     ... SEGMENTED contraction
Coulomb Range Separation                    ... NOT USED
Exchange Range Separation                   ... NOT USED
Finite Nucleus Model                        ... NOT USED
Auxiliary Coulomb fitting basis             ... AVAILABLE
   # of basis functions in Aux-J            ...    754
   # of shells in Aux-J                     ...    270
   Maximum angular momentum in Aux-J        ...      4
Auxiliary J/K fitting basis                 ... NOT available
Auxiliary Correlation fitting basis         ... NOT available
Auxiliary 'external' fitting basis          ... NOT available
Integral threshold                          ...     2.500000e-11
Primitive cut-off                           ...     2.500000e-12
Primitive pair pre-selection threshold      ...     2.500000e-12

Calculating pre-screening integrals         ... done (  0.1 sec) Dimension = 118
Organizing shell pair data                  ... done (  0.3 sec)
Shell pair information
Total number of shell pairs                 ...      7021
Shell pairs after pre-screening             ...      5748
Total number of primitive shell pairs       ...     25853
Primitive shell pairs kept                  ...     13979
          la=0 lb=0:   3087 shell pairs
          la=1 lb=0:   1575 shell pairs
          la=1 lb=1:    204 shell pairs
          la=2 lb=0:    661 shell pairs
          la=2 lb=1:    178 shell pairs
          la=2 lb=2:     43 shell pairs

Calculating one electron integrals          ... done (  0.0 sec)
Calculating RI/J V-Matrix + Cholesky decomp.... done (  0.4 sec)
Calculating Nuclear repulsion               ... done (  0.1 sec) ENN=    574.131459210707 Eh

SHARK setup successfully completed in   1.6 seconds

Maximum memory used throughout the entire GTOINT-calculation: 14.1 MB


           ************************************************************
           *        Program running with 4 parallel MPI-processes     *
           *              working on a common directory               *
           ************************************************************
-------------------------------------------------------------------------------
                                 ORCA SCF
-------------------------------------------------------------------------------

------------
SCF SETTINGS
------------
Hamiltonian:
 Density Functional     Method          .... DFT(GTOs)
 Exchange Functional    Exchange        .... PBE
   PBE kappa parameter   XKappa         ....  1.024500
   PBE mue parameter    XMuePBE         ....  0.123457
 Correlation Functional Correlation     .... PBE
   PBE beta parameter  CBetaPBE         ....  0.030000
 LDA part of GGA corr.  LDAOpt          .... PW91-LDA
 Gradients option       PostSCFGGA      .... off
 Hybrid DFT is turned on
   Fraction HF Exchange ScalHFX         ....  0.420000
   Scaling of DF-GGA-X  ScalDFX         ....  0.580000
   Scaling of DF-GGA-C  ScalDFC         ....  1.000000
   Scaling of DF-LDA-C  ScalLDAC        ....  1.000000
   Perturbative correction              ....  0.000000
   Density functional embedding theory  .... OFF
 RI-approximation to the Coulomb term is turned on
   Number of AuxJ basis functions       .... 754
   RIJ-ON(X) (HFX calculated with O(N)) .... on
   Number of AuxJ basis functions       .... 754
   RIJ-COSX (HFX calculated with COS-X)).... on


General Settings:
 Integral files         IntName         .... pbeh-3c
 Hartree-Fock type      HFTyp           .... RHF
 Total Charge           Charge          ....    0
 Multiplicity           Mult            ....    1
 Number of Electrons    NEL             ....   84
 Basis Dimension        Dim             ....  198
 Nuclear Repulsion      ENuc            ....    574.1314592107 Eh

Convergence Acceleration:
 DIIS                   CNVDIIS         .... on
   Start iteration      DIISMaxIt       ....    12
   Startup error        DIISStart       ....  0.200000
   # of expansion vecs  DIISMaxEq       ....     5
   Bias factor          DIISBfac        ....   1.050
   Max. coefficient     DIISMaxC        ....  10.000
 Trust-Rad. Augm. Hess. CNVTRAH         .... auto
   Auto Start mean grad. ratio tolernc. ....  1.125000
   Auto Start start iteration           ....    20
   Auto Start num. interpolation iter.  ....    10
   Max. Number of Micro iterations      ....    16
   Max. Number of Macro iterations      .... Maxiter - #DIIS iter
   Number of Davidson start vectors     ....     2
   Converg. threshold I  (grad. norm)   ....   1.000e-05
   Converg. threshold II (energy diff.) ....   1.000e-08
   Grad. Scal. Fac. for Micro threshold ....   0.100
   Minimum threshold for Micro iter.    ....   0.010
   NR start threshold (gradient norm)   ....   0.001
   Initial trust radius                 ....   0.400
   Minimum AH scaling param. (alpha)    ....   1.000
   Maximum AH scaling param. (alpha)    .... 1000.000
   Orbital update algorithm             .... Taylor
   White noise on init. David. guess    .... on
   Maximum white noise                  ....   0.010
   Quad. conv. algorithm                .... NR
   COSX micro iterations for RIJONX calc.... off
 SOSCF                  CNVSOSCF        .... on
   Start iteration      SOSCFMaxIt      ....   150
   Startup grad/error   SOSCFStart      ....  0.003300
 Level Shifting         CNVShift        .... on
   Level shift para.    LevelShift      ....    0.2500
   Turn off err/grad.   ShiftErr        ....    0.0010
 Zerner damping         CNVZerner       .... off
 Static damping         CNVDamp         .... on
   Fraction old density DampFac         ....    0.7000
   Max. Damping (<1)    DampMax         ....    0.9800
   Min. Damping (>=0)   DampMin         ....    0.0000
   Turn off err/grad.   DampErr         ....    0.1000
 Fernandez-Rico         CNVRico         .... off

SCF Procedure:
 Maximum # iterations   MaxIter         ....   125
 SCF integral mode      SCFMode         .... Direct
   Integral package                     .... SHARK and LIBINT hybrid scheme
 Reset frequency        DirectResetFreq ....    20
 Integral Threshold     Thresh          ....  2.500e-11 Eh
 Primitive CutOff       TCut            ....  2.500e-12 Eh

Convergence Tolerance:
 Convergence Check Mode ConvCheckMode   .... Total+1el-Energy
 Convergence forced     ConvForced      .... 0
 Energy Change          TolE            ....  1.000e-08 Eh
 1-El. energy change                    ....  1.000e-05 Eh
 Orbital Gradient       TolG            ....  1.000e-05
 Orbital Rotation angle TolX            ....  1.000e-05
 DIIS Error             TolErr          ....  5.000e-07


Diagonalization of the overlap matrix:
Smallest eigenvalue                        ... 5.064e-03
Time for diagonalization                   ...    0.007 sec
Threshold for overlap eigenvalues          ... 1.000e-08
Number of eigenvalues below threshold      ... 0
Time for construction of square roots      ...    0.055 sec
Total time needed                          ...    0.062 sec

--------------------------------
INITIAL GUESS: MINIMAL BASIS EHT
--------------------------------
The minimal basis has 74 functions
EHT matrix was diagonalized
Basis set overlap was calculated now projecting the orbitals
Using GuessMode=FMatrix for the initial guess
C*T matrix was formed
Effective Fockian was calculated
Effective Fockian was diagonalized
Initial density was built
                      ------------------
                      INITIAL GUESS DONE
                      ------------------
-------------------
DFT GRID GENERATION
-------------------

General Integration Accuracy     IntAcc      ... 4.959
Radial Grid Type                 RadialGrid  ... OptM3 with GC (2021)
Angular Grid (max. ang.)         AngularGrid ... 6 (Lebedev-590)
Angular grid pruning method      GridPruning ... 4 (adaptive)
Weight generation scheme         WeightScheme... Becke
Basis function cutoff            BFCut       ... 1.0000e-11
Integration weight cutoff        WCut        ... 1.0000e-14
Angular grids for H and He will be reduced by one unit
Partially contracted basis set               ... off
Rotationally invariant grid construction     ... off

Total number of grid points                  ...   346180
Total number of batches                      ...     5426
Average number of points per batch           ...       63
Average number of grid points per atom       ...    10182
Time for grid setup =    6.251 sec

--------------------
COSX GRID GENERATION
--------------------

GRIDX 1
-------
General Integration Accuracy     IntAcc      ... 4.020
Radial Grid Type                 RadialGrid  ... OptM3 with GC (2021)
Angular Grid (max. ang.)         AngularGrid ... 2 (Lebedev-110)
Angular grid pruning method      GridPruning ... 4 (adaptive)
Weight generation scheme         WeightScheme... Becke
Basis function cutoff            BFCut       ... 1.0000e-11
Integration weight cutoff        WCut        ... 1.0000e-14
Angular grids for H and He will be reduced by one unit
Partially contracted basis set               ... on
Rotationally invariant grid construction     ... off

Total number of grid points                  ...    35276
Total number of batches                      ...      571
Average number of points per batch           ...       61
Average number of grid points per atom       ...     1038
UseSFitting                                  ... on

GRIDX 2
-------
General Integration Accuracy     IntAcc      ... 4.338
Radial Grid Type                 RadialGrid  ... OptM3 with GC (2021)
Angular Grid (max. ang.)         AngularGrid ... 3 (Lebedev-194)
Angular grid pruning method      GridPruning ... 4 (adaptive)
Weight generation scheme         WeightScheme... Becke
Basis function cutoff            BFCut       ... 1.0000e-11
Integration weight cutoff        WCut        ... 1.0000e-14
Angular grids for H and He will be reduced by one unit
Partially contracted basis set               ... on
Rotationally invariant grid construction     ... off

Total number of grid points                  ...    76453
Total number of batches                      ...     1211
Average number of points per batch           ...       63
Average number of grid points per atom       ...     2249
UseSFitting                                  ... on

GRIDX 3
-------
General Integration Accuracy     IntAcc      ... 4.871
Radial Grid Type                 RadialGrid  ... OptM3 with GC (2021)
Angular Grid (max. ang.)         AngularGrid ... 4 (Lebedev-302)
Angular grid pruning method      GridPruning ... 4 (adaptive)
Weight generation scheme         WeightScheme... Becke
Basis function cutoff            BFCut       ... 1.0000e-11
Integration weight cutoff        WCut        ... 1.0000e-14
Angular grids for H and He will be reduced by one unit
Partially contracted basis set               ... on
Rotationally invariant grid construction     ... off

Total number of grid points                  ...   153240
Total number of batches                      ...     2412
Average number of points per batch           ...       63
Average number of grid points per atom       ...     4507
UseSFitting                                  ... on

Time for X-Grid setup             =    5.600 sec

--------------
SCF ITERATIONS
--------------
ITER       Energy         Delta-E        Max-DP      RMS-DP      [F,P]     Damp
               ***  Starting incremental Fock matrix formation  ***
  0   -393.9581175193   0.000000000000 0.06855064  0.00164890  0.4046222 0.7000
  1   -394.1760070257  -0.217889506396 0.05019264  0.00126277  0.2866029 0.7000
  2   -394.3316705107  -0.155663485023 0.03816638  0.00094496  0.2020585 0.7000
                               ***Turning on DIIS***
  3   -394.4419355781  -0.110265067413 0.02918295  0.00070157  0.1423474 0.7000
  4   -394.5198654516  -0.077929873479 0.02402010  0.00054610  0.1001959 0.7000
  5   -394.5748373945  -0.054971942904 0.06022030  0.00136709  0.0702128 0.0000
                      *** Initiating the SOSCF procedure ***
                           *** Shutting down DIIS ***
                      *** Re-Reading the Fockian *** 
                      *** Removing any level shift *** 
ITER      Energy       Delta-E        Grad      Rot      Max-DP    RMS-DP
  6   -394.70465170  -0.1298143081  0.000539  0.000539  0.001955  0.000087
               *** Restarting incremental Fock matrix formation ***
  7   -394.70467894  -0.0000272393  0.000133  0.000274  0.000619  0.000021
  8   -394.70467944  -0.0000005018  0.000111  0.000083  0.000174  0.000007
  9   -394.70468031  -0.0000008614  0.000011  0.000011  0.000040  0.000001
 10   -394.70468030   0.0000000023  0.000011  0.000005  0.000019  0.000000
                 **** Energy Check signals convergence ****
              ***Rediagonalizing the Fockian in SOSCF/NRSCF***

               *****************************************************
               *                     SUCCESS                       *
               *           SCF CONVERGED AFTER  11 CYCLES          *
               *****************************************************

Old exchange energy                            =    -25.371868517 Eh
New exchange energy                            =    -25.371864475 Eh
Exchange energy change after final integration =      0.000004042 Eh
Total energy after final integration           =   -394.704676263 Eh
Final COS-X integration done in                =    12.026 sec

----------------
TOTAL SCF ENERGY
----------------

Total Energy       :         -394.70467626 Eh          -10740.46028 eV

Components:
Nuclear Repulsion  :          574.13145921 Eh           15622.91126 eV
Electronic Energy  :         -968.83613547 Eh          -26363.37153 eV
One Electron Energy:        -1668.73332546 Eh          -45408.54231 eV
Two Electron Energy:          699.89718999 Eh           19045.17078 eV
Max COSX asymmetry :            0.00000120 Eh               0.00003 eV

Virial components:
Potential Energy   :         -786.07424181 Eh          -21390.16757 eV
Kinetic Energy     :          391.36956554 Eh           10649.70730 eV
Virial Ratio       :            2.00852164


DFT components:
N(Alpha)           :       41.999970780365 electrons
N(Beta)            :       41.999970780365 electrons
N(Total)           :       83.999941560730 electrons
E(X)               :      -33.589768414748 Eh       
E(C)               :       -3.532267622652 Eh       
E(XC)              :      -37.122036037400 Eh       
DFET-embed. en.    :        0.000000000000 Eh       

---------------
SCF CONVERGENCE
---------------

  Last Energy change         ...   -2.4669e-09  Tolerance :   1.0000e-08
  Last MAX-Density change    ...    1.1102e-15  Tolerance :   1.0000e-07
  Last RMS-Density change    ...    2.8393e-17  Tolerance :   5.0000e-09
  Last Orbital Gradient      ...    2.0619e-07  Tolerance :   1.0000e-05
  Last Orbital Rotation      ...    2.1082e-07  Tolerance :   1.0000e-05

             **** THE GBW FILE WAS UPDATED (pbeh-3c.gbw) ****
             **** DENSITY pbeh-3c.scfp WAS UPDATED ****
             **** ENERGY FILE WAS UPDATED (pbeh-3c.en.tmp) ****
             **** THE GBW FILE WAS UPDATED (pbeh-3c.gbw) ****
             **** DENSITY pbeh-3c.scfp WAS UPDATED ****
----------------
ORBITAL ENERGIES
----------------

  NO   OCC          E(Eh)            E(eV) 
   0   2.0000     -10.446690      -284.2689 
   1   2.0000     -10.427816      -283.7553 
   2   2.0000     -10.427798      -283.7548 
   3   2.0000     -10.425825      -283.7011 
   4   2.0000     -10.419254      -283.5223 
   5   2.0000     -10.419243      -283.5220 
   6   2.0000     -10.418259      -283.4952 
   7   2.0000     -10.417919      -283.4860 
   8   2.0000     -10.417871      -283.4847 
   9   2.0000     -10.417754      -283.4815 
  10   2.0000      -0.914865       -24.8948 
  11   2.0000      -0.894217       -24.3329 
  12   2.0000      -0.837792       -22.7975 
  13   2.0000      -0.762982       -20.7618 
  14   2.0000      -0.762863       -20.7586 
  15   2.0000      -0.762778       -20.7562 
  16   2.0000      -0.755201       -20.5501 
  17   2.0000      -0.671288       -18.2667 
  18   2.0000      -0.645297       -17.5594 
  19   2.0000      -0.597780       -16.2664 
  20   2.0000      -0.539510       -14.6808 
  21   2.0000      -0.506608       -13.7855 
  22   2.0000      -0.505879       -13.7657 
  23   2.0000      -0.503971       -13.7138 
  24   2.0000      -0.495705       -13.4888 
  25   2.0000      -0.489905       -13.3310 
  26   2.0000      -0.458590       -12.4789 
  27   2.0000      -0.453135       -12.3304 
  28   2.0000      -0.452244       -12.3062 
  29   2.0000      -0.447596       -12.1797 
  30   2.0000      -0.428632       -11.6637 
  31   2.0000      -0.412257       -11.2181 
  32   2.0000      -0.411825       -11.2063 
  33   2.0000      -0.411730       -11.2037 
  34   2.0000      -0.402403       -10.9499 
  35   2.0000      -0.383066       -10.4238 
  36   2.0000      -0.376734       -10.2515 
  37   2.0000      -0.367865       -10.0101 
  38   2.0000      -0.365410        -9.9433 
  39   2.0000      -0.364556        -9.9201 
  40   2.0000      -0.362262        -9.8577 
  41   2.0000      -0.362161        -9.8549 
  42   0.0000       0.090547         2.4639 
  43   0.0000       0.138057         3.7567 
  44   0.0000       0.141554         3.8519 
  45   0.0000       0.154295         4.1986 
  46   0.0000       0.175512         4.7759 
  47   0.0000       0.186089         5.0637 
  48   0.0000       0.186899         5.0858 
  49   0.0000       0.197058         5.3622 
  50   0.0000       0.201326         5.4784 
  51   0.0000       0.204130         5.5547 
  52   0.0000       0.208444         5.6720 
  53   0.0000       0.215983         5.8772 
  54   0.0000       0.220679         6.0050 
  55   0.0000       0.222532         6.0554 
  56   0.0000       0.223492         6.0815 
  57   0.0000       0.226433         6.1616 
  58   0.0000       0.226893         6.1741 
  59   0.0000       0.239683         6.5221 
  60   0.0000       0.240462         6.5433 
  61   0.0000       0.243995         6.6394 
  62   0.0000       0.253636         6.9018 
  63   0.0000       0.257490         7.0067 
  64   0.0000       0.260160         7.0793 
  65   0.0000       0.270135         7.3507 
  66   0.0000       0.272479         7.4145 
  67   0.0000       0.284871         7.7517 
  68   0.0000       0.287582         7.8255 
  69   0.0000       0.303986         8.2719 
  70   0.0000       0.307474         8.3668 
  71   0.0000       0.313840         8.5400 
  72   0.0000       0.319933         8.7058 
  73   0.0000       0.337474         9.1831 
  74   0.0000       0.478443        13.0191 
  75   0.0000       0.492002        13.3881 
  76   0.0000       0.505253        13.7486 
  77   0.0000       0.516221        14.0471 
  78   0.0000       0.523442        14.2436 
  79   0.0000       0.525094        14.2885 
  80   0.0000       0.536035        14.5863 
  81   0.0000       0.543519        14.7899 
  82   0.0000       0.562387        15.3033 
  83   0.0000       0.564841        15.3701 
  84   0.0000       0.587924        15.9982 
  85   0.0000       0.592328        16.1181 
  86   0.0000       0.598668        16.2906 
  87   0.0000       0.611739        16.6463 
  88   0.0000       0.640251        17.4221 
  89   0.0000       0.653701        17.7881 
  90   0.0000       0.669921        18.2295 
  91   0.0000       0.672992        18.3131 
  92   0.0000       0.700076        19.0500 
  93   0.0000       0.714104        19.4317 
  94   0.0000       0.730350        19.8738 
  95   0.0000       0.760214        20.6865 
  96   0.0000       0.764440        20.8015 
  97   0.0000       0.764859        20.8129 
  98   0.0000       0.782241        21.2859 
  99   0.0000       0.795347        21.6425 
 100   0.0000       0.797370        21.6975 
 101   0.0000       0.803381        21.8611 
 102   0.0000       0.842874        22.9358 
 103   0.0000       0.898269        24.4432 
 104   0.0000       0.949188        25.8287 
 105   0.0000       0.968077        26.3427 
 106   0.0000       0.981236        26.7008 
 107   0.0000       1.020097        27.7583 
 108   0.0000       1.030362        28.0376 
 109   0.0000       1.034216        28.1424 
 110   0.0000       1.035636        28.1811 
 111   0.0000       1.041042        28.3282 
 112   0.0000       1.041625        28.3441 
 113   0.0000       1.044316        28.4173 
 114   0.0000       1.044571        28.4242 
 115   0.0000       1.048186        28.5226 
 116   0.0000       1.064040        28.9540 
 117   0.0000       1.069674        29.1073 
 118   0.0000       1.070366        29.1261 
 119   0.0000       1.076488        29.2927 
 120   0.0000       1.086943        29.5772 
 121   0.0000       1.094535        29.7838 
 122   0.0000       1.099341        29.9146 
 123   0.0000       1.100765        29.9533 
 124   0.0000       1.114524        30.3277 
 125   0.0000       1.127746        30.6875 
 126   0.0000       1.133152        30.8346 
 127   0.0000       1.261201        34.3190 
 128   0.0000       1.287585        35.0370 
 129   0.0000       1.339409        36.4472 
 130   0.0000       1.355248        36.8782 
 131   0.0000       1.408453        38.3260 
 132   0.0000       1.459630        39.7186 
 133   0.0000       1.462495        39.7965 
 134   0.0000       1.464849        39.8606 
 135   0.0000       1.478256        40.2254 
 136   0.0000       1.478827        40.2409 
 137   0.0000       1.482185        40.3323 
 138   0.0000       1.500905        40.8417 
 139   0.0000       1.512132        41.1472 
 140   0.0000       1.527942        41.5774 
 141   0.0000       1.630383        44.3650 
 142   0.0000       1.652840        44.9761 
 143   0.0000       1.807637        49.1883 
 144   0.0000       1.808016        49.1986 
 145   0.0000       1.810471        49.2654 
 146   0.0000       1.812031        49.3079 
 147   0.0000       1.832129        49.8548 
 148   0.0000       1.920669        52.2641 
 149   0.0000       1.921000        52.2731 
 150   0.0000       1.925953        52.4078 
 151   0.0000       1.964218        53.4491 
 152   0.0000       1.983395        53.9709 
 153   0.0000       1.988444        54.1083 
 154   0.0000       2.034801        55.3697 
 155   0.0000       2.055752        55.9399 
 156   0.0000       2.067116        56.2491 
 157   0.0000       2.071683        56.3734 
 158   0.0000       2.145406        58.3795 
 159   0.0000       2.146836        58.4184 
 160   0.0000       2.147042        58.4240 
 161   0.0000       2.157285        58.7027 
 162   0.0000       2.163106        58.8611 
 163   0.0000       2.184258        59.4367 
 164   0.0000       2.279114        62.0178 
 165   0.0000       2.303501        62.6814 
 166   0.0000       2.316340        63.0308 
 167   0.0000       2.331321        63.4385 
 168   0.0000       2.332045        63.4582 
 169   0.0000       2.337287        63.6008 
 170   0.0000       2.341830        63.7244 
 171   0.0000       2.347188        63.8702 
 172   0.0000       2.350956        63.9728 
 173   0.0000       2.390056        65.0367 
 174   0.0000       2.398006        65.2531 
 175   0.0000       2.412229        65.6401 
 176   0.0000       2.509133        68.2770 
 177   0.0000       2.513199        68.3876 
 178   0.0000       2.532884        68.9233 
 179   0.0000       2.599224        70.7285 
 180   0.0000       2.622698        71.3672 
 181   0.0000       2.692231        73.2593 
 182   0.0000       2.693687        73.2989 
 183   0.0000       2.762319        75.1665 
 184   0.0000       2.763445        75.1972 
 185   0.0000       2.766965        75.2930 
 186   0.0000       2.807034        76.3833 
 187   0.0000       2.832177        77.0674 
 188   0.0000      13.559681       368.9777 
 189   0.0000      13.574179       369.3722 
 190   0.0000      13.758965       374.4005 
 191   0.0000      13.896080       378.1316 
 192   0.0000      13.903362       378.3297 
 193   0.0000      13.918653       378.7458 
 194   0.0000      13.926690       378.9645 
 195   0.0000      14.002174       381.0185 
 196   0.0000      14.097064       383.6006 
 197   0.0000      14.164556       385.4372 

                    ********************************
                    * MULLIKEN POPULATION ANALYSIS *
                    ********************************

-----------------------
MULLIKEN ATOMIC CHARGES
-----------------------
   0 C :   -0.640583
   1 H :    0.210026
   2 H :    0.211193
   3 H :    0.219133
   4 C :   -0.424177
   5 H :    0.208292
   6 H :    0.210712
   7 C :   -0.399184
   8 H :    0.201183
   9 H :    0.203431
  10 C :   -0.424151
  11 H :    0.208244
  12 H :    0.210728
  13 C :   -0.640582
  14 H :    0.210033
  15 H :    0.219134
  16 H :    0.211184
  17 C :   -0.108854
  18 C :   -0.606803
  19 H :    0.211424
  20 H :    0.211347
  21 H :    0.211403
  22 C :   -0.621612
  23 H :    0.228146
  24 H :    0.211227
  25 H :    0.211860
  26 C :   -0.621605
  27 H :    0.228132
  28 H :    0.211232
  29 H :    0.211871
  30 C :   -0.615556
  31 H :    0.212062
  32 H :    0.219056
  33 H :    0.212052
Sum of atomic charges:   -0.0000000

--------------------------------
MULLIKEN REDUCED ORBITAL CHARGES
--------------------------------
  0 C s       :     3.377413  s :     3.377413
      pz      :     1.121991  p :     3.225947
      px      :     1.025904
      py      :     1.078051
      dz2     :     0.007343  d :     0.037223
      dxz     :     0.001669
      dyz     :     0.012636
      dx2y2   :     0.005789
      dxy     :     0.009786
  1 H s       :     0.789974  s :     0.789974
  2 H s       :     0.788807  s :     0.788807
  3 H s       :     0.780867  s :     0.780867
  4 C s       :     3.324410  s :     3.324410
      pz      :     1.119960  p :     3.055517
      px      :     0.909967
      py      :     1.025589
      dz2     :     0.007309  d :     0.044250
      dxz     :     0.003514
      dyz     :     0.015098
      dx2y2   :     0.008354
      dxy     :     0.009975
  5 H s       :     0.791708  s :     0.791708
  6 H s       :     0.789288  s :     0.789288
  7 C s       :     3.319383  s :     3.319383
      pz      :     1.108284  p :     3.035689
      px      :     0.906430
      py      :     1.020974
      dz2     :     0.007210  d :     0.044112
      dxz     :     0.003486
      dyz     :     0.015172
      dx2y2   :     0.008299
      dxy     :     0.009945
  8 H s       :     0.798817  s :     0.798817
  9 H s       :     0.796569  s :     0.796569
 10 C s       :     3.324385  s :     3.324385
      pz      :     1.119968  p :     3.055516
      px      :     0.909999
      py      :     1.025550
      dz2     :     0.007307  d :     0.044250
      dxz     :     0.003515
      dyz     :     0.015100
      dx2y2   :     0.008343
      dxy     :     0.009985
 11 H s       :     0.791756  s :     0.791756
 12 H s       :     0.789272  s :     0.789272
 13 C s       :     3.377418  s :     3.377418
      pz      :     1.121985  p :     3.225941
      px      :     1.023625
      py      :     1.080332
      dz2     :     0.007341  d :     0.037224
      dxz     :     0.001737
      dyz     :     0.012571
      dx2y2   :     0.005673
      dxy     :     0.009901
 14 H s       :     0.789967  s :     0.789967
 15 H s       :     0.780866  s :     0.780866
 16 H s       :     0.788816  s :     0.788816
 17 C s       :     3.230473  s :     3.230473
      pz      :     0.941226  p :     2.822885
      px      :     0.940579
      py      :     0.941080
      dz2     :     0.014188  d :     0.055496
      dxz     :     0.009671
      dyz     :     0.008411
      dx2y2   :     0.012318
      dxy     :     0.010909
 18 C s       :     3.371034  s :     3.371034
      pz      :     0.955582  p :     3.198604
      px      :     1.122270
      py      :     1.120753
      dz2     :     0.008310  d :     0.037164
      dxz     :     0.008446
      dyz     :     0.006241
      dx2y2   :     0.008205
      dxy     :     0.005963
 19 H s       :     0.788576  s :     0.788576
 20 H s       :     0.788653  s :     0.788653
 21 H s       :     0.788597  s :     0.788597
 22 C s       :     3.382318  s :     3.382318
      pz      :     1.102415  p :     3.202158
      px      :     1.011287
      py      :     1.088455
      dz2     :     0.012611  d :     0.037136
      dxz     :     0.004999
      dyz     :     0.002651
      dx2y2   :     0.010667
      dxy     :     0.006208
 23 H s       :     0.771854  s :     0.771854
 24 H s       :     0.788773  s :     0.788773
 25 H s       :     0.788140  s :     0.788140
 26 C s       :     3.382309  s :     3.382309
      pz      :     1.102442  p :     3.202160
      px      :     1.008915
      py      :     1.090804
      dz2     :     0.012612  d :     0.037136
      dxz     :     0.005001
      dyz     :     0.002647
      dx2y2   :     0.010474
      dxy     :     0.006402
 27 H s       :     0.771868  s :     0.771868
 28 H s       :     0.788768  s :     0.788768
 29 H s       :     0.788129  s :     0.788129
 30 C s       :     3.377844  s :     3.377844
      pz      :     1.113350  p :     3.200565
      px      :     1.122876
      py      :     0.964339
      dz2     :     0.011470  d :     0.037147
      dxz     :     0.004149
      dyz     :     0.004904
      dx2y2   :     0.006371
      dxy     :     0.010253
 31 H s       :     0.787938  s :     0.787938
 32 H s       :     0.780944  s :     0.780944
 33 H s       :     0.787948  s :     0.787948


                     *******************************
                     * LOEWDIN POPULATION ANALYSIS *
                     *******************************

----------------------
LOEWDIN ATOMIC CHARGES
----------------------
   0 C :   -0.361805
   1 H :    0.123650
   2 H :    0.123123
   3 H :    0.126350
   4 C :   -0.248226
   5 H :    0.117547
   6 H :    0.120575
   7 C :   -0.242725
   8 H :    0.116706
   9 H :    0.119167
  10 C :   -0.248223
  11 H :    0.117543
  12 H :    0.120572
  13 C :   -0.361804
  14 H :    0.123651
  15 H :    0.126349
  16 H :    0.123121
  17 C :   -0.115548
  18 C :   -0.343229
  19 H :    0.124371
  20 H :    0.124355
  21 H :    0.124366
  22 C :   -0.343747
  23 H :    0.125476
  24 H :    0.124394
  25 H :    0.124788
  26 C :   -0.343745
  27 H :    0.125479
  28 H :    0.124395
  29 H :    0.124791
  30 C :   -0.343483
  31 H :    0.124686
  32 H :    0.122394
  33 H :    0.124687

-------------------------------
LOEWDIN REDUCED ORBITAL CHARGES
-------------------------------
  0 C s       :     2.950339  s :     2.950339
      pz      :     1.132572  p :     3.341988
      px      :     1.091206
      py      :     1.118210
      dz2     :     0.013101  d :     0.069478
      dxz     :     0.003616
      dyz     :     0.021705
      dx2y2   :     0.011752
      dxy     :     0.019304
  1 H s       :     0.876350  s :     0.876350
  2 H s       :     0.876877  s :     0.876877
  3 H s       :     0.873650  s :     0.873650
  4 C s       :     2.907788  s :     2.907788
      pz      :     1.110634  p :     3.250373
      px      :     1.048609
      py      :     1.091129
      dz2     :     0.014093  d :     0.090065
      dxz     :     0.007400
      dyz     :     0.026650
      dx2y2   :     0.018034
      dxy     :     0.023888
  5 H s       :     0.882453  s :     0.882453
  6 H s       :     0.879425  s :     0.879425
  7 C s       :     2.909957  s :     2.909957
      pz      :     1.108829  p :     3.242777
      px      :     1.044185
      py      :     1.089763
      dz2     :     0.014028  d :     0.089992
      dxz     :     0.007431
      dyz     :     0.026877
      dx2y2   :     0.018085
      dxy     :     0.023571
  8 H s       :     0.883294  s :     0.883294
  9 H s       :     0.880833  s :     0.880833
 10 C s       :     2.907792  s :     2.907792
      pz      :     1.110636  p :     3.250367
      px      :     1.048582
      py      :     1.091149
      dz2     :     0.014089  d :     0.090064
      dxz     :     0.007399
      dyz     :     0.026656
      dx2y2   :     0.018009
      dxy     :     0.023912
 11 H s       :     0.882457  s :     0.882457
 12 H s       :     0.879428  s :     0.879428
 13 C s       :     2.950336  s :     2.950336
      pz      :     1.132571  p :     3.341988
      px      :     1.090529
      py      :     1.118888
      dz2     :     0.013098  d :     0.069480
      dxz     :     0.003764
      dyz     :     0.021562
      dx2y2   :     0.011581
      dxy     :     0.019476
 14 H s       :     0.876349  s :     0.876349
 15 H s       :     0.873651  s :     0.873651
 16 H s       :     0.876879  s :     0.876879
 17 C s       :     2.839181  s :     2.839181
      pz      :     1.049275  p :     3.147874
      px      :     1.049361
      py      :     1.049238
      dz2     :     0.034003  d :     0.128493
      dxz     :     0.021880
      dyz     :     0.018494
      dx2y2   :     0.028939
      dxy     :     0.025177
 18 C s       :     2.953506  s :     2.953506
      pz      :     1.068215  p :     3.319956
      px      :     1.126111
      py      :     1.125629
      dz2     :     0.018266  d :     0.069767
      dxz     :     0.016165
      dyz     :     0.012440
      dx2y2   :     0.013371
      dxy     :     0.009525
 19 H s       :     0.875629  s :     0.875629
 20 H s       :     0.875645  s :     0.875645
 21 H s       :     0.875634  s :     0.875634
 22 C s       :     2.952848  s :     2.952848
      pz      :     1.118174  p :     3.321220
      px      :     1.088201
      py      :     1.114846
      dz2     :     0.022115  d :     0.069678
      dxz     :     0.010241
      dyz     :     0.004788
      dx2y2   :     0.019901
      dxy     :     0.012632
 23 H s       :     0.874524  s :     0.874524
 24 H s       :     0.875606  s :     0.875606
 25 H s       :     0.875212  s :     0.875212
 26 C s       :     2.952843  s :     2.952843
      pz      :     1.118179  p :     3.321224
      px      :     1.087382
      py      :     1.115662
      dz2     :     0.022117  d :     0.069679
      dxz     :     0.010285
      dyz     :     0.004738
      dx2y2   :     0.019603
      dxy     :     0.012934
 27 H s       :     0.874521  s :     0.874521
 28 H s       :     0.875605  s :     0.875605
 29 H s       :     0.875209  s :     0.875209
 30 C s       :     2.953413  s :     2.953413
      pz      :     1.121846  p :     3.320367
      px      :     1.126770
      py      :     1.071751
      dz2     :     0.020121  d :     0.069703
      dxz     :     0.006551
      dyz     :     0.010386
      dx2y2   :     0.013521
      dxy     :     0.019125
 31 H s       :     0.875314  s :     0.875314
 32 H s       :     0.877606  s :     0.877606
 33 H s       :     0.875313  s :     0.875313


                      *****************************
                      * MAYER POPULATION ANALYSIS *
                      *****************************

  NA   - Mulliken gross atomic population
  ZA   - Total nuclear charge
  QA   - Mulliken gross atomic charge
  VA   - Mayer's total valence
  BVA  - Mayer's bonded valence
  FA   - Mayer's free valence

  ATOM       NA         ZA         QA         VA         BVA        FA
  0 C      6.6406     6.0000    -0.6406     3.7415     3.7415     0.0000
  1 H      0.7900     1.0000     0.2100     0.9140     0.9140     0.0000
  2 H      0.7888     1.0000     0.2112     0.9151     0.9151     0.0000
  3 H      0.7809     1.0000     0.2191     0.9135     0.9135     0.0000
  4 C      6.4242     6.0000    -0.4242     3.7525     3.7525    -0.0000
  5 H      0.7917     1.0000     0.2083     0.9095     0.9095    -0.0000
  6 H      0.7893     1.0000     0.2107     0.9068     0.9068     0.0000
  7 C      6.3992     6.0000    -0.3992     3.7201     3.7201     0.0000
  8 H      0.7988     1.0000     0.2012     0.9139     0.9139     0.0000
  9 H      0.7966     1.0000     0.2034     0.9104     0.9104     0.0000
 10 C      6.4242     6.0000    -0.4242     3.7525     3.7525    -0.0000
 11 H      0.7918     1.0000     0.2082     0.9095     0.9095     0.0000
 12 H      0.7893     1.0000     0.2107     0.9068     0.9068    -0.0000
 13 C      6.6406     6.0000    -0.6406     3.7415     3.7415    -0.0000
 14 H      0.7900     1.0000     0.2100     0.9140     0.9140    -0.0000
 15 H      0.7809     1.0000     0.2191     0.9135     0.9135    -0.0000
 16 H      0.7888     1.0000     0.2112     0.9151     0.9151    -0.0000
 17 C      6.1089     6.0000    -0.1089     3.8480     3.8480    -0.0000
 18 C      6.6068     6.0000    -0.6068     3.6870     3.6870    -0.0000
 19 H      0.7886     1.0000     0.2114     0.9188     0.9188    -0.0000
 20 H      0.7887     1.0000     0.2113     0.9188     0.9188    -0.0000
 21 H      0.7886     1.0000     0.2114     0.9188     0.9188    -0.0000
 22 C      6.6216     6.0000    -0.6216     3.6766     3.6766     0.0000
 23 H      0.7719     1.0000     0.2281     0.9111     0.9111    -0.0000
 24 H      0.7888     1.0000     0.2112     0.9189     0.9189    -0.0000
 25 H      0.7881     1.0000     0.2119     0.9189     0.9189     0.0000
 26 C      6.6216     6.0000    -0.6216     3.6766     3.6766    -0.0000
 27 H      0.7719     1.0000     0.2281     0.9111     0.9111    -0.0000
 28 H      0.7888     1.0000     0.2112     0.9188     0.9188     0.0000
 29 H      0.7881     1.0000     0.2119     0.9189     0.9189    -0.0000
 30 C      6.6156     6.0000    -0.6156     3.6785     3.6785     0.0000
 31 H      0.7879     1.0000     0.2121     0.9186     0.9186    -0.0000
 32 H      0.7809     1.0000     0.2191     0.9183     0.9183     0.0000
 33 H      0.7879     1.0000     0.2121     0.9186     0.9186    -0.0000

  Mayer bond orders larger than 0.100000
B(  0-C ,  1-H ) :   0.9288 B(  0-C ,  2-H ) :   0.9262 B(  0-C ,  3-H ) :   0.9322 
B(  0-C ,  4-C ) :   0.9969 B(  4-C ,  5-H ) :   0.9120 B(  4-C ,  6-H ) :   0.9191 
B(  4-C ,  7-C ) :   0.9892 B(  7-C ,  8-H ) :   0.9133 B(  7-C ,  9-H ) :   0.9172 
B(  7-C , 10-C ) :   0.9892 B( 10-C , 11-H ) :   0.9120 B( 10-C , 12-H ) :   0.9191 
B( 10-C , 13-C ) :   0.9969 B( 13-C , 14-H ) :   0.9288 B( 13-C , 15-H ) :   0.9322 
B( 13-C , 16-H ) :   0.9262 B( 17-C , 18-C ) :   0.9840 B( 17-C , 22-C ) :   0.9809 
B( 17-C , 26-C ) :   0.9809 B( 17-C , 30-C ) :   0.9823 B( 18-C , 19-H ) :   0.9302 
B( 18-C , 20-H ) :   0.9303 B( 18-C , 21-H ) :   0.9303 B( 22-C , 23-H ) :   0.9137 
B( 22-C , 24-H ) :   0.9302 B( 22-C , 25-H ) :   0.9301 B( 26-C , 27-H ) :   0.9138 
B( 26-C , 28-H ) :   0.9302 B( 26-C , 29-H ) :   0.9301 B( 30-C , 31-H ) :   0.9298 
B( 30-C , 32-H ) :   0.9185 B( 30-C , 33-H ) :   0.9298 

-------
TIMINGS
-------

Total SCF time: 0 days 0 hours 2 min 8 sec 

Total time                  ....     128.471 sec
Sum of individual times     ....     122.818 sec  ( 95.6%)

Fock matrix formation       ....     106.568 sec  ( 83.0%)
  Split-RI-J                ....       9.545 sec  (  9.0% of F)
  Chain of spheres X        ....      61.682 sec  ( 57.9% of F)
  XC integration            ....      23.242 sec  ( 21.8% of F)
    Basis function eval.    ....       6.323 sec  ( 27.2% of XC)
    Density eval.           ....       3.326 sec  ( 14.3% of XC)
    XC-Functional eval.     ....       1.869 sec  (  8.0% of XC)
    XC-Potential eval.      ....       1.829 sec  (  7.9% of XC)
Diagonalization             ....       0.477 sec  (  0.4%)
Density matrix formation    ....       0.134 sec  (  0.1%)
Population analysis         ....       1.306 sec  (  1.0%)
Initial guess               ....       0.079 sec  (  0.1%)
Orbital Transformation      ....       0.000 sec  (  0.0%)
Orbital Orthonormalization  ....       0.000 sec  (  0.0%)
DIIS solution               ....       1.821 sec  (  1.4%)
SOSCF solution              ....       0.581 sec  (  0.5%)
Grid generation             ....      11.851 sec  (  9.2%)

Maximum memory used throughout the entire SCF-calculation: 79.5 MB


-------------------------------------------------------------------------------
                          DFT DISPERSION CORRECTION                            
                                                                               
                              DFTD3 V3.1  Rev 1                                
                          USING Becke-Johnson damping                          
-------------------------------------------------------------------------------
The PBEh-3c composite method is recognized
Using three-body term ABC
Active option DFTDOPT                   ...         4   

molecular C6(AA) [au] = 7188.541929 


            DFT-D V3
 parameters
 s6 scaling factor         :     1.0000 
 a1 scaling factor         :     0.4860 
 s8 scaling factor         :     0.0000 
 a2 scaling factor         :     4.5000 
 Damping factor alpha9(ATM):    16.0000 
 ad hoc parameters k1-k3   :    16.0000     1.3333    -4.0000 

 Edisp/kcal,au: -11.156108674163  -0.017778388925 
 E6   /kcal   : -11.311844142 
 E8   /kcal   :  -0.000000000 
 E6(ABC)      :   0.155735468 
 % E8         :   0.000000000 
 % E6(ABC)    :  -1.395965853 

-------------------------   ----------------
Dispersion correction           -0.017778389
-------------------------   ----------------

------------------   -----------------
gCP correction             0.043147267
------------------   -----------------

-------------------------   --------------------
FINAL SINGLE POINT ENERGY      -394.679307384890
-------------------------   --------------------


                            ***************************************
                            *     ORCA property calculations      *
                            ***************************************

                                    ---------------------
                                    Active property flags
                                    ---------------------
   (+) Dipole Moment


------------------------------------------------------------------------------
                       ORCA ELECTRIC PROPERTIES CALCULATION
------------------------------------------------------------------------------

Dipole Moment Calculation                       ... on
Quadrupole Moment Calculation                   ... off
Polarizability Calculation                      ... off
GBWName                                         ... pbeh-3c.gbw
Electron density                                ... pbeh-3c.scfp
The origin for moment calculation is the CENTER OF MASS  = (-0.000221,  0.030940  0.002811)

-------------
DIPOLE MOMENT
-------------
                                X             Y             Z
Electronic contribution:     -0.00422       0.58881       0.04939
Nuclear contribution   :      0.00408      -0.57011      -0.05180
                        -----------------------------------------
Total Dipole Moment    :     -0.00014       0.01870      -0.00241
                        -----------------------------------------
Magnitude (a.u.)       :      0.01886
Magnitude (Debye)      :      0.04793



--------------------
Rotational spectrum 
--------------------
 
Rotational constants in cm-1:     0.043895     0.019063     0.015155 
Rotational constants in MHz :  1315.946048   571.508423   454.341327 

 Dipole components along the rotational axes: 
x,y,z [a.u.] :    -0.001842     0.000003    -0.018768 
x,y,z [Debye]:    -0.004681     0.000008    -0.047705 

 

Timings for individual modules:

Sum of individual times         ...      131.588 sec (=   2.193 min)
GTO integral calculation        ...        2.240 sec (=   0.037 min)   1.7 %
SCF iterations                  ...      129.349 sec (=   2.156 min)  98.3 %
                             ****ORCA TERMINATED NORMALLY****
TOTAL RUN TIME: 0 days 0 hours 2 minutes 13 seconds 756 msec
