
                                 *****************
                                 * O   R   C   A *
                                 *****************

                                            #,                                       
                                            ###                                      
                                            ####                                     
                                            #####                                    
                                            ######                                   
                                           ########,                                 
                                     ,,################,,,,,                         
                               ,,#################################,,                 
                          ,,##########################################,,             
                       ,#########################################, ''#####,          
                    ,#############################################,,   '####,        
                  ,##################################################,,,,####,       
                ,###########''''           ''''###############################       
              ,#####''   ,,,,##########,,,,          '''####'''          '####       
            ,##' ,,,,###########################,,,                        '##       
           ' ,,###''''                  '''############,,,                           
         ,,##''                                '''############,,,,        ,,,,,,###''
      ,#''                                            '''#######################'''  
     '                                                          ''''####''''         
             ,#######,   #######,   ,#######,      ##                                
            ,#'     '#,  ##    ##  ,#'     '#,    #''#        ######   ,####,        
            ##       ##  ##   ,#'  ##            #'  '#       #        #'  '#        
            ##       ##  #######   ##           ,######,      #####,   #    #        
            '#,     ,#'  ##    ##  '#,     ,#' ,#      #,         ##   #,  ,#        
             '#######'   ##     ##  '#######'  #'      '#     #####' # '####'        



                  #######################################################
                  #                        -***-                        #
                  #          Department of theory and spectroscopy      #
                  #    Directorship and core code : Frank Neese         #
                  #        Max Planck Institute fuer Kohlenforschung    #
                  #                Kaiser Wilhelm Platz 1               #
                  #                 D-45470 Muelheim/Ruhr               #
                  #                      Germany                        #
                  #                                                     #
                  #                  All rights reserved                #
                  #                        -***-                        #
                  #######################################################


                         Program Version 5.0.3 -  RELEASE  -


 With contributions from (in alphabetic order):
   Daniel Aravena         : Magnetic Suceptibility
   Michael Atanasov       : Ab Initio Ligand Field Theory (pilot matlab implementation)
   Alexander A. Auer      : GIAO ZORA, VPT2 properties, NMR spectrum
   Ute Becker             : Parallelization
   Giovanni Bistoni       : ED, misc. LED, open-shell LED, HFLD
   Martin Brehm           : Molecular dynamics
   Dmytro Bykov           : SCF Hessian
   Vijay G. Chilkuri      : MRCI spin determinant printing, contributions to CSF-ICE
   Dipayan Datta          : RHF DLPNO-CCSD density
   Achintya Kumar Dutta   : EOM-CC, STEOM-CC
   Dmitry Ganyushin       : Spin-Orbit,Spin-Spin,Magnetic field MRCI
   Miquel Garcia          : C-PCM and meta-GGA Hessian, CC/C-PCM, Gaussian charge scheme
   Yang Guo               : DLPNO-NEVPT2, F12-NEVPT2, CIM, IAO-localization
   Andreas Hansen         : Spin unrestricted coupled pair/coupled cluster methods
   Benjamin Helmich-Paris : MC-RPA, TRAH-SCF, COSX integrals
   Lee Huntington         : MR-EOM, pCC
   Robert Izsak           : Overlap fitted RIJCOSX, COSX-SCS-MP3, EOM
   Marcus Kettner         : VPT2
   Christian Kollmar      : KDIIS, OOCD, Brueckner-CCSD(T), CCSD density, CASPT2, CASPT2-K
   Simone Kossmann        : Meta GGA functionals, TD-DFT gradient, OOMP2, MP2 Hessian
   Martin Krupicka        : Initial AUTO-CI
   Lucas Lang             : DCDCAS
   Marvin Lechner         : AUTO-CI (C++ implementation), FIC-MRCC
   Dagmar Lenk            : GEPOL surface, SMD
   Dimitrios Liakos       : Extrapolation schemes; Compound Job, initial MDCI parallelization
   Dimitrios Manganas     : Further ROCIS development; embedding schemes
   Dimitrios Pantazis     : SARC Basis sets
   Anastasios Papadopoulos: AUTO-CI, single reference methods and gradients
   Taras Petrenko         : DFT Hessian,TD-DFT gradient, ASA, ECA, R-Raman, ABS, FL, XAS/XES, NRVS
   Peter Pinski           : DLPNO-MP2, DLPNO-MP2 Gradient
   Christoph Reimann      : Effective Core Potentials
   Marius Retegan         : Local ZFS, SOC
   Christoph Riplinger    : Optimizer, TS searches, QM/MM, DLPNO-CCSD(T), (RO)-DLPNO pert. Triples
   Tobias Risthaus        : Range-separated hybrids, TD-DFT gradient, RPA, STAB
   Michael Roemelt        : Original ROCIS implementation
   Masaaki Saitow         : Open-shell DLPNO-CCSD energy and density
   Barbara Sandhoefer     : DKH picture change effects
   Avijit Sen             : IP-ROCIS
   Kantharuban Sivalingam : CASSCF convergence, NEVPT2, FIC-MRCI
   Bernardo de Souza      : ESD, SOC TD-DFT
   Georgi Stoychev        : AutoAux, RI-MP2 NMR, DLPNO-MP2 response
   Willem Van den Heuvel  : Paramagnetic NMR
   Boris Wezisla          : Elementary symmetry handling
   Frank Wennmohs         : Technical directorship


 We gratefully acknowledge several colleagues who have allowed us to
 interface, adapt or use parts of their codes:
   Stefan Grimme, W. Hujo, H. Kruse, P. Pracht,  : VdW corrections, initial TS optimization,
                  C. Bannwarth, S. Ehlert          DFT functionals, gCP, sTDA/sTD-DF
   Ed Valeev, F. Pavosevic, A. Kumar             : LibInt (2-el integral package), F12 methods
   Garnet Chan, S. Sharma, J. Yang, R. Olivares  : DMRG
   Ulf Ekstrom                                   : XCFun DFT Library
   Mihaly Kallay                                 : mrcc  (arbitrary order and MRCC methods)
   Jiri Pittner, Ondrej Demel                    : Mk-CCSD
   Frank Weinhold                                : gennbo (NPA and NBO analysis)
   Christopher J. Cramer and Donald G. Truhlar   : smd solvation model
   Lars Goerigk                                  : TD-DFT with DH, B97 family of functionals
   V. Asgeirsson, H. Jonsson                     : NEB implementation
   FAccTs GmbH                                   : IRC, NEB, NEB-TS, DLPNO-Multilevel, CI-OPT
                                                   MM, QMMM, 2- and 3-layer-ONIOM, Crystal-QMMM,
                                                   LR-CPCM, SF, NACMEs, symmetry and pop. for TD-DFT,
                                                   nearIR, NL-DFT gradient (VV10), updates on ESD,
                                                   ML-optimized integration grids
   S Lehtola, MJT Oliveira, MAL Marques          : LibXC Library
   Liviu Ungur et al                             : ANISO software


 Your calculation uses the libint2 library for the computation of 2-el integrals
 For citations please refer to: http://libint.valeyev.net

 Your ORCA version has been built with support for libXC version: 5.1.0
 For citations please refer to: https://tddft.org/programs/libxc/

 This ORCA versions uses:
   CBLAS   interface :  Fast vector & matrix operations
   LAPACKE interface :  Fast linear algebra routines
   SCALAPACK package :  Parallel linear algebra routines
   Shared memory     :  Shared parallel matrices
   BLAS/LAPACK       :  OpenBLAS 0.3.15  USE64BITINT DYNAMIC_ARCH NO_AFFINITY Haswell SINGLE_THREADED
        Core in use  :  Haswell
   Copyright (c) 2011-2014, The OpenBLAS Project




***************************************
The coordinates will be read from file: 357.xyz
***************************************


Your calculation utilizes the geometrical counterpoise correction gCP
Please cite in your paper:
H.Kruse, S. Grimme J.Chem.Phys., 136, (2012), 154101 
   

Your calculation utilizes the atom-pairwise dispersion correction
with the Becke-Johnson damping scheme (D3BJ)
Cite in your paper:
S.Grimme, S.Ehrlich, L.Goerigk, J Comput Chem, (2011), 32, 1456–1465 
S.Grimme, J.Antony, S.Ehrlich and H.Krieg, J.Chem.Phys., 132, (2010), 154104 
   

Your calculation employs the composite approach PBEh-3c.
Please cite in your paper:
S. Grimme, J. G. Brandenburg, C. Bannwarth, A. Hansen J.Chem.Phys., 143, (2015), 054107 
   

================================================================================

----- Orbital basis set information -----
Your calculation utilizes the basis: def2-mSVP

----- AuxJ basis set information -----
Your calculation utilizes the auxiliary basis: def2/J
   F. Weigend, Phys. Chem. Chem. Phys. 8, 1057 (2006).

================================================================================
                                        WARNINGS
                       Please study these warnings very carefully!
================================================================================


INFO   : the flag for use of the SHARK integral package has been found!

================================================================================
                                       INPUT FILE
================================================================================
NAME = pbeh-3c.inp
|  1> ! PBEh-3c def2/J TightSCF DefGrid3
|  2> 
|  3> %maxcore 60000
|  4> 
|  5> %pal
|  6> nprocs 4
|  7> end
|  8> 
|  9> *xyzfile 0 1 357.xyz
| 10> 
| 11>                          ****END OF INPUT****
================================================================================

                       ****************************
                       * Single Point Calculation *
                       ****************************

---------------------------------
CARTESIAN COORDINATES (ANGSTROEM)
---------------------------------
  O     -3.904919    1.619541    0.463216
  C     -3.646919    0.465540    0.214216
  O     -4.119919   -0.549459    0.943216
  H     -3.805919   -1.398459    0.550216
  C     -2.768919    0.053540   -0.964784
  H     -2.427919    0.952541   -1.464784
  H     -3.371919   -0.541459   -1.652784
  N     -1.608919   -0.732460   -0.581784
  H     -0.717919   -0.274459   -0.461784
  C     -1.719919   -2.026460   -0.239784
  O     -2.807919   -2.611460   -0.175784
  C     -0.432919   -2.760460    0.083216
  H     -0.491919   -3.734459   -0.401784
  H     -0.402919   -2.924460    1.160216
  N      0.760081   -2.047459   -0.279784
  H      1.073081   -1.969459   -1.237784
  C      1.648081   -1.609460    0.649216
  O      1.518081   -1.766460    1.856216
  C      2.824081   -0.828460    0.063216
  N      2.736081   -0.750459   -1.394784
  H      2.231081    0.087540   -1.662784
  H      3.661081   -0.674459   -1.797784
  H      3.720081   -1.392459    0.323216
  C      2.881081    0.539540    0.776216
  H      3.022081    0.360540    1.841216
  H      3.747081    1.085541    0.399216
  C      1.621081    1.326540    0.547216
  C      0.538081    1.203540    1.429216
  H      0.639081    0.570541    2.301216
  C     -0.655919    1.881540    1.191216
  H     -1.482919    1.784541    1.882216
  C     -0.793919    2.689541    0.062216
  H     -1.728919    3.202541   -0.115784
  C      0.279081    2.830541   -0.815784
  H      0.192081    3.473541   -1.681784
  C      1.478081    2.157541   -0.570784
  H      2.321081    2.307541   -1.235784

----------------------------
CARTESIAN COORDINATES (A.U.)
----------------------------
  NO LB      ZA    FRAG     MASS         X           Y           Z
   0 O     8.0000    0    15.999   -7.379227    3.060488    0.875352
   1 C     6.0000    0    12.011   -6.891678    0.879744    0.404810
   2 O     8.0000    0    15.999   -7.785518   -1.038328    1.782420
   3 H     1.0000    0     1.008   -7.192144   -2.642705    1.039758
   4 C     6.0000    0    12.011   -5.232498    0.101177   -1.823177
   5 H     1.0000    0     1.008   -4.588102    1.800041   -2.768040
   6 H     1.0000    0     1.008   -6.372003   -1.023210   -3.123309
   7 N     7.0000    0    14.007   -3.040416   -1.384148   -1.099412
   8 H     1.0000    0     1.008   -1.356670   -0.518653   -0.872645
   9 C     6.0000    0    12.011   -3.250176   -3.829453   -0.453126
  10 O     8.0000    0    15.999   -5.306198   -4.934943   -0.332183
  11 C     6.0000    0    12.011   -0.818098   -5.216512    0.157256
  12 H     1.0000    0     1.008   -0.929592   -7.057106   -0.759261
  13 H     1.0000    0     1.008   -0.761406   -5.526428    2.192491
  14 N     7.0000    0    14.007    1.436345   -3.869138   -0.528715
  15 H     1.0000    0     1.008    2.027829   -3.721739   -2.339072
  16 C     6.0000    0    12.011    3.114422   -3.041438    1.226841
  17 O     8.0000    0    15.999    2.868758   -3.338125    3.507740
  18 C     6.0000    0    12.011    5.336740   -1.565562    0.119461
  19 N     7.0000    0    14.007    5.170444   -1.418163   -2.635759
  20 H     1.0000    0     1.008    4.216132    0.165428   -3.142206
  21 H     1.0000    0     1.008    6.918441   -1.274544   -3.397319
  22 H     1.0000    0     1.008    7.029934   -2.631367    0.610790
  23 C     6.0000    0    12.011    5.444454    1.019584    1.466836
  24 H     1.0000    0     1.008    5.710906    0.681323    3.479394
  25 H     1.0000    0     1.008    7.080957    2.051374    0.754409
  26 C     6.0000    0    12.011    3.063399    2.506798    1.034089
  27 C     6.0000    0    12.011    1.016826    2.274362    2.700827
  28 H     1.0000    0     1.008    1.207688    1.078165    4.348668
  29 C     6.0000    0    12.011   -1.239507    3.555596    2.251072
  30 H     1.0000    0     1.008   -2.802311    3.372293    3.556873
  31 C     6.0000    0    12.011   -1.500289    5.082495    0.117572
  32 H     1.0000    0     1.008   -3.267183    6.051925   -0.218800
  33 C     6.0000    0    12.011    0.527387    5.348947   -1.541608
  34 H     1.0000    0     1.008    0.362981    6.564040   -3.178111
  35 C     6.0000    0    12.011    2.793168    4.077161   -1.078625
  36 H     1.0000    0     1.008    4.386208    4.360620   -2.335293

--------------------------------
INTERNAL COORDINATES (ANGSTROEM)
--------------------------------
 O      0   0   0     0.000000000000     0.00000000     0.00000000
 C      1   0   0     1.208420870392     0.00000000     0.00000000
 O      2   1   0     1.336186738446   122.50800479     0.00000000
 H      3   2   1     0.986836359282   108.88159533   178.48553959
 C      2   1   3     1.526652874756   122.65891324   179.32148966
 H      5   2   1     1.083735207512   108.26401783     1.87973237
 H      5   2   1     1.091319384965   108.43501081   243.05282674
 N      5   2   1     1.452613162545   113.68253868   122.66574553
 H      8   5   2     1.008982160397   119.40150893   263.06548940
 C      8   5   2     1.343026805391   121.49891080    75.61143140
 O     10   8   5     1.236957962099   122.78866173   356.96956922
 C     10   8   5     1.516395067257   116.77372187   177.42287244
 H     12  10   8     1.089670592427   106.97177218   223.35791257
 H     12  10   8     1.089827968076   107.86052710   107.54786934
 N     12  10   8     1.436449442201   114.25467340   348.03004437
 H     15  12  10     1.010849642627   122.34104344   284.75436756
 C     15  12  10     1.357729354474   122.03272092   115.01254830
 O     17  15  12     1.224090682915   124.32194555   359.46271553
 C     17  15  12     1.528506787685   113.93570654   182.14814287
 N     19  17  15     1.462734425656   111.29067820   358.93774209
 H     20  19  17     1.014442211267   109.71419049    91.16804271
 H     20  19  17     1.011834966781   110.24310476   208.42716426
 H     19  17  15     1.090188974444   106.05511368   241.31380869
 C     19  17  15     1.543710465081   107.70596770   125.26154259
 H     24  19  17     1.089103759979   108.10652093    59.92260102
 H     24  19  17     1.090963335773   108.25286453   177.27580843
 C     24  19  17     1.503133393947   111.26369193   298.91848036
 C     27  24  19     1.402120536901   120.37785384    90.06297247
 H     28  27  24     1.082254129121   119.08228511     2.83898931
 C     28  27  24     1.393543684281   120.77621328   182.98275933
 H     30  28  27     1.082043899294   120.14385427   180.41502302
 C     30  28  27     1.395187858892   120.31254756     0.39982160
 H     32  30  28     1.081239103991   119.57244497   179.40881245
 C     32  30  28     1.393590327177   119.48939928   358.99993459
 H     34  32  30     1.082115520635   120.16013514   181.49528436
 C     34  32  30     1.396622712117   120.11441706     0.55812534
 H     36  34  32     1.084146669044   119.55574795   182.66058311

---------------------------
INTERNAL COORDINATES (A.U.)
---------------------------
 O      0   0   0     0.000000000000     0.00000000     0.00000000
 C      1   0   0     2.283584499556     0.00000000     0.00000000
 O      2   1   0     2.525026999441   122.50800479     0.00000000
 H      3   2   1     1.864850458038   108.88159533   178.48553959
 C      2   1   3     2.884955834852   122.65891324   179.32148966
 H      5   2   1     2.047962743885   108.26401783     1.87973237
 H      5   2   1     2.062294762223   108.43501081   243.05282674
 N      5   2   1     2.745041055740   113.68253868   122.66574553
 H      8   5   2     1.906699957163   119.40150893   263.06548940
 C      8   5   2     2.537952852705   121.49891080    75.61143140
 O     10   8   5     2.337511787540   122.78866173   356.96956922
 C     10   8   5     2.865571387944   116.77372187   177.42287244
 H     12  10   8     2.059178995875   106.97177218   223.35791257
 H     12  10   8     2.059476392751   107.86052710   107.54786934
 N     12  10   8     2.714496050984   114.25467340   348.03004437
 H     15  12  10     1.910228987138   122.34104344   284.75436756
 C     15  12  10     2.565736643941   122.03272092   115.01254830
 O     17  15  12     2.313196153795   124.32194555   359.46271553
 C     17  15  12     2.888459222565   113.93570654   182.14814287
 N     19  17  15     2.764167471149   111.29067820   358.93774209
 H     20  19  17     1.917017957984   109.71419049    91.16804271
 H     20  19  17     1.912090979941   110.24310476   208.42716426
 H     19  17  15     2.060158595920   106.05511368   241.31380869
 C     19  17  15     2.917190009071   107.70596770   125.26154259
 H     24  19  17     2.058107837784   108.10652093    59.92260102
 H     24  19  17     2.061621926759   108.25286453   177.27580843
 C     24  19  17     2.840510457312   111.26369193   298.91848036
 C     27  24  19     2.649623821490   120.37785384    90.06297247
 H     28  27  24     2.045163911345   119.08228511     2.83898931
 C     28  27  24     2.633415918947   120.77621328   182.98275933
 H     30  28  27     2.044766634546   120.14385427   180.41502302
 C     30  28  27     2.636522958678   120.31254756     0.39982160
 H     32  30  28     2.043245791830   119.57244497   179.40881245
 C     32  30  28     2.633504061245   119.48939928   358.99993459
 H     34  32  30     2.044901979266   120.16013514   181.49528436
 C     34  32  30     2.639234438315   120.11441706     0.55812534
 H     36  34  32     2.048740293497   119.55574795   182.66058311

---------------------
BASIS SET INFORMATION
---------------------
There are 4 groups of distinct atoms

 Group   1 Type O   : 8s4p1d contracted to 4s2p1d pattern {5111/31/1}
 Group   2 Type C   : 8s4p1d contracted to 4s2p1d pattern {5111/31/1}
 Group   3 Type H   : 4s contracted to 2s pattern {31}
 Group   4 Type N   : 8s4p1d contracted to 4s2p1d pattern {5111/31/1}

Atom   0O    basis set group =>   1
Atom   1C    basis set group =>   2
Atom   2O    basis set group =>   1
Atom   3H    basis set group =>   3
Atom   4C    basis set group =>   2
Atom   5H    basis set group =>   3
Atom   6H    basis set group =>   3
Atom   7N    basis set group =>   4
Atom   8H    basis set group =>   3
Atom   9C    basis set group =>   2
Atom  10O    basis set group =>   1
Atom  11C    basis set group =>   2
Atom  12H    basis set group =>   3
Atom  13H    basis set group =>   3
Atom  14N    basis set group =>   4
Atom  15H    basis set group =>   3
Atom  16C    basis set group =>   2
Atom  17O    basis set group =>   1
Atom  18C    basis set group =>   2
Atom  19N    basis set group =>   4
Atom  20H    basis set group =>   3
Atom  21H    basis set group =>   3
Atom  22H    basis set group =>   3
Atom  23C    basis set group =>   2
Atom  24H    basis set group =>   3
Atom  25H    basis set group =>   3
Atom  26C    basis set group =>   2
Atom  27C    basis set group =>   2
Atom  28H    basis set group =>   3
Atom  29C    basis set group =>   2
Atom  30H    basis set group =>   3
Atom  31C    basis set group =>   2
Atom  32H    basis set group =>   3
Atom  33C    basis set group =>   2
Atom  34H    basis set group =>   3
Atom  35C    basis set group =>   2
Atom  36H    basis set group =>   3
---------------------------------
AUXILIARY/J BASIS SET INFORMATION
---------------------------------
There are 4 groups of distinct atoms

 Group   1 Type O   : 12s5p4d2f1g contracted to 6s4p3d1f1g pattern {711111/2111/211/2/1}
 Group   2 Type C   : 12s5p4d2f1g contracted to 6s4p3d1f1g pattern {711111/2111/211/2/1}
 Group   3 Type H   : 5s2p1d contracted to 3s1p1d pattern {311/2/1}
 Group   4 Type N   : 12s5p4d2f1g contracted to 6s4p3d1f1g pattern {711111/2111/211/2/1}

Atom   0O    basis set group =>   1
Atom   1C    basis set group =>   2
Atom   2O    basis set group =>   1
Atom   3H    basis set group =>   3
Atom   4C    basis set group =>   2
Atom   5H    basis set group =>   3
Atom   6H    basis set group =>   3
Atom   7N    basis set group =>   4
Atom   8H    basis set group =>   3
Atom   9C    basis set group =>   2
Atom  10O    basis set group =>   1
Atom  11C    basis set group =>   2
Atom  12H    basis set group =>   3
Atom  13H    basis set group =>   3
Atom  14N    basis set group =>   4
Atom  15H    basis set group =>   3
Atom  16C    basis set group =>   2
Atom  17O    basis set group =>   1
Atom  18C    basis set group =>   2
Atom  19N    basis set group =>   4
Atom  20H    basis set group =>   3
Atom  21H    basis set group =>   3
Atom  22H    basis set group =>   3
Atom  23C    basis set group =>   2
Atom  24H    basis set group =>   3
Atom  25H    basis set group =>   3
Atom  26C    basis set group =>   2
Atom  27C    basis set group =>   2
Atom  28H    basis set group =>   3
Atom  29C    basis set group =>   2
Atom  30H    basis set group =>   3
Atom  31C    basis set group =>   2
Atom  32H    basis set group =>   3
Atom  33C    basis set group =>   2
Atom  34H    basis set group =>   3
Atom  35C    basis set group =>   2
Atom  36H    basis set group =>   3


           ************************************************************
           *        Program running with 4 parallel MPI-processes     *
           *              working on a common directory               *
           ************************************************************
------------------------------------------------------------------------------
                           ORCA GTO INTEGRAL CALCULATION
                           -- RI-GTO INTEGRALS CHOSEN --
------------------------------------------------------------------------------
------------------------------------------------------------------------------
                   ___                                                        
                  /   \      - P O W E R E D   B Y -                         
                 /     \                                                     
                 |  |  |   _    _      __       _____    __    __             
                 |  |  |  | |  | |    /  \     |  _  \  |  |  /  |          
                  \  \/   | |  | |   /    \    | | | |  |  | /  /          
                 / \  \   | |__| |  /  /\  \   | |_| |  |  |/  /          
                |  |  |   |  __  | /  /__\  \  |    /   |      \           
                |  |  |   | |  | | |   __   |  |    \   |  |\   \          
                \     /   | |  | | |  |  |  |  | |\  \  |  | \   \       
                 \___/    |_|  |_| |__|  |__|  |_| \__\ |__|  \__/        
                                                                              
                      - O R C A' S   B I G   F R I E N D -                    
                                      &                                       
                       - I N T E G R A L  F E E D E R -                       
                                                                              
 v1 FN, 2020, v2 2021                                                         
------------------------------------------------------------------------------


Reading SHARK input file pbeh-3c.SHARKINP.tmp ... ok
----------------------
SHARK INTEGRAL PACKAGE
----------------------

Number of atoms                             ...     37
Number of basis functions                   ...    334
Number of shells                            ...    174
Maximum angular momentum                    ...      2
Integral batch strategy                     ... SHARK/LIBINT Hybrid
RI-J (if used) integral strategy            ... SPLIT-RIJ (Revised 2003 algorithm where possible)
Printlevel                                  ...      1
Contraction scheme used                     ... SEGMENTED contraction
Coulomb Range Separation                    ... NOT USED
Exchange Range Separation                   ... NOT USED
Finite Nucleus Model                        ... NOT USED
Auxiliary Coulomb fitting basis             ... AVAILABLE
   # of basis functions in Aux-J            ...   1167
   # of shells in Aux-J                     ...    385
   Maximum angular momentum in Aux-J        ...      4
Auxiliary J/K fitting basis                 ... NOT available
Auxiliary Correlation fitting basis         ... NOT available
Auxiliary 'external' fitting basis          ... NOT available
Integral threshold                          ...     2.500000e-11
Primitive cut-off                           ...     2.500000e-12
Primitive pair pre-selection threshold      ...     2.500000e-12

Calculating pre-screening integrals         ... done (  0.1 sec) Dimension = 174
Organizing shell pair data                  ... done (  0.7 sec)
Shell pair information
Total number of shell pairs                 ...     15225
Shell pairs after pre-screening             ...     11329
Total number of primitive shell pairs       ...     54267
Primitive shell pairs kept                  ...     25659
          la=0 lb=0:   4442 shell pairs
          la=1 lb=0:   3760 shell pairs
          la=1 lb=1:    766 shell pairs
          la=2 lb=0:   1527 shell pairs
          la=2 lb=1:    683 shell pairs
          la=2 lb=2:    151 shell pairs

Calculating one electron integrals          ... done (  0.1 sec)
Calculating RI/J V-Matrix + Cholesky decomp.... done (  1.3 sec)
Calculating Nuclear repulsion               ... done (  0.1 sec) ENN=   1662.090396131488 Eh

SHARK setup successfully completed in   4.1 seconds

Maximum memory used throughout the entire GTOINT-calculation: 23.2 MB


           ************************************************************
           *        Program running with 4 parallel MPI-processes     *
           *              working on a common directory               *
           ************************************************************
-------------------------------------------------------------------------------
                                 ORCA SCF
-------------------------------------------------------------------------------

------------
SCF SETTINGS
------------
Hamiltonian:
 Density Functional     Method          .... DFT(GTOs)
 Exchange Functional    Exchange        .... PBE
   PBE kappa parameter   XKappa         ....  1.024500
   PBE mue parameter    XMuePBE         ....  0.123457
 Correlation Functional Correlation     .... PBE
   PBE beta parameter  CBetaPBE         ....  0.030000
 LDA part of GGA corr.  LDAOpt          .... PW91-LDA
 Gradients option       PostSCFGGA      .... off
 Hybrid DFT is turned on
   Fraction HF Exchange ScalHFX         ....  0.420000
   Scaling of DF-GGA-X  ScalDFX         ....  0.580000
   Scaling of DF-GGA-C  ScalDFC         ....  1.000000
   Scaling of DF-LDA-C  ScalLDAC        ....  1.000000
   Perturbative correction              ....  0.000000
   Density functional embedding theory  .... OFF
 RI-approximation to the Coulomb term is turned on
   Number of AuxJ basis functions       .... 1167
   RIJ-ON(X) (HFX calculated with O(N)) .... on
   Number of AuxJ basis functions       .... 1167
   RIJ-COSX (HFX calculated with COS-X)).... on


General Settings:
 Integral files         IntName         .... pbeh-3c
 Hartree-Fock type      HFTyp           .... RHF
 Total Charge           Charge          ....    0
 Multiplicity           Mult            ....    1
 Number of Electrons    NEL             ....  148
 Basis Dimension        Dim             ....  334
 Nuclear Repulsion      ENuc            ....   1662.0903961315 Eh

Convergence Acceleration:
 DIIS                   CNVDIIS         .... on
   Start iteration      DIISMaxIt       ....    12
   Startup error        DIISStart       ....  0.200000
   # of expansion vecs  DIISMaxEq       ....     5
   Bias factor          DIISBfac        ....   1.050
   Max. coefficient     DIISMaxC        ....  10.000
 Trust-Rad. Augm. Hess. CNVTRAH         .... auto
   Auto Start mean grad. ratio tolernc. ....  1.125000
   Auto Start start iteration           ....    20
   Auto Start num. interpolation iter.  ....    10
   Max. Number of Micro iterations      ....    16
   Max. Number of Macro iterations      .... Maxiter - #DIIS iter
   Number of Davidson start vectors     ....     2
   Converg. threshold I  (grad. norm)   ....   1.000e-05
   Converg. threshold II (energy diff.) ....   1.000e-08
   Grad. Scal. Fac. for Micro threshold ....   0.100
   Minimum threshold for Micro iter.    ....   0.010
   NR start threshold (gradient norm)   ....   0.001
   Initial trust radius                 ....   0.400
   Minimum AH scaling param. (alpha)    ....   1.000
   Maximum AH scaling param. (alpha)    .... 1000.000
   Orbital update algorithm             .... Taylor
   White noise on init. David. guess    .... on
   Maximum white noise                  ....   0.010
   Quad. conv. algorithm                .... NR
   COSX micro iterations for RIJONX calc.... off
 SOSCF                  CNVSOSCF        .... on
   Start iteration      SOSCFMaxIt      ....   150
   Startup grad/error   SOSCFStart      ....  0.003300
 Level Shifting         CNVShift        .... on
   Level shift para.    LevelShift      ....    0.2500
   Turn off err/grad.   ShiftErr        ....    0.0010
 Zerner damping         CNVZerner       .... off
 Static damping         CNVDamp         .... on
   Fraction old density DampFac         ....    0.7000
   Max. Damping (<1)    DampMax         ....    0.9800
   Min. Damping (>=0)   DampMin         ....    0.0000
   Turn off err/grad.   DampErr         ....    0.1000
 Fernandez-Rico         CNVRico         .... off

SCF Procedure:
 Maximum # iterations   MaxIter         ....   125
 SCF integral mode      SCFMode         .... Direct
   Integral package                     .... SHARK and LIBINT hybrid scheme
 Reset frequency        DirectResetFreq ....    20
 Integral Threshold     Thresh          ....  2.500e-11 Eh
 Primitive CutOff       TCut            ....  2.500e-12 Eh

Convergence Tolerance:
 Convergence Check Mode ConvCheckMode   .... Total+1el-Energy
 Convergence forced     ConvForced      .... 0
 Energy Change          TolE            ....  1.000e-08 Eh
 1-El. energy change                    ....  1.000e-05 Eh
 Orbital Gradient       TolG            ....  1.000e-05
 Orbital Rotation angle TolX            ....  1.000e-05
 DIIS Error             TolErr          ....  5.000e-07


Diagonalization of the overlap matrix:
Smallest eigenvalue                        ... 4.118e-04
Time for diagonalization                   ...    0.039 sec
Threshold for overlap eigenvalues          ... 1.000e-08
Number of eigenvalues below threshold      ... 0
Time for construction of square roots      ...    0.110 sec
Total time needed                          ...    0.160 sec

--------------------------------
INITIAL GUESS: MINIMAL BASIS EHT
--------------------------------
The minimal basis has 117 functions
EHT matrix was diagonalized
Basis set overlap was calculated now projecting the orbitals
Using GuessMode=FMatrix for the initial guess
C*T matrix was formed
Effective Fockian was calculated
Effective Fockian was diagonalized
Initial density was built
                      ------------------
                      INITIAL GUESS DONE
                      ------------------
-------------------
DFT GRID GENERATION
-------------------

General Integration Accuracy     IntAcc      ... 4.959
Radial Grid Type                 RadialGrid  ... OptM3 with GC (2021)
Angular Grid (max. ang.)         AngularGrid ... 6 (Lebedev-590)
Angular grid pruning method      GridPruning ... 4 (adaptive)
Weight generation scheme         WeightScheme... Becke
Basis function cutoff            BFCut       ... 1.0000e-11
Integration weight cutoff        WCut        ... 1.0000e-14
Angular grids for H and He will be reduced by one unit
Partially contracted basis set               ... off
Rotationally invariant grid construction     ... off

Total number of grid points                  ...   426579
Total number of batches                      ...     6684
Average number of points per batch           ...       63
Average number of grid points per atom       ...    11529
Time for grid setup =   13.563 sec

--------------------
COSX GRID GENERATION
--------------------

GRIDX 1
-------
General Integration Accuracy     IntAcc      ... 4.020
Radial Grid Type                 RadialGrid  ... OptM3 with GC (2021)
Angular Grid (max. ang.)         AngularGrid ... 2 (Lebedev-110)
Angular grid pruning method      GridPruning ... 4 (adaptive)
Weight generation scheme         WeightScheme... Becke
Basis function cutoff            BFCut       ... 1.0000e-11
Integration weight cutoff        WCut        ... 1.0000e-14
Angular grids for H and He will be reduced by one unit
Partially contracted basis set               ... on
Rotationally invariant grid construction     ... off

Total number of grid points                  ...    47405
Total number of batches                      ...      764
Average number of points per batch           ...       62
Average number of grid points per atom       ...     1281
UseSFitting                                  ... on

GRIDX 2
-------
General Integration Accuracy     IntAcc      ... 4.338
Radial Grid Type                 RadialGrid  ... OptM3 with GC (2021)
Angular Grid (max. ang.)         AngularGrid ... 3 (Lebedev-194)
Angular grid pruning method      GridPruning ... 4 (adaptive)
Weight generation scheme         WeightScheme... Becke
Basis function cutoff            BFCut       ... 1.0000e-11
Integration weight cutoff        WCut        ... 1.0000e-14
Angular grids for H and He will be reduced by one unit
Partially contracted basis set               ... on
Rotationally invariant grid construction     ... off

Total number of grid points                  ...   103448
Total number of batches                      ...     1634
Average number of points per batch           ...       63
Average number of grid points per atom       ...     2796
UseSFitting                                  ... on

GRIDX 3
-------
General Integration Accuracy     IntAcc      ... 4.871
Radial Grid Type                 RadialGrid  ... OptM3 with GC (2021)
Angular Grid (max. ang.)         AngularGrid ... 4 (Lebedev-302)
Angular grid pruning method      GridPruning ... 4 (adaptive)
Weight generation scheme         WeightScheme... Becke
Basis function cutoff            BFCut       ... 1.0000e-11
Integration weight cutoff        WCut        ... 1.0000e-14
Angular grids for H and He will be reduced by one unit
Partially contracted basis set               ... on
Rotationally invariant grid construction     ... off

Total number of grid points                  ...   194030
Total number of batches                      ...     3051
Average number of points per batch           ...       63
Average number of grid points per atom       ...     5244
UseSFitting                                  ... on

Time for X-Grid setup             =   11.576 sec

--------------
SCF ITERATIONS
--------------
ITER       Energy         Delta-E        Max-DP      RMS-DP      [F,P]     Damp
               ***  Starting incremental Fock matrix formation  ***
  0   -965.6338232856   0.000000000000 0.20356306  0.00454172  0.5576991 0.7000
  1   -966.8048586598  -1.171035374228 0.10991764  0.00262846  0.2890009 0.7000
  2   -967.3863361140  -0.581477454222 0.05421918  0.00157589  0.2038864 0.7000
                               ***Turning on DIIS***
  3   -967.7983722002  -0.412036086207 0.04098454  0.00110529  0.1443841 0.7000
  4   -968.0961837277  -0.297811527439 0.03063869  0.00082432  0.1017345 0.7000
  5   -968.3066852439  -0.210501516291 0.07356729  0.00203250  0.0712669 0.0000
  6   -968.8068744615  -0.500189217548 0.00675891  0.00011744  0.0047798 0.0000
                      *** Initiating the SOSCF procedure ***
                           *** Shutting down DIIS ***
                      *** Re-Reading the Fockian *** 
                      *** Removing any level shift *** 
ITER      Energy       Delta-E        Grad      Rot      Max-DP    RMS-DP
  7   -968.80723362  -0.0003591541  0.000638  0.000638  0.002713  0.000057
               *** Restarting incremental Fock matrix formation ***
  8   -968.80732214  -0.0000885204  0.000690  0.001920  0.002493  0.000046
  9   -968.80734145  -0.0000193178  0.000385  0.000620  0.001865  0.000038
 10   -968.80735198  -0.0000105240  0.000111  0.000285  0.000881  0.000015
 11   -968.80735379  -0.0000018086  0.000022  0.000047  0.000124  0.000002
 12   -968.80735379  -0.0000000055  0.000023  0.000028  0.000059  0.000001
 13   -968.80735387  -0.0000000769  0.000004  0.000010  0.000018  0.000000
 14   -968.80735387  -0.0000000014  0.000006  0.000007  0.000010  0.000000
                  ***Gradient check signals convergence***
              ***Rediagonalizing the Fockian in SOSCF/NRSCF***

               *****************************************************
               *                     SUCCESS                       *
               *           SCF CONVERGED AFTER  15 CYCLES          *
               *****************************************************

Old exchange energy                            =    -53.034538114 Eh
New exchange energy                            =    -53.034538385 Eh
Exchange energy change after final integration =     -0.000000271 Eh
Total energy after final integration           =   -968.807354131 Eh
Final COS-X integration done in                =    32.365 sec

----------------
TOTAL SCF ENERGY
----------------

Total Energy       :         -968.80735413 Eh          -26362.58835 eV

Components:
Nuclear Repulsion  :         1662.09039613 Eh           45227.77901 eV
Electronic Energy  :        -2630.89775026 Eh          -71590.36737 eV
One Electron Energy:        -4623.87325721 Eh         -125821.98800 eV
Two Electron Energy:         1992.97550695 Eh           54231.62063 eV
Max COSX asymmetry :            0.00000194 Eh               0.00005 eV

Virial components:
Potential Energy   :        -1930.39439853 Eh          -52528.70209 eV
Kinetic Energy     :          961.58704440 Eh           26166.11374 eV
Virial Ratio       :            2.00750874


DFT components:
N(Alpha)           :       73.999955361493 electrons
N(Beta)            :       73.999955361493 electrons
N(Total)           :      147.999910722986 electrons
E(X)               :      -70.546387217245 Eh       
E(C)               :       -6.566902862829 Eh       
E(XC)              :      -77.113290080074 Eh       
DFET-embed. en.    :        0.000000000000 Eh       

---------------
SCF CONVERGENCE
---------------

  Last Energy change         ...    9.6754e-09  Tolerance :   1.0000e-08
  Last MAX-Density change    ...    1.9984e-15  Tolerance :   1.0000e-07
  Last RMS-Density change    ...    3.5461e-17  Tolerance :   5.0000e-09
  Last Orbital Gradient      ...    3.0578e-07  Tolerance :   1.0000e-05
  Last Orbital Rotation      ...    1.0321e-06  Tolerance :   1.0000e-05

             **** THE GBW FILE WAS UPDATED (pbeh-3c.gbw) ****
             **** DENSITY pbeh-3c.scfp WAS UPDATED ****
             **** ENERGY FILE WAS UPDATED (pbeh-3c.en.tmp) ****
             **** THE GBW FILE WAS UPDATED (pbeh-3c.gbw) ****
             **** DENSITY pbeh-3c.scfp WAS UPDATED ****
----------------
ORBITAL ENERGIES
----------------

  NO   OCC          E(Eh)            E(eV) 
   0   2.0000     -19.519803      -531.1608 
   1   2.0000     -19.491533      -530.3916 
   2   2.0000     -19.475757      -529.9623 
   3   2.0000     -19.474451      -529.9268 
   4   2.0000     -14.692351      -399.7992 
   5   2.0000     -14.679788      -399.4573 
   6   2.0000     -14.650788      -398.6682 
   7   2.0000     -10.576338      -287.7968 
   8   2.0000     -10.575797      -287.7821 
   9   2.0000     -10.561220      -287.3854 
  10   2.0000     -10.503417      -285.8125 
  11   2.0000     -10.501162      -285.7512 
  12   2.0000     -10.499793      -285.7139 
  13   2.0000     -10.475935      -285.0647 
  14   2.0000     -10.467789      -284.8430 
  15   2.0000     -10.465950      -284.7930 
  16   2.0000     -10.462769      -284.7064 
  17   2.0000     -10.459637      -284.6212 
  18   2.0000     -10.458830      -284.5992 
  19   2.0000     -10.458609      -284.5932 
  20   2.0000      -1.205388       -32.8003 
  21   2.0000      -1.173934       -31.9444 
  22   2.0000      -1.160465       -31.5779 
  23   2.0000      -1.116167       -30.3724 
  24   2.0000      -1.060633       -28.8613 
  25   2.0000      -1.043270       -28.3888 
  26   2.0000      -1.017387       -27.6845 
  27   2.0000      -0.971870       -26.4459 
  28   2.0000      -0.890160       -24.2225 
  29   2.0000      -0.867597       -23.6085 
  30   2.0000      -0.850803       -23.1515 
  31   2.0000      -0.828740       -22.5512 
  32   2.0000      -0.812110       -22.0986 
  33   2.0000      -0.743215       -20.2239 
  34   2.0000      -0.698339       -19.0028 
  35   2.0000      -0.694798       -18.9064 
  36   2.0000      -0.677782       -18.4434 
  37   2.0000      -0.671419       -18.2702 
  38   2.0000      -0.663607       -18.0577 
  39   2.0000      -0.635804       -17.3011 
  40   2.0000      -0.619473       -16.8567 
  41   2.0000      -0.596638       -16.2354 
  42   2.0000      -0.587308       -15.9815 
  43   2.0000      -0.581274       -15.8173 
  44   2.0000      -0.571069       -15.5396 
  45   2.0000      -0.545914       -14.8551 
  46   2.0000      -0.539474       -14.6798 
  47   2.0000      -0.536107       -14.5882 
  48   2.0000      -0.524527       -14.2731 
  49   2.0000      -0.517390       -14.0789 
  50   2.0000      -0.508747       -13.8437 
  51   2.0000      -0.501843       -13.6558 
  52   2.0000      -0.496812       -13.5189 
  53   2.0000      -0.494299       -13.4506 
  54   2.0000      -0.486714       -13.2442 
  55   2.0000      -0.483975       -13.1696 
  56   2.0000      -0.467419       -12.7191 
  57   2.0000      -0.462566       -12.5870 
  58   2.0000      -0.446196       -12.1416 
  59   2.0000      -0.443038       -12.0557 
  60   2.0000      -0.438813       -11.9407 
  61   2.0000      -0.436812       -11.8863 
  62   2.0000      -0.429931       -11.6990 
  63   2.0000      -0.406186       -11.0529 
  64   2.0000      -0.399510       -10.8712 
  65   2.0000      -0.364007        -9.9051 
  66   2.0000      -0.359787        -9.7903 
  67   2.0000      -0.352870        -9.6021 
  68   2.0000      -0.349880        -9.5207 
  69   2.0000      -0.319019        -8.6809 
  70   2.0000      -0.315626        -8.5886 
  71   2.0000      -0.314049        -8.5457 
  72   2.0000      -0.306223        -8.3328 
  73   2.0000      -0.299066        -8.1380 
  74   0.0000      -0.003972        -0.1081 
  75   0.0000      -0.000556        -0.0151 
  76   0.0000       0.026321         0.7162 
  77   0.0000       0.040431         1.1002 
  78   0.0000       0.047692         1.2978 
  79   0.0000       0.102568         2.7910 
  80   0.0000       0.124541         3.3889 
  81   0.0000       0.134784         3.6677 
  82   0.0000       0.147889         4.0243 
  83   0.0000       0.155471         4.2306 
  84   0.0000       0.169474         4.6116 
  85   0.0000       0.170972         4.6524 
  86   0.0000       0.181327         4.9341 
  87   0.0000       0.187355         5.0982 
  88   0.0000       0.190476         5.1831 
  89   0.0000       0.197943         5.3863 
  90   0.0000       0.201346         5.4789 
  91   0.0000       0.209330         5.6961 
  92   0.0000       0.211915         5.7665 
  93   0.0000       0.214386         5.8337 
  94   0.0000       0.219039         5.9604 
  95   0.0000       0.226608         6.1663 
  96   0.0000       0.232943         6.3387 
  97   0.0000       0.236310         6.4303 
  98   0.0000       0.241641         6.5754 
  99   0.0000       0.249354         6.7853 
 100   0.0000       0.258952         7.0464 
 101   0.0000       0.261190         7.1073 
 102   0.0000       0.268872         7.3164 
 103   0.0000       0.292588         7.9617 
 104   0.0000       0.305181         8.3044 
 105   0.0000       0.317655         8.6438 
 106   0.0000       0.325140         8.8475 
 107   0.0000       0.332350         9.0437 
 108   0.0000       0.344738         9.3808 
 109   0.0000       0.361722         9.8429 
 110   0.0000       0.380381        10.3507 
 111   0.0000       0.392452        10.6792 
 112   0.0000       0.412769        11.2320 
 113   0.0000       0.442017        12.0279 
 114   0.0000       0.452177        12.3044 
 115   0.0000       0.457014        12.4360 
 116   0.0000       0.479117        13.0374 
 117   0.0000       0.495288        13.4775 
 118   0.0000       0.511794        13.9266 
 119   0.0000       0.513253        13.9663 
 120   0.0000       0.528258        14.3746 
 121   0.0000       0.538121        14.6430 
 122   0.0000       0.542521        14.7628 
 123   0.0000       0.553462        15.0605 
 124   0.0000       0.560099        15.2411 
 125   0.0000       0.566984        15.4284 
 126   0.0000       0.573302        15.6003 
 127   0.0000       0.581704        15.8290 
 128   0.0000       0.589846        16.0505 
 129   0.0000       0.594772        16.1846 
 130   0.0000       0.604146        16.4397 
 131   0.0000       0.607114        16.5204 
 132   0.0000       0.618961        16.8428 
 133   0.0000       0.619832        16.8665 
 134   0.0000       0.625202        17.0126 
 135   0.0000       0.641099        17.4452 
 136   0.0000       0.648803        17.6548 
 137   0.0000       0.659904        17.9569 
 138   0.0000       0.661475        17.9996 
 139   0.0000       0.663779        18.0624 
 140   0.0000       0.679812        18.4986 
 141   0.0000       0.696908        18.9638 
 142   0.0000       0.705972        19.2105 
 143   0.0000       0.714045        19.4302 
 144   0.0000       0.724233        19.7074 
 145   0.0000       0.735779        20.0216 
 146   0.0000       0.750368        20.4185 
 147   0.0000       0.769498        20.9391 
 148   0.0000       0.774763        21.0824 
 149   0.0000       0.790791        21.5185 
 150   0.0000       0.801537        21.8109 
 151   0.0000       0.807479        21.9726 
 152   0.0000       0.830772        22.6065 
 153   0.0000       0.841321        22.8935 
 154   0.0000       0.863496        23.4969 
 155   0.0000       0.876319        23.8459 
 156   0.0000       0.896913        24.4063 
 157   0.0000       0.901805        24.5394 
 158   0.0000       0.903051        24.5733 
 159   0.0000       0.911580        24.8053 
 160   0.0000       0.923600        25.1324 
 161   0.0000       0.939397        25.5623 
 162   0.0000       0.948560        25.8116 
 163   0.0000       0.951189        25.8832 
 164   0.0000       0.962328        26.1863 
 165   0.0000       0.971650        26.4399 
 166   0.0000       0.974889        26.5281 
 167   0.0000       0.987734        26.8776 
 168   0.0000       0.992420        27.0051 
 169   0.0000       0.993182        27.0258 
 170   0.0000       1.010029        27.4843 
 171   0.0000       1.022164        27.8145 
 172   0.0000       1.026423        27.9304 
 173   0.0000       1.031892        28.0792 
 174   0.0000       1.043812        28.4036 
 175   0.0000       1.050175        28.5767 
 176   0.0000       1.053334        28.6627 
 177   0.0000       1.069330        29.0980 
 178   0.0000       1.073471        29.2106 
 179   0.0000       1.081996        29.4426 
 180   0.0000       1.091791        29.7091 
 181   0.0000       1.101099        29.9624 
 182   0.0000       1.109859        30.2008 
 183   0.0000       1.124716        30.6051 
 184   0.0000       1.138967        30.9929 
 185   0.0000       1.148049        31.2400 
 186   0.0000       1.162116        31.6228 
 187   0.0000       1.174914        31.9710 
 188   0.0000       1.183316        32.1997 
 189   0.0000       1.200043        32.6548 
 190   0.0000       1.214691        33.0534 
 191   0.0000       1.223115        33.2826 
 192   0.0000       1.227065        33.3901 
 193   0.0000       1.250082        34.0165 
 194   0.0000       1.266712        34.4690 
 195   0.0000       1.283574        34.9278 
 196   0.0000       1.292932        35.1825 
 197   0.0000       1.305825        35.5333 
 198   0.0000       1.316267        35.8174 
 199   0.0000       1.333393        36.2835 
 200   0.0000       1.338284        36.4166 
 201   0.0000       1.361958        37.0608 
 202   0.0000       1.374824        37.4109 
 203   0.0000       1.404972        38.2312 
 204   0.0000       1.438820        39.1523 
 205   0.0000       1.445518        39.3345 
 206   0.0000       1.466967        39.9182 
 207   0.0000       1.470339        40.0100 
 208   0.0000       1.482075        40.3293 
 209   0.0000       1.489174        40.5225 
 210   0.0000       1.498187        40.7677 
 211   0.0000       1.516746        41.2728 
 212   0.0000       1.527765        41.5726 
 213   0.0000       1.540290        41.9134 
 214   0.0000       1.548319        42.1319 
 215   0.0000       1.560164        42.4542 
 216   0.0000       1.568826        42.6899 
 217   0.0000       1.592695        43.3394 
 218   0.0000       1.601872        43.5892 
 219   0.0000       1.618539        44.0427 
 220   0.0000       1.644128        44.7390 
 221   0.0000       1.652951        44.9791 
 222   0.0000       1.674661        45.5699 
 223   0.0000       1.698523        46.2192 
 224   0.0000       1.719018        46.7769 
 225   0.0000       1.770360        48.1739 
 226   0.0000       1.785270        48.5797 
 227   0.0000       1.794686        48.8359 
 228   0.0000       1.811267        49.2871 
 229   0.0000       1.819170        49.5021 
 230   0.0000       1.837830        50.0099 
 231   0.0000       1.850321        50.3498 
 232   0.0000       1.852002        50.3955 
 233   0.0000       1.865785        50.7706 
 234   0.0000       1.869173        50.8628 
 235   0.0000       1.881878        51.2085 
 236   0.0000       1.899560        51.6897 
 237   0.0000       1.911316        52.0095 
 238   0.0000       1.921788        52.2945 
 239   0.0000       1.933468        52.6123 
 240   0.0000       1.956157        53.2297 
 241   0.0000       1.960057        53.3358 
 242   0.0000       1.977678        53.8153 
 243   0.0000       1.985006        54.0148 
 244   0.0000       1.997201        54.3466 
 245   0.0000       2.005740        54.5790 
 246   0.0000       2.018946        54.9383 
 247   0.0000       2.053785        55.8863 
 248   0.0000       2.056926        55.9718 
 249   0.0000       2.060570        56.0709 
 250   0.0000       2.067359        56.2557 
 251   0.0000       2.096415        57.0463 
 252   0.0000       2.104176        57.2575 
 253   0.0000       2.111659        57.4612 
 254   0.0000       2.115003        57.5522 
 255   0.0000       2.136860        58.1469 
 256   0.0000       2.149113        58.4803 
 257   0.0000       2.154518        58.6274 
 258   0.0000       2.165282        58.9203 
 259   0.0000       2.178629        59.2835 
 260   0.0000       2.183376        59.4127 
 261   0.0000       2.194222        59.7078 
 262   0.0000       2.205456        60.0135 
 263   0.0000       2.221566        60.4519 
 264   0.0000       2.241271        60.9881 
 265   0.0000       2.254663        61.3525 
 266   0.0000       2.258243        61.4499 
 267   0.0000       2.278593        62.0037 
 268   0.0000       2.292625        62.3855 
 269   0.0000       2.323940        63.2376 
 270   0.0000       2.331613        63.4464 
 271   0.0000       2.359546        64.2065 
 272   0.0000       2.362606        64.2898 
 273   0.0000       2.373224        64.5787 
 274   0.0000       2.393255        65.1238 
 275   0.0000       2.416381        65.7531 
 276   0.0000       2.431669        66.1691 
 277   0.0000       2.450468        66.6806 
 278   0.0000       2.466246        67.1100 
 279   0.0000       2.510432        68.3123 
 280   0.0000       2.517538        68.5057 
 281   0.0000       2.532790        68.9207 
 282   0.0000       2.546698        69.2992 
 283   0.0000       2.579284        70.1859 
 284   0.0000       2.595097        70.6162 
 285   0.0000       2.601144        70.7807 
 286   0.0000       2.622778        71.3694 
 287   0.0000       2.658144        72.3318 
 288   0.0000       2.672560        72.7241 
 289   0.0000       2.683318        73.0168 
 290   0.0000       2.698449        73.4285 
 291   0.0000       2.714424        73.8632 
 292   0.0000       2.727728        74.2252 
 293   0.0000       2.732829        74.3640 
 294   0.0000       2.754927        74.9654 
 295   0.0000       2.764942        75.2379 
 296   0.0000       2.779754        75.6409 
 297   0.0000       2.784564        75.7718 
 298   0.0000       2.791438        75.9589 
 299   0.0000       2.810427        76.4756 
 300   0.0000       2.817289        76.6623 
 301   0.0000       2.817932        76.6798 
 302   0.0000       2.914501        79.3076 
 303   0.0000       2.930443        79.7414 
 304   0.0000       2.952800        80.3498 
 305   0.0000       2.978120        81.0388 
 306   0.0000       3.037021        82.6416 
 307   0.0000       3.052079        83.0513 
 308   0.0000       3.085905        83.9718 
 309   0.0000       3.102131        84.4133 
 310   0.0000       3.178046        86.4790 
 311   0.0000       3.222635        87.6924 
 312   0.0000       3.255877        88.5969 
 313   0.0000       3.449884        93.8761 
 314   0.0000      13.282712       361.4410 
 315   0.0000      13.600969       370.1012 
 316   0.0000      13.666782       371.8920 
 317   0.0000      13.679071       372.2264 
 318   0.0000      13.741102       373.9144 
 319   0.0000      13.816573       375.9681 
 320   0.0000      14.003288       381.0488 
 321   0.0000      14.044961       382.1828 
 322   0.0000      14.067783       382.8038 
 323   0.0000      14.096828       383.5942 
 324   0.0000      14.141337       384.8053 
 325   0.0000      14.168754       385.5514 
 326   0.0000      14.538166       395.6036 
 327   0.0000      19.169648       521.6326 
 328   0.0000      19.294899       525.0409 
 329   0.0000      19.373998       527.1933 
 330   0.0000      25.592479       696.4068 
 331   0.0000      25.738706       700.3858 
 332   0.0000      25.790274       701.7890 
 333   0.0000      25.806628       702.2340 

                    ********************************
                    * MULLIKEN POPULATION ANALYSIS *
                    ********************************

-----------------------
MULLIKEN ATOMIC CHARGES
-----------------------
   0 O :   -0.394288
   1 C :    0.545496
   2 O :   -0.585399
   3 H :    0.476531
   4 C :   -0.455431
   5 H :    0.274811
   6 H :    0.278082
   7 N :   -0.616138
   8 H :    0.405661
   9 C :    0.540909
  10 O :   -0.486724
  11 C :   -0.375297
  12 H :    0.272665
  13 H :    0.301292
  14 N :   -0.660809
  15 H :    0.396438
  16 C :    0.546900
  17 O :   -0.428859
  18 C :   -0.217964
  19 N :   -0.782661
  20 H :    0.345217
  21 H :    0.341889
  22 H :    0.268572
  23 C :   -0.514190
  24 H :    0.272700
  25 H :    0.236952
  26 C :    0.106334
  27 C :   -0.285844
  28 H :    0.264919
  29 C :   -0.248468
  30 H :    0.263517
  31 C :   -0.256722
  32 H :    0.265332
  33 C :   -0.225061
  34 H :    0.226481
  35 C :   -0.313347
  36 H :    0.216503
Sum of atomic charges:    0.0000000

--------------------------------
MULLIKEN REDUCED ORBITAL CHARGES
--------------------------------
  0 O s       :     3.761037  s :     3.761037
      pz      :     1.642579  p :     4.602981
      px      :     1.539508
      py      :     1.420894
      dz2     :     0.003496  d :     0.030271
      dxz     :     0.000840
      dyz     :     0.008353
      dx2y2   :     0.008058
      dxy     :     0.009525
  1 C s       :     2.961593  s :     2.961593
      pz      :     0.799527  p :     2.355551
      px      :     0.778218
      py      :     0.777806
      dz2     :     0.017417  d :     0.137359
      dxz     :     0.010144
      dyz     :     0.045120
      dx2y2   :     0.028052
      dxy     :     0.036627
  2 O s       :     3.796283  s :     3.796283
      pz      :     1.684032  p :     4.758670
      px      :     1.734223
      py      :     1.340415
      dz2     :     0.004844  d :     0.030445
      dxz     :     0.005403
      dyz     :     0.010381
      dx2y2   :     0.003529
      dxy     :     0.006288
  3 H s       :     0.523469  s :     0.523469
  4 C s       :     3.340455  s :     3.340455
      pz      :     1.043258  p :     3.060227
      px      :     0.903858
      py      :     1.113111
      dz2     :     0.005878  d :     0.054749
      dxz     :     0.015575
      dyz     :     0.011290
      dx2y2   :     0.007217
      dxy     :     0.014788
  5 H s       :     0.725189  s :     0.725189
  6 H s       :     0.721918  s :     0.721918
  7 N s       :     3.545306  s :     3.545306
      pz      :     1.616376  p :     4.035869
      px      :     1.249547
      py      :     1.169946
      dz2     :     0.004249  d :     0.034963
      dxz     :     0.003205
      dyz     :     0.005588
      dx2y2   :     0.010772
      dxy     :     0.011149
  8 H s       :     0.594339  s :     0.594339
  9 C s       :     2.979866  s :     2.979866
      pz      :     0.741883  p :     2.359294
      px      :     0.852884
      py      :     0.764526
      dz2     :     0.008338  d :     0.119931
      dxz     :     0.018166
      dyz     :     0.018954
      dx2y2   :     0.042554
      dxy     :     0.031920
 10 O s       :     3.784258  s :     3.784258
      pz      :     1.529383  p :     4.674001
      px      :     1.439184
      py      :     1.705434
      dz2     :     0.002783  d :     0.028464
      dxz     :     0.007228
      dyz     :     0.003089
      dx2y2   :     0.006706
      dxy     :     0.008659
 11 C s       :     3.314981  s :     3.314981
      pz      :     1.195943  p :     3.004816
      px      :     0.781177
      py      :     1.027696
      dz2     :     0.012467  d :     0.055500
      dxz     :     0.006086
      dyz     :     0.006486
      dx2y2   :     0.015745
      dxy     :     0.014716
 12 H s       :     0.727335  s :     0.727335
 13 H s       :     0.698708  s :     0.698708
 14 N s       :     3.550688  s :     3.550688
      pz      :     1.270303  p :     4.075185
      px      :     1.253675
      py      :     1.551207
      dz2     :     0.010359  d :     0.034935
      dxz     :     0.009977
      dyz     :     0.003651
      dx2y2   :     0.005264
      dxy     :     0.005684
 15 H s       :     0.603562  s :     0.603562
 16 C s       :     2.973600  s :     2.973600
      pz      :     0.794754  p :     2.358652
      px      :     0.798023
      py      :     0.765875
      dz2     :     0.027897  d :     0.120848
      dxz     :     0.044099
      dyz     :     0.033037
      dx2y2   :     0.007662
      dxy     :     0.008154
 17 O s       :     3.767083  s :     3.767083
      pz      :     1.383264  p :     4.632546
      px      :     1.701135
      py      :     1.548147
      dz2     :     0.011214  d :     0.029230
      dxz     :     0.007719
      dyz     :     0.009638
      dx2y2   :     0.000369
      dxy     :     0.000290
 18 C s       :     3.271464  s :     3.271464
      pz      :     0.797988  p :     2.885493
      px      :     1.104371
      py      :     0.983134
      dz2     :     0.018568  d :     0.061007
      dxz     :     0.009652
      dyz     :     0.014495
      dx2y2   :     0.005870
      dxy     :     0.012422
 19 N s       :     3.623127  s :     3.623127
      pz      :     1.201323  p :     4.124878
      px      :     1.341881
      py      :     1.581674
      dz2     :     0.010072  d :     0.034655
      dxz     :     0.006362
      dyz     :     0.004151
      dx2y2   :     0.008449
      dxy     :     0.005622
 20 H s       :     0.654783  s :     0.654783
 21 H s       :     0.658111  s :     0.658111
 22 H s       :     0.731428  s :     0.731428
 23 C s       :     3.368373  s :     3.368373
      pz      :     1.153526  p :     3.103233
      px      :     1.003579
      py      :     0.946128
      dz2     :     0.011544  d :     0.042584
      dxz     :     0.004942
      dyz     :     0.006454
      dx2y2   :     0.007834
      dxy     :     0.011810
 24 H s       :     0.727300  s :     0.727300
 25 H s       :     0.763048  s :     0.763048
 26 C s       :     3.152142  s :     3.152142
      pz      :     0.882224  p :     2.695846
      px      :     0.871405
      py      :     0.942217
      dz2     :     0.010183  d :     0.045678
      dxz     :     0.010871
      dyz     :     0.007322
      dx2y2   :     0.008322
      dxy     :     0.008980
 27 C s       :     3.280436  s :     3.280436
      pz      :     1.055650  p :     2.966164
      px      :     0.897925
      py      :     1.012589
      dz2     :     0.007033  d :     0.039243
      dxz     :     0.009380
      dyz     :     0.007732
      dx2y2   :     0.007735
      dxy     :     0.007364
 28 H s       :     0.735081  s :     0.735081
 29 C s       :     3.264943  s :     3.264943
      pz      :     0.996971  p :     2.943747
      px      :     1.003094
      py      :     0.943682
      dz2     :     0.007206  d :     0.039778
      dxz     :     0.012224
      dyz     :     0.005766
      dx2y2   :     0.008116
      dxy     :     0.006466
 30 H s       :     0.736483  s :     0.736483
 31 C s       :     3.261313  s :     3.261313
      pz      :     0.931439  p :     2.955856
      px      :     1.028608
      py      :     0.995809
      dz2     :     0.009489  d :     0.039553
      dxz     :     0.009160
      dyz     :     0.006407
      dx2y2   :     0.006427
      dxy     :     0.008069
 32 H s       :     0.734668  s :     0.734668
 33 C s       :     3.253419  s :     3.253419
      pz      :     1.022898  p :     2.931946
      px      :     0.909756
      py      :     0.999292
      dz2     :     0.007232  d :     0.039696
      dxz     :     0.008927
      dyz     :     0.007791
      dx2y2   :     0.007910
      dxy     :     0.007836
 34 H s       :     0.773519  s :     0.773519
 35 C s       :     3.277397  s :     3.277397
      pz      :     0.998016  p :     2.996598
      px      :     1.015135
      py      :     0.983447
      dz2     :     0.006652  d :     0.039352
      dxz     :     0.012240
      dyz     :     0.005571
      dx2y2   :     0.008424
      dxy     :     0.006465
 36 H s       :     0.783497  s :     0.783497


                     *******************************
                     * LOEWDIN POPULATION ANALYSIS *
                     *******************************

----------------------
LOEWDIN ATOMIC CHARGES
----------------------
   0 O :   -0.222727
   1 C :    0.119838
   2 O :   -0.295784
   3 H :    0.328816
   4 C :   -0.190234
   5 H :    0.154259
   6 H :    0.155163
   7 N :   -0.209979
   8 H :    0.274340
   9 C :    0.112633
  10 O :   -0.303779
  11 C :   -0.169351
  12 H :    0.154506
  13 H :    0.178313
  14 N :   -0.244077
  15 H :    0.270571
  16 C :    0.106413
  17 O :   -0.278356
  18 C :   -0.104847
  19 N :   -0.465093
  20 H :    0.231986
  21 H :    0.236855
  22 H :    0.147420
  23 C :   -0.227428
  24 H :    0.156434
  25 H :    0.134145
  26 C :   -0.062518
  27 C :   -0.140343
  28 H :    0.154699
  29 C :   -0.133046
  30 H :    0.153459
  31 C :   -0.142755
  32 H :    0.152677
  33 C :   -0.140431
  34 H :    0.138896
  35 C :   -0.162066
  36 H :    0.131394

-------------------------------
LOEWDIN REDUCED ORBITAL CHARGES
-------------------------------
  0 O s       :     3.517228  s :     3.517228
      pz      :     1.626778  p :     4.649386
      px      :     1.525755
      py      :     1.496854
      dz2     :     0.006856  d :     0.056113
      dxz     :     0.001515
      dyz     :     0.014852
      dx2y2   :     0.017555
      dxy     :     0.015335
  1 C s       :     2.841269  s :     2.841269
      pz      :     0.906608  p :     2.729546
      px      :     0.838210
      py      :     0.984727
      dz2     :     0.039270  d :     0.309348
      dxz     :     0.022700
      dyz     :     0.102000
      dx2y2   :     0.066804
      dxy     :     0.078574
  2 O s       :     3.491654  s :     3.491654
      pz      :     1.688266  p :     4.750171
      px      :     1.724406
      py      :     1.337499
      dz2     :     0.007195  d :     0.053959
      dxz     :     0.007692
      dyz     :     0.019225
      dx2y2   :     0.007941
      dxy     :     0.011906
  3 H s       :     0.671184  s :     0.671184
  4 C s       :     2.916261  s :     2.916261
      pz      :     1.093166  p :     3.160899
      px      :     0.990097
      py      :     1.077636
      dz2     :     0.012118  d :     0.113074
      dxz     :     0.033893
      dyz     :     0.021501
      dx2y2   :     0.014828
      dxy     :     0.030734
  5 H s       :     0.845741  s :     0.845741
  6 H s       :     0.844837  s :     0.844837
  7 N s       :     3.100102  s :     3.100102
      pz      :     1.572808  p :     4.026556
      px      :     1.231194
      py      :     1.222554
      dz2     :     0.007458  d :     0.083321
      dxz     :     0.007039
      dyz     :     0.012302
      dx2y2   :     0.028170
      dxy     :     0.028352
  8 H s       :     0.725660  s :     0.725660
  9 C s       :     2.831057  s :     2.831057
      pz      :     0.779390  p :     2.782711
      px      :     1.035352
      py      :     0.967969
      dz2     :     0.018985  d :     0.273599
      dxz     :     0.037529
      dyz     :     0.040537
      dx2y2   :     0.100536
      dxy     :     0.076012
 10 O s       :     3.522521  s :     3.522521
      pz      :     1.518604  p :     4.726888
      px      :     1.507568
      py      :     1.700716
      dz2     :     0.006335  d :     0.054370
      dxz     :     0.009915
      dyz     :     0.004008
      dx2y2   :     0.015295
      dxy     :     0.018817
 11 C s       :     2.898160  s :     2.898160
      pz      :     1.144690  p :     3.153714
      px      :     0.940097
      py      :     1.068928
      dz2     :     0.024178  d :     0.117476
      dxz     :     0.013224
      dyz     :     0.011959
      dx2y2   :     0.034015
      dxy     :     0.034101
 12 H s       :     0.845494  s :     0.845494
 13 H s       :     0.821687  s :     0.821687
 14 N s       :     3.104526  s :     3.104526
      pz      :     1.246312  p :     4.055885
      px      :     1.280821
      py      :     1.528752
      dz2     :     0.022757  d :     0.083667
      dxz     :     0.025558
      dyz     :     0.009296
      dx2y2   :     0.012404
      dxy     :     0.013651
 15 H s       :     0.729429  s :     0.729429
 16 C s       :     2.831741  s :     2.831741
      pz      :     1.015612  p :     2.784586
      px      :     0.942774
      py      :     0.826201
      dz2     :     0.066668  d :     0.277260
      dxz     :     0.105197
      dyz     :     0.072127
      dx2y2   :     0.015477
      dxy     :     0.017791
 17 O s       :     3.521180  s :     3.521180
      pz      :     1.468830  p :     4.701270
      px      :     1.689000
      py      :     1.543439
      dz2     :     0.025648  d :     0.055907
      dxz     :     0.014364
      dyz     :     0.014808
      dx2y2   :     0.000493
      dxy     :     0.000593
 18 C s       :     2.878680  s :     2.878680
      pz      :     0.938955  p :     3.092347
      px      :     1.092939
      py      :     1.060453
      dz2     :     0.041446  d :     0.133819
      dxz     :     0.021002
      dyz     :     0.033381
      dx2y2   :     0.013288
      dxy     :     0.024703
 19 N s       :     3.236829  s :     3.236829
      pz      :     1.266047  p :     4.165172
      px      :     1.334931
      py      :     1.564194
      dz2     :     0.020377  d :     0.063091
      dxz     :     0.014229
      dyz     :     0.009016
      dx2y2   :     0.011360
      dxy     :     0.008111
 20 H s       :     0.768014  s :     0.768014
 21 H s       :     0.763145  s :     0.763145
 22 H s       :     0.852580  s :     0.852580
 23 C s       :     2.906674  s :     2.906674
      pz      :     1.116240  p :     3.232566
      px      :     1.069045
      py      :     1.047280
      dz2     :     0.021479  d :     0.088189
      dxz     :     0.009548
      dyz     :     0.014055
      dx2y2   :     0.018103
      dxy     :     0.025006
 24 H s       :     0.843566  s :     0.843566
 25 H s       :     0.865855  s :     0.865855
 26 C s       :     2.851067  s :     2.851067
      pz      :     1.055037  p :     3.101967
      px      :     1.048790
      py      :     0.998139
      dz2     :     0.024351  d :     0.109484
      dxz     :     0.027400
      dyz     :     0.017748
      dx2y2   :     0.019223
      dxy     :     0.020763
 27 C s       :     2.896196  s :     2.896196
      pz      :     1.062339  p :     3.155306
      px      :     1.066316
      py      :     1.026650
      dz2     :     0.015485  d :     0.088841
      dxz     :     0.023450
      dyz     :     0.013646
      dx2y2   :     0.018732
      dxy     :     0.017527
 28 H s       :     0.845301  s :     0.845301
 29 C s       :     2.897786  s :     2.897786
      pz      :     1.057068  p :     3.145545
      px      :     1.076955
      py      :     1.011522
      dz2     :     0.016712  d :     0.089715
      dxz     :     0.026361
      dyz     :     0.013831
      dx2y2   :     0.017320
      dxy     :     0.015491
 30 H s       :     0.846541  s :     0.846541
 31 C s       :     2.897852  s :     2.897852
      pz      :     1.058454  p :     3.155734
      px      :     1.077671
      py      :     1.019608
      dz2     :     0.021827  d :     0.089169
      dxz     :     0.023003
      dyz     :     0.015217
      dx2y2   :     0.013316
      dxy     :     0.015805
 32 H s       :     0.847323  s :     0.847323
 33 C s       :     2.895184  s :     2.895184
      pz      :     1.056963  p :     3.155386
      px      :     1.078826
      py      :     1.019597
      dz2     :     0.015845  d :     0.089860
      dxz     :     0.022474
      dyz     :     0.013794
      dx2y2   :     0.019262
      dxy     :     0.018486
 34 H s       :     0.861104  s :     0.861104
 35 C s       :     2.894159  s :     2.894159
      pz      :     1.056803  p :     3.178509
      px      :     1.075577
      py      :     1.046129
      dz2     :     0.015702  d :     0.089398
      dxz     :     0.026435
      dyz     :     0.013273
      dx2y2   :     0.018123
      dxy     :     0.015866
 36 H s       :     0.868606  s :     0.868606


                      *****************************
                      * MAYER POPULATION ANALYSIS *
                      *****************************

  NA   - Mulliken gross atomic population
  ZA   - Total nuclear charge
  QA   - Mulliken gross atomic charge
  VA   - Mayer's total valence
  BVA  - Mayer's bonded valence
  FA   - Mayer's free valence

  ATOM       NA         ZA         QA         VA         BVA        FA
  0 O      8.3943     8.0000    -0.3943     2.2005     2.2005     0.0000
  1 C      5.4545     6.0000     0.5455     4.1266     4.1266     0.0000
  2 O      8.5854     8.0000    -0.5854     2.0000     2.0000     0.0000
  3 H      0.5235     1.0000     0.4765     0.7918     0.7918     0.0000
  4 C      6.4554     6.0000    -0.4554     3.6596     3.6596     0.0000
  5 H      0.7252     1.0000     0.2748     0.8994     0.8994     0.0000
  6 H      0.7219     1.0000     0.2781     0.8864     0.8864     0.0000
  7 N      7.6161     7.0000    -0.6161     3.0088     3.0088    -0.0000
  8 H      0.5943     1.0000     0.4057     0.8253     0.8253    -0.0000
  9 C      5.4591     6.0000     0.5409     3.9355     3.9355     0.0000
 10 O      8.4867     8.0000    -0.4867     2.1261     2.1261    -0.0000
 11 C      6.3753     6.0000    -0.3753     3.6374     3.6374     0.0000
 12 H      0.7273     1.0000     0.2727     0.8910     0.8910     0.0000
 13 H      0.6987     1.0000     0.3013     0.8940     0.8940     0.0000
 14 N      7.6608     7.0000    -0.6608     2.9580     2.9580     0.0000
 15 H      0.6036     1.0000     0.3964     0.8396     0.8396    -0.0000
 16 C      5.4531     6.0000     0.5469     3.9578     3.9578    -0.0000
 17 O      8.4289     8.0000    -0.4289     2.1841     2.1841     0.0000
 18 C      6.2180     6.0000    -0.2180     3.7374     3.7374     0.0000
 19 N      7.7827     7.0000    -0.7827     2.7761     2.7761     0.0000
 20 H      0.6548     1.0000     0.3452     0.8547     0.8547    -0.0000
 21 H      0.6581     1.0000     0.3419     0.8525     0.8525    -0.0000
 22 H      0.7314     1.0000     0.2686     0.8855     0.8855     0.0000
 23 C      6.5142     6.0000    -0.5142     3.6873     3.6873     0.0000
 24 H      0.7273     1.0000     0.2727     0.8950     0.8950     0.0000
 25 H      0.7630     1.0000     0.2370     0.9040     0.9040     0.0000
 26 C      5.8937     6.0000     0.1063     3.7010     3.7010    -0.0000
 27 C      6.2858     6.0000    -0.2858     3.7805     3.7805     0.0000
 28 H      0.7351     1.0000     0.2649     0.9092     0.9092     0.0000
 29 C      6.2485     6.0000    -0.2485     3.7967     3.7967    -0.0000
 30 H      0.7365     1.0000     0.2635     0.9019     0.9019     0.0000
 31 C      6.2567     6.0000    -0.2567     3.7936     3.7936     0.0000
 32 H      0.7347     1.0000     0.2653     0.9029     0.9029     0.0000
 33 C      6.2251     6.0000    -0.2251     3.8065     3.8065     0.0000
 34 H      0.7735     1.0000     0.2265     0.9107     0.9107    -0.0000
 35 C      6.3133     6.0000    -0.3133     3.8230     3.8230     0.0000
 36 H      0.7835     1.0000     0.2165     0.9169     0.9169     0.0000

  Mayer bond orders larger than 0.100000
B(  0-O ,  1-C ) :   2.0273 B(  1-C ,  2-O ) :   1.2184 B(  1-C ,  4-C ) :   0.9054 
B(  2-O ,  3-H ) :   0.6353 B(  3-H , 10-O ) :   0.1349 B(  4-C ,  5-H ) :   0.8951 
B(  4-C ,  6-H ) :   0.8828 B(  4-C ,  7-N ) :   0.9338 B(  7-N ,  8-H ) :   0.7696 
B(  7-N ,  9-C ) :   1.2145 B(  9-C , 10-O ) :   1.8013 B(  9-C , 11-C ) :   0.9233 
B( 11-C , 12-H ) :   0.8970 B( 11-C , 13-H ) :   0.8663 B( 11-C , 14-N ) :   0.9331 
B( 14-N , 15-H ) :   0.7601 B( 14-N , 16-C ) :   1.1406 B( 16-C , 17-O ) :   1.9677 
B( 16-C , 18-C ) :   0.8998 B( 18-C , 19-N ) :   1.0197 B( 18-C , 22-H ) :   0.8943 
B( 18-C , 23-C ) :   0.9432 B( 19-N , 20-H ) :   0.8278 B( 19-N , 21-H ) :   0.8520 
B( 23-C , 24-H ) :   0.8948 B( 23-C , 25-H ) :   0.9188 B( 23-C , 26-C ) :   0.9541 
B( 26-C , 27-C ) :   1.3946 B( 26-C , 35-C ) :   1.3853 B( 27-C , 28-H ) :   0.8943 
B( 27-C , 29-C ) :   1.4153 B( 29-C , 30-H ) :   0.9011 B( 29-C , 31-C ) :   1.4186 
B( 31-C , 32-H ) :   0.8965 B( 31-C , 33-C ) :   1.4169 B( 33-C , 34-H ) :   0.9187 
B( 33-C , 35-C ) :   1.4183 B( 35-C , 36-H ) :   0.9206 

-------
TIMINGS
-------

Total SCF time: 0 days 0 hours 6 min 12 sec 

Total time                  ....     372.857 sec
Sum of individual times     ....     367.163 sec  ( 98.5%)

Fock matrix formation       ....     333.775 sec  ( 89.5%)
  Split-RI-J                ....      24.632 sec  (  7.4% of F)
  Chain of spheres X        ....     245.486 sec  ( 73.5% of F)
  XC integration            ....      50.775 sec  ( 15.2% of F)
    Basis function eval.    ....      16.116 sec  ( 31.7% of XC)
    Density eval.           ....      10.023 sec  ( 19.7% of XC)
    XC-Functional eval.     ....       3.675 sec  (  7.2% of XC)
    XC-Potential eval.      ....       5.449 sec  ( 10.7% of XC)
Diagonalization             ....       1.878 sec  (  0.5%)
Density matrix formation    ....       0.400 sec  (  0.1%)
Population analysis         ....       0.674 sec  (  0.2%)
Initial guess               ....       0.282 sec  (  0.1%)
Orbital Transformation      ....       0.000 sec  (  0.0%)
Orbital Orthonormalization  ....       0.000 sec  (  0.0%)
DIIS solution               ....       1.996 sec  (  0.5%)
SOSCF solution              ....       3.020 sec  (  0.8%)
Grid generation             ....      25.138 sec  (  6.7%)

Maximum memory used throughout the entire SCF-calculation: 115.9 MB


-------------------------------------------------------------------------------
                          DFT DISPERSION CORRECTION                            
                                                                               
                              DFTD3 V3.1  Rev 1                                
                          USING Becke-Johnson damping                          
-------------------------------------------------------------------------------
The PBEh-3c composite method is recognized
Using three-body term ABC
Active option DFTDOPT                   ...         4   

molecular C6(AA) [au] = 13829.437505 


            DFT-D V3
 parameters
 s6 scaling factor         :     1.0000 
 a1 scaling factor         :     0.4860 
 s8 scaling factor         :     0.0000 
 a2 scaling factor         :     4.5000 
 Damping factor alpha9(ATM):    16.0000 
 ad hoc parameters k1-k3   :    16.0000     1.3333    -4.0000 

 Edisp/kcal,au: -18.107543868030  -0.028856204862 
 E6   /kcal   : -18.492464134 
 E8   /kcal   :  -0.000000000 
 E6(ABC)      :   0.384920266 
 % E8         :   0.000000000 
 % E6(ABC)    :  -2.125745319 

-------------------------   ----------------
Dispersion correction           -0.028856205
-------------------------   ----------------

------------------   -----------------
gCP correction             0.086706344
------------------   -----------------

-------------------------   --------------------
FINAL SINGLE POINT ENERGY      -968.749503992320
-------------------------   --------------------


                            ***************************************
                            *     ORCA property calculations      *
                            ***************************************

                                    ---------------------
                                    Active property flags
                                    ---------------------
   (+) Dipole Moment


------------------------------------------------------------------------------
                       ORCA ELECTRIC PROPERTIES CALCULATION
------------------------------------------------------------------------------

Dipole Moment Calculation                       ... on
Quadrupole Moment Calculation                   ... off
Polarizability Calculation                      ... off
GBWName                                         ... pbeh-3c.gbw
Electron density                                ... pbeh-3c.scfp
The origin for moment calculation is the CENTER OF MASS  = (-0.685661, -0.205066  0.295169)

-------------
DIPOLE MOMENT
-------------
                                X             Y             Z
Electronic contribution:     -8.94777      -2.51531       3.41709
Nuclear contribution   :     11.48150       2.52918      -5.52384
                        -----------------------------------------
Total Dipole Moment    :      2.53373       0.01387      -2.10675
                        -----------------------------------------
Magnitude (a.u.)       :      3.29520
Magnitude (Debye)      :      8.37573



--------------------
Rotational spectrum 
--------------------
 
Rotational constants in cm-1:     0.015886     0.009929     0.007226 
Rotational constants in MHz :   476.256210   297.670973   216.643548 

 Dipole components along the rotational axes: 
x,y,z [a.u.] :     2.533847    -0.014209    -2.106598 
x,y,z [Debye]:     6.440528    -0.036117    -5.354547 

 

Timings for individual modules:

Sum of individual times         ...      378.405 sec (=   6.307 min)
GTO integral calculation        ...        4.906 sec (=   0.082 min)   1.3 %
SCF iterations                  ...      373.498 sec (=   6.225 min)  98.7 %
                             ****ORCA TERMINATED NORMALLY****
TOTAL RUN TIME: 0 days 0 hours 6 minutes 20 seconds 387 msec
