
                                 *****************
                                 * O   R   C   A *
                                 *****************

                                            #,                                       
                                            ###                                      
                                            ####                                     
                                            #####                                    
                                            ######                                   
                                           ########,                                 
                                     ,,################,,,,,                         
                               ,,#################################,,                 
                          ,,##########################################,,             
                       ,#########################################, ''#####,          
                    ,#############################################,,   '####,        
                  ,##################################################,,,,####,       
                ,###########''''           ''''###############################       
              ,#####''   ,,,,##########,,,,          '''####'''          '####       
            ,##' ,,,,###########################,,,                        '##       
           ' ,,###''''                  '''############,,,                           
         ,,##''                                '''############,,,,        ,,,,,,###''
      ,#''                                            '''#######################'''  
     '                                                          ''''####''''         
             ,#######,   #######,   ,#######,      ##                                
            ,#'     '#,  ##    ##  ,#'     '#,    #''#        ######   ,####,        
            ##       ##  ##   ,#'  ##            #'  '#       #        #'  '#        
            ##       ##  #######   ##           ,######,      #####,   #    #        
            '#,     ,#'  ##    ##  '#,     ,#' ,#      #,         ##   #,  ,#        
             '#######'   ##     ##  '#######'  #'      '#     #####' # '####'        



                  #######################################################
                  #                        -***-                        #
                  #          Department of theory and spectroscopy      #
                  #    Directorship and core code : Frank Neese         #
                  #        Max Planck Institute fuer Kohlenforschung    #
                  #                Kaiser Wilhelm Platz 1               #
                  #                 D-45470 Muelheim/Ruhr               #
                  #                      Germany                        #
                  #                                                     #
                  #                  All rights reserved                #
                  #                        -***-                        #
                  #######################################################


                         Program Version 5.0.3 -  RELEASE  -


 With contributions from (in alphabetic order):
   Daniel Aravena         : Magnetic Suceptibility
   Michael Atanasov       : Ab Initio Ligand Field Theory (pilot matlab implementation)
   Alexander A. Auer      : GIAO ZORA, VPT2 properties, NMR spectrum
   Ute Becker             : Parallelization
   Giovanni Bistoni       : ED, misc. LED, open-shell LED, HFLD
   Martin Brehm           : Molecular dynamics
   Dmytro Bykov           : SCF Hessian
   Vijay G. Chilkuri      : MRCI spin determinant printing, contributions to CSF-ICE
   Dipayan Datta          : RHF DLPNO-CCSD density
   Achintya Kumar Dutta   : EOM-CC, STEOM-CC
   Dmitry Ganyushin       : Spin-Orbit,Spin-Spin,Magnetic field MRCI
   Miquel Garcia          : C-PCM and meta-GGA Hessian, CC/C-PCM, Gaussian charge scheme
   Yang Guo               : DLPNO-NEVPT2, F12-NEVPT2, CIM, IAO-localization
   Andreas Hansen         : Spin unrestricted coupled pair/coupled cluster methods
   Benjamin Helmich-Paris : MC-RPA, TRAH-SCF, COSX integrals
   Lee Huntington         : MR-EOM, pCC
   Robert Izsak           : Overlap fitted RIJCOSX, COSX-SCS-MP3, EOM
   Marcus Kettner         : VPT2
   Christian Kollmar      : KDIIS, OOCD, Brueckner-CCSD(T), CCSD density, CASPT2, CASPT2-K
   Simone Kossmann        : Meta GGA functionals, TD-DFT gradient, OOMP2, MP2 Hessian
   Martin Krupicka        : Initial AUTO-CI
   Lucas Lang             : DCDCAS
   Marvin Lechner         : AUTO-CI (C++ implementation), FIC-MRCC
   Dagmar Lenk            : GEPOL surface, SMD
   Dimitrios Liakos       : Extrapolation schemes; Compound Job, initial MDCI parallelization
   Dimitrios Manganas     : Further ROCIS development; embedding schemes
   Dimitrios Pantazis     : SARC Basis sets
   Anastasios Papadopoulos: AUTO-CI, single reference methods and gradients
   Taras Petrenko         : DFT Hessian,TD-DFT gradient, ASA, ECA, R-Raman, ABS, FL, XAS/XES, NRVS
   Peter Pinski           : DLPNO-MP2, DLPNO-MP2 Gradient
   Christoph Reimann      : Effective Core Potentials
   Marius Retegan         : Local ZFS, SOC
   Christoph Riplinger    : Optimizer, TS searches, QM/MM, DLPNO-CCSD(T), (RO)-DLPNO pert. Triples
   Tobias Risthaus        : Range-separated hybrids, TD-DFT gradient, RPA, STAB
   Michael Roemelt        : Original ROCIS implementation
   Masaaki Saitow         : Open-shell DLPNO-CCSD energy and density
   Barbara Sandhoefer     : DKH picture change effects
   Avijit Sen             : IP-ROCIS
   Kantharuban Sivalingam : CASSCF convergence, NEVPT2, FIC-MRCI
   Bernardo de Souza      : ESD, SOC TD-DFT
   Georgi Stoychev        : AutoAux, RI-MP2 NMR, DLPNO-MP2 response
   Willem Van den Heuvel  : Paramagnetic NMR
   Boris Wezisla          : Elementary symmetry handling
   Frank Wennmohs         : Technical directorship


 We gratefully acknowledge several colleagues who have allowed us to
 interface, adapt or use parts of their codes:
   Stefan Grimme, W. Hujo, H. Kruse, P. Pracht,  : VdW corrections, initial TS optimization,
                  C. Bannwarth, S. Ehlert          DFT functionals, gCP, sTDA/sTD-DF
   Ed Valeev, F. Pavosevic, A. Kumar             : LibInt (2-el integral package), F12 methods
   Garnet Chan, S. Sharma, J. Yang, R. Olivares  : DMRG
   Ulf Ekstrom                                   : XCFun DFT Library
   Mihaly Kallay                                 : mrcc  (arbitrary order and MRCC methods)
   Jiri Pittner, Ondrej Demel                    : Mk-CCSD
   Frank Weinhold                                : gennbo (NPA and NBO analysis)
   Christopher J. Cramer and Donald G. Truhlar   : smd solvation model
   Lars Goerigk                                  : TD-DFT with DH, B97 family of functionals
   V. Asgeirsson, H. Jonsson                     : NEB implementation
   FAccTs GmbH                                   : IRC, NEB, NEB-TS, DLPNO-Multilevel, CI-OPT
                                                   MM, QMMM, 2- and 3-layer-ONIOM, Crystal-QMMM,
                                                   LR-CPCM, SF, NACMEs, symmetry and pop. for TD-DFT,
                                                   nearIR, NL-DFT gradient (VV10), updates on ESD,
                                                   ML-optimized integration grids
   S Lehtola, MJT Oliveira, MAL Marques          : LibXC Library
   Liviu Ungur et al                             : ANISO software


 Your calculation uses the libint2 library for the computation of 2-el integrals
 For citations please refer to: http://libint.valeyev.net

 Your ORCA version has been built with support for libXC version: 5.1.0
 For citations please refer to: https://tddft.org/programs/libxc/

 This ORCA versions uses:
   CBLAS   interface :  Fast vector & matrix operations
   LAPACKE interface :  Fast linear algebra routines
   SCALAPACK package :  Parallel linear algebra routines
   Shared memory     :  Shared parallel matrices
   BLAS/LAPACK       :  OpenBLAS 0.3.15  USE64BITINT DYNAMIC_ARCH NO_AFFINITY Haswell SINGLE_THREADED
        Core in use  :  Haswell
   Copyright (c) 2011-2014, The OpenBLAS Project




***************************************
The coordinates will be read from file: me2s.xyz
***************************************


Your calculation utilizes the geometrical counterpoise correction gCP
Please cite in your paper:
H.Kruse, S. Grimme J.Chem.Phys., 136, (2012), 154101 
   

Your calculation utilizes the atom-pairwise dispersion correction
with the Becke-Johnson damping scheme (D3BJ)
Cite in your paper:
S.Grimme, S.Ehrlich, L.Goerigk, J Comput Chem, (2011), 32, 1456–1465 
S.Grimme, J.Antony, S.Ehrlich and H.Krieg, J.Chem.Phys., 132, (2010), 154104 
   

Your calculation employs the composite approach PBEh-3c.
Please cite in your paper:
S. Grimme, J. G. Brandenburg, C. Bannwarth, A. Hansen J.Chem.Phys., 143, (2015), 054107 
   

================================================================================

----- Orbital basis set information -----
Your calculation utilizes the basis: def2-mSVP

----- AuxJ basis set information -----
Your calculation utilizes the auxiliary basis: def2/J
   F. Weigend, Phys. Chem. Chem. Phys. 8, 1057 (2006).

================================================================================
                                        WARNINGS
                       Please study these warnings very carefully!
================================================================================


INFO   : the flag for use of the SHARK integral package has been found!

================================================================================
                                       INPUT FILE
================================================================================
NAME = pbeh-3c.inp
|  1> ! PBEh-3c def2/J TightSCF DefGrid3
|  2> 
|  3> %maxcore 60000
|  4> 
|  5> %pal
|  6> nprocs 4
|  7> end
|  8> 
|  9> *xyzfile 0 1 me2s.xyz
| 10> 
| 11>                          ****END OF INPUT****
================================================================================

                       ****************************
                       * Single Point Calculation *
                       ****************************

---------------------------------
CARTESIAN COORDINATES (ANGSTROEM)
---------------------------------
  S      0.000000    0.000000    0.667246
  C      0.000000    1.361482   -0.517677
  C      0.000000   -1.361482   -0.517677
  H     -0.891627    1.326167   -1.141531
  H      0.891627    1.326167   -1.141531
  H      0.000000    2.288562    0.051150
  H     -0.891627   -1.326167   -1.141531
  H      0.000000   -2.288562    0.051150
  H      0.891627   -1.326167   -1.141531

----------------------------
CARTESIAN COORDINATES (A.U.)
----------------------------
  NO LB      ZA    FRAG     MASS         X           Y           Z
   0 S    16.0000    0    32.060    0.000000    0.000000    1.260912
   1 C     6.0000    0    12.011    0.000000    2.572828   -0.978268
   2 C     6.0000    0    12.011    0.000000   -2.572828   -0.978268
   3 H     1.0000    0     1.008   -1.684931    2.506092   -2.157181
   4 H     1.0000    0     1.008    1.684931    2.506092   -2.157181
   5 H     1.0000    0     1.008    0.000000    4.324755    0.096659
   6 H     1.0000    0     1.008   -1.684931   -2.506092   -2.157181
   7 H     1.0000    0     1.008    0.000000   -4.324755    0.096659
   8 H     1.0000    0     1.008    1.684931   -2.506092   -2.157181

--------------------------------
INTERNAL COORDINATES (ANGSTROEM)
--------------------------------
 S      0   0   0     0.000000000000     0.00000000     0.00000000
 C      1   0   0     1.804903177447     0.00000000     0.00000000
 C      1   2   0     1.804903177447    97.93268596     0.00000000
 H      2   1   3     1.088778841902   110.59127475    61.02283685
 H      2   1   3     1.088778841902   110.59127475   298.97716315
 H      2   1   3     1.087677018656   107.43437689   180.00000000
 H      3   1   2     1.088778841902   110.59127475   298.97716315
 H      3   1   2     1.087677018656   107.43437689   180.00000000
 H      3   1   2     1.088778841902   110.59127475    61.02283685

---------------------------
INTERNAL COORDINATES (A.U.)
---------------------------
 S      0   0   0     0.000000000000     0.00000000     0.00000000
 C      1   0   0     3.410772703618     0.00000000     0.00000000
 C      1   2   0     3.410772703618    97.93268596     0.00000000
 H      2   1   3     2.057493831603   110.59127475    61.02283685
 H      2   1   3     2.057493831603   110.59127475   298.97716315
 H      2   1   3     2.055411687420   107.43437689   180.00000000
 H      3   1   2     2.057493831603   110.59127475   298.97716315
 H      3   1   2     2.055411687420   107.43437689   180.00000000
 H      3   1   2     2.057493831603   110.59127475    61.02283685

---------------------
BASIS SET INFORMATION
---------------------
There are 3 groups of distinct atoms

 Group   1 Type S   : 10s7p1d contracted to 4s3p1d pattern {5311/511/1}
 Group   2 Type C   : 8s4p1d contracted to 4s2p1d pattern {5111/31/1}
 Group   3 Type H   : 4s contracted to 2s pattern {31}

Atom   0S    basis set group =>   1
Atom   1C    basis set group =>   2
Atom   2C    basis set group =>   2
Atom   3H    basis set group =>   3
Atom   4H    basis set group =>   3
Atom   5H    basis set group =>   3
Atom   6H    basis set group =>   3
Atom   7H    basis set group =>   3
Atom   8H    basis set group =>   3
---------------------------------
AUXILIARY/J BASIS SET INFORMATION
---------------------------------
There are 3 groups of distinct atoms

 Group   1 Type S   : 14s5p5d2f1g contracted to 8s4p3d1f1g pattern {71111111/2111/311/2/1}
 Group   2 Type C   : 12s5p4d2f1g contracted to 6s4p3d1f1g pattern {711111/2111/211/2/1}
 Group   3 Type H   : 5s2p1d contracted to 3s1p1d pattern {311/2/1}

Atom   0S    basis set group =>   1
Atom   1C    basis set group =>   2
Atom   2C    basis set group =>   2
Atom   3H    basis set group =>   3
Atom   4H    basis set group =>   3
Atom   5H    basis set group =>   3
Atom   6H    basis set group =>   3
Atom   7H    basis set group =>   3
Atom   8H    basis set group =>   3


           ************************************************************
           *        Program running with 4 parallel MPI-processes     *
           *              working on a common directory               *
           ************************************************************
------------------------------------------------------------------------------
                           ORCA GTO INTEGRAL CALCULATION
                           -- RI-GTO INTEGRALS CHOSEN --
------------------------------------------------------------------------------
------------------------------------------------------------------------------
                   ___                                                        
                  /   \      - P O W E R E D   B Y -                         
                 /     \                                                     
                 |  |  |   _    _      __       _____    __    __             
                 |  |  |  | |  | |    /  \     |  _  \  |  |  /  |          
                  \  \/   | |  | |   /    \    | | | |  |  | /  /          
                 / \  \   | |__| |  /  /\  \   | |_| |  |  |/  /          
                |  |  |   |  __  | /  /__\  \  |    /   |      \           
                |  |  |   | |  | | |   __   |  |    \   |  |\   \          
                \     /   | |  | | |  |  |  |  | |\  \  |  | \   \       
                 \___/    |_|  |_| |__|  |__|  |_| \__\ |__|  \__/        
                                                                              
                      - O R C A' S   B I G   F R I E N D -                    
                                      &                                       
                       - I N T E G R A L  F E E D E R -                       
                                                                              
 v1 FN, 2020, v2 2021                                                         
------------------------------------------------------------------------------


Reading SHARK input file pbeh-3c.SHARKINP.tmp ... ok
----------------------
SHARK INTEGRAL PACKAGE
----------------------

Number of atoms                             ...      9
Number of basis functions                   ...     60
Number of shells                            ...     34
Maximum angular momentum                    ...      2
Integral batch strategy                     ... SHARK/LIBINT Hybrid
RI-J (if used) integral strategy            ... SPLIT-RIJ (Revised 2003 algorithm where possible)
Printlevel                                  ...      1
Contraction scheme used                     ... SEGMENTED contraction
Coulomb Range Separation                    ... NOT USED
Exchange Range Separation                   ... NOT USED
Finite Nucleus Model                        ... NOT USED
Auxiliary Coulomb fitting basis             ... AVAILABLE
   # of basis functions in Aux-J            ...    215
   # of shells in Aux-J                     ...     77
   Maximum angular momentum in Aux-J        ...      4
Auxiliary J/K fitting basis                 ... NOT available
Auxiliary Correlation fitting basis         ... NOT available
Auxiliary 'external' fitting basis          ... NOT available
Integral threshold                          ...     2.500000e-11
Primitive cut-off                           ...     2.500000e-12
Primitive pair pre-selection threshold      ...     2.500000e-12

Calculating pre-screening integrals         ... done (  0.2 sec) Dimension = 34
Organizing shell pair data                  ... done (  0.3 sec)
Shell pair information
Total number of shell pairs                 ...       595
Shell pairs after pre-screening             ...       583
Total number of primitive shell pairs       ...      2413
Primitive shell pairs kept                  ...      1836
          la=0 lb=0:    288 shell pairs
          la=1 lb=0:    168 shell pairs
          la=1 lb=1:     28 shell pairs
          la=2 lb=0:     72 shell pairs
          la=2 lb=1:     21 shell pairs
          la=2 lb=2:      6 shell pairs

Calculating one electron integrals          ... done (  0.0 sec)
Calculating RI/J V-Matrix + Cholesky decomp.... done (  0.8 sec)
Calculating Nuclear repulsion               ... done (  0.1 sec) ENN=    111.241742855086 Eh

SHARK setup successfully completed in   2.6 seconds

Maximum memory used throughout the entire GTOINT-calculation: 9.3 MB


           ************************************************************
           *        Program running with 4 parallel MPI-processes     *
           *              working on a common directory               *
           ************************************************************
-------------------------------------------------------------------------------
                                 ORCA SCF
-------------------------------------------------------------------------------

------------
SCF SETTINGS
------------
Hamiltonian:
 Density Functional     Method          .... DFT(GTOs)
 Exchange Functional    Exchange        .... PBE
   PBE kappa parameter   XKappa         ....  1.024500
   PBE mue parameter    XMuePBE         ....  0.123457
 Correlation Functional Correlation     .... PBE
   PBE beta parameter  CBetaPBE         ....  0.030000
 LDA part of GGA corr.  LDAOpt          .... PW91-LDA
 Gradients option       PostSCFGGA      .... off
 Hybrid DFT is turned on
   Fraction HF Exchange ScalHFX         ....  0.420000
   Scaling of DF-GGA-X  ScalDFX         ....  0.580000
   Scaling of DF-GGA-C  ScalDFC         ....  1.000000
   Scaling of DF-LDA-C  ScalLDAC        ....  1.000000
   Perturbative correction              ....  0.000000
   Density functional embedding theory  .... OFF
 RI-approximation to the Coulomb term is turned on
   Number of AuxJ basis functions       .... 215
   RIJ-ON(X) (HFX calculated with O(N)) .... on
   Number of AuxJ basis functions       .... 215
   RIJ-COSX (HFX calculated with COS-X)).... on


General Settings:
 Integral files         IntName         .... pbeh-3c
 Hartree-Fock type      HFTyp           .... RHF
 Total Charge           Charge          ....    0
 Multiplicity           Mult            ....    1
 Number of Electrons    NEL             ....   34
 Basis Dimension        Dim             ....   60
 Nuclear Repulsion      ENuc            ....    111.2417428551 Eh

Convergence Acceleration:
 DIIS                   CNVDIIS         .... on
   Start iteration      DIISMaxIt       ....    12
   Startup error        DIISStart       ....  0.200000
   # of expansion vecs  DIISMaxEq       ....     5
   Bias factor          DIISBfac        ....   1.050
   Max. coefficient     DIISMaxC        ....  10.000
 Trust-Rad. Augm. Hess. CNVTRAH         .... auto
   Auto Start mean grad. ratio tolernc. ....  1.125000
   Auto Start start iteration           ....    20
   Auto Start num. interpolation iter.  ....    10
   Max. Number of Micro iterations      ....    16
   Max. Number of Macro iterations      .... Maxiter - #DIIS iter
   Number of Davidson start vectors     ....     2
   Converg. threshold I  (grad. norm)   ....   1.000e-05
   Converg. threshold II (energy diff.) ....   1.000e-08
   Grad. Scal. Fac. for Micro threshold ....   0.100
   Minimum threshold for Micro iter.    ....   0.010
   NR start threshold (gradient norm)   ....   0.001
   Initial trust radius                 ....   0.400
   Minimum AH scaling param. (alpha)    ....   1.000
   Maximum AH scaling param. (alpha)    .... 1000.000
   Orbital update algorithm             .... Taylor
   White noise on init. David. guess    .... on
   Maximum white noise                  ....   0.010
   Quad. conv. algorithm                .... NR
   COSX micro iterations for RIJONX calc.... off
 SOSCF                  CNVSOSCF        .... on
   Start iteration      SOSCFMaxIt      ....   150
   Startup grad/error   SOSCFStart      ....  0.003300
 Level Shifting         CNVShift        .... on
   Level shift para.    LevelShift      ....    0.2500
   Turn off err/grad.   ShiftErr        ....    0.0010
 Zerner damping         CNVZerner       .... off
 Static damping         CNVDamp         .... on
   Fraction old density DampFac         ....    0.7000
   Max. Damping (<1)    DampMax         ....    0.9800
   Min. Damping (>=0)   DampMin         ....    0.0000
   Turn off err/grad.   DampErr         ....    0.1000
 Fernandez-Rico         CNVRico         .... off

SCF Procedure:
 Maximum # iterations   MaxIter         ....   125
 SCF integral mode      SCFMode         .... Direct
   Integral package                     .... SHARK and LIBINT hybrid scheme
 Reset frequency        DirectResetFreq ....    20
 Integral Threshold     Thresh          ....  2.500e-11 Eh
 Primitive CutOff       TCut            ....  2.500e-12 Eh

Convergence Tolerance:
 Convergence Check Mode ConvCheckMode   .... Total+1el-Energy
 Convergence forced     ConvForced      .... 0
 Energy Change          TolE            ....  1.000e-08 Eh
 1-El. energy change                    ....  1.000e-05 Eh
 Orbital Gradient       TolG            ....  1.000e-05
 Orbital Rotation angle TolX            ....  1.000e-05
 DIIS Error             TolErr          ....  5.000e-07


Diagonalization of the overlap matrix:
Smallest eigenvalue                        ... 1.231e-02
Time for diagonalization                   ...    0.001 sec
Threshold for overlap eigenvalues          ... 1.000e-08
Number of eigenvalues below threshold      ... 0
Time for construction of square roots      ...    0.300 sec
Total time needed                          ...    0.334 sec

--------------------------------
INITIAL GUESS: MINIMAL BASIS EHT
--------------------------------
The minimal basis has 25 functions
EHT matrix was diagonalized
Basis set overlap was calculated now projecting the orbitals
Using GuessMode=FMatrix for the initial guess
C*T matrix was formed
Effective Fockian was calculated
Effective Fockian was diagonalized
Initial density was built
                      ------------------
                      INITIAL GUESS DONE
                      ------------------
-------------------
DFT GRID GENERATION
-------------------

General Integration Accuracy     IntAcc      ... 4.959
Radial Grid Type                 RadialGrid  ... OptM3 with GC (2021)
Angular Grid (max. ang.)         AngularGrid ... 6 (Lebedev-590)
Angular grid pruning method      GridPruning ... 4 (adaptive)
Weight generation scheme         WeightScheme... Becke
Basis function cutoff            BFCut       ... 1.0000e-11
Integration weight cutoff        WCut        ... 1.0000e-14
Angular grids for H and He will be reduced by one unit
Partially contracted basis set               ... off
Rotationally invariant grid construction     ... off

Total number of grid points                  ...    98392
Total number of batches                      ...     1541
Average number of points per batch           ...       63
Average number of grid points per atom       ...    10932
Time for grid setup =    1.705 sec

--------------------
COSX GRID GENERATION
--------------------

GRIDX 1
-------
General Integration Accuracy     IntAcc      ... 4.020
Radial Grid Type                 RadialGrid  ... OptM3 with GC (2021)
Angular Grid (max. ang.)         AngularGrid ... 2 (Lebedev-110)
Angular grid pruning method      GridPruning ... 4 (adaptive)
Weight generation scheme         WeightScheme... Becke
Basis function cutoff            BFCut       ... 1.0000e-11
Integration weight cutoff        WCut        ... 1.0000e-14
Angular grids for H and He will be reduced by one unit
Partially contracted basis set               ... on
Rotationally invariant grid construction     ... off

Total number of grid points                  ...    10364
Total number of batches                      ...      166
Average number of points per batch           ...       62
Average number of grid points per atom       ...     1152
UseSFitting                                  ... on

GRIDX 2
-------
General Integration Accuracy     IntAcc      ... 4.338
Radial Grid Type                 RadialGrid  ... OptM3 with GC (2021)
Angular Grid (max. ang.)         AngularGrid ... 3 (Lebedev-194)
Angular grid pruning method      GridPruning ... 4 (adaptive)
Weight generation scheme         WeightScheme... Becke
Basis function cutoff            BFCut       ... 1.0000e-11
Integration weight cutoff        WCut        ... 1.0000e-14
Angular grids for H and He will be reduced by one unit
Partially contracted basis set               ... on
Rotationally invariant grid construction     ... off

Total number of grid points                  ...    23304
Total number of batches                      ...      369
Average number of points per batch           ...       63
Average number of grid points per atom       ...     2589
UseSFitting                                  ... on

GRIDX 3
-------
General Integration Accuracy     IntAcc      ... 4.871
Radial Grid Type                 RadialGrid  ... OptM3 with GC (2021)
Angular Grid (max. ang.)         AngularGrid ... 4 (Lebedev-302)
Angular grid pruning method      GridPruning ... 4 (adaptive)
Weight generation scheme         WeightScheme... Becke
Basis function cutoff            BFCut       ... 1.0000e-11
Integration weight cutoff        WCut        ... 1.0000e-14
Angular grids for H and He will be reduced by one unit
Partially contracted basis set               ... on
Rotationally invariant grid construction     ... off

Total number of grid points                  ...    46360
Total number of batches                      ...      729
Average number of points per batch           ...       63
Average number of grid points per atom       ...     5151
UseSFitting                                  ... on

Time for X-Grid setup             =    2.984 sec

--------------
SCF ITERATIONS
--------------
ITER       Energy         Delta-E        Max-DP      RMS-DP      [F,P]     Damp
               ***  Starting incremental Fock matrix formation  ***
  0   -476.9535298273   0.000000000000 0.19000584  0.00730235  0.4229617 0.7000
  1   -477.0898557711  -0.136325943780 0.12659603  0.00500952  0.2841009 0.7000
                               ***Turning on DIIS***
  2   -477.1812187874  -0.091363016312 0.08344170  0.00336276  0.1883900 0.7000
  3   -477.2444364697  -0.063217682291 0.05339320  0.00230596  0.1306146 0.7000
  4   -477.2889121076  -0.044475637905 0.12884123  0.00570230  0.0911357 0.0000
  5   -477.3944397679  -0.105527660254 0.00956575  0.00046685  0.0053376 0.0000
                      *** Initiating the SOSCF procedure ***
                           *** Shutting down DIIS ***
                      *** Re-Reading the Fockian *** 
                      *** Removing any level shift *** 
ITER      Energy       Delta-E        Grad      Rot      Max-DP    RMS-DP
  6   -477.39454279  -0.0001030210  0.000885  0.000885  0.004143  0.000149
               *** Restarting incremental Fock matrix formation ***
  7   -477.39455686  -0.0000140669  0.000468  0.000949  0.001742  0.000095
  8   -477.39455988  -0.0000030262  0.000134  0.000383  0.000902  0.000038
  9   -477.39456003  -0.0000001437  0.000065  0.000086  0.000282  0.000011
 10   -477.39456006  -0.0000000385  0.000006  0.000009  0.000021  0.000001
 11   -477.39456007  -0.0000000017  0.000005  0.000004  0.000007  0.000000
                  ***Gradient check signals convergence***
              ***Rediagonalizing the Fockian in SOSCF/NRSCF***

               *****************************************************
               *                     SUCCESS                       *
               *           SCF CONVERGED AFTER  12 CYCLES          *
               *****************************************************

Old exchange energy                            =    -15.755853312 Eh
New exchange energy                            =    -15.755845011 Eh
Exchange energy change after final integration =      0.000008301 Eh
Total energy after final integration           =   -477.394551763 Eh
Final COS-X integration done in                =     0.800 sec

----------------
TOTAL SCF ENERGY
----------------

Total Energy       :         -477.39455176 Eh          -12990.56618 eV

Components:
Nuclear Repulsion  :          111.24174286 Eh            3027.04171 eV
Electronic Energy  :         -588.63629462 Eh          -16017.60790 eV
One Electron Energy:         -876.85969819 Eh          -23860.56544 eV
Two Electron Energy:          288.22340357 Eh            7842.95754 eV
Max COSX asymmetry :            0.00000072 Eh               0.00002 eV

Virial components:
Potential Energy   :         -953.61234417 Eh          -25949.11111 eV
Kinetic Energy     :          476.21779240 Eh           12958.54493 eV
Virial Ratio       :            2.00247105


DFT components:
N(Alpha)           :       17.000001239638 electrons
N(Beta)            :       17.000001239638 electrons
N(Total)           :       34.000002479277 electrons
E(X)               :      -20.973227193019 Eh       
E(C)               :       -1.568162486131 Eh       
E(XC)              :      -22.541389679150 Eh       
DFET-embed. en.    :        0.000000000000 Eh       

---------------
SCF CONVERGENCE
---------------

  Last Energy change         ...    1.4841e-09  Tolerance :   1.0000e-08
  Last MAX-Density change    ...    4.4409e-15  Tolerance :   1.0000e-07
  Last RMS-Density change    ...    1.2487e-16  Tolerance :   5.0000e-09
  Last Orbital Gradient      ...    6.2702e-07  Tolerance :   1.0000e-05
  Last Orbital Rotation      ...    6.1598e-07  Tolerance :   1.0000e-05

             **** THE GBW FILE WAS UPDATED (pbeh-3c.gbw) ****
             **** DENSITY pbeh-3c.scfp WAS UPDATED ****
             **** ENERGY FILE WAS UPDATED (pbeh-3c.en.tmp) ****
             **** THE GBW FILE WAS UPDATED (pbeh-3c.gbw) ****
             **** DENSITY pbeh-3c.scfp WAS UPDATED ****
----------------
ORBITAL ENERGIES
----------------

  NO   OCC          E(Eh)            E(eV) 
   0   2.0000     -89.570009     -2437.3238 
   1   2.0000     -10.457656      -284.5673 
   2   2.0000     -10.457606      -284.5659 
   3   2.0000      -8.209243      -223.3849 
   4   2.0000      -6.100656      -166.0073 
   5   2.0000      -6.097334      -165.9169 
   6   2.0000      -6.091213      -165.7503 
   7   2.0000      -0.887074       -24.1385 
   8   2.0000      -0.787529       -21.4297 
   9   2.0000      -0.666621       -18.1397 
  10   2.0000      -0.502338       -13.6693 
  11   2.0000      -0.500338       -13.6149 
  12   2.0000      -0.480190       -13.0666 
  13   2.0000      -0.464452       -12.6384 
  14   2.0000      -0.412213       -11.2169 
  15   2.0000      -0.358312        -9.7502 
  16   2.0000      -0.260092        -7.0775 
  17   0.0000       0.089017         2.4223 
  18   0.0000       0.134506         3.6601 
  19   0.0000       0.142107         3.8669 
  20   0.0000       0.172402         4.6913 
  21   0.0000       0.202717         5.5162 
  22   0.0000       0.203362         5.5338 
  23   0.0000       0.219587         5.9753 
  24   0.0000       0.239026         6.5042 
  25   0.0000       0.448026        12.1914 
  26   0.0000       0.465100        12.6560 
  27   0.0000       0.479378        13.0445 
  28   0.0000       0.510510        13.8917 
  29   0.0000       0.516565        14.0564 
  30   0.0000       0.516723        14.0608 
  31   0.0000       0.689890        18.7729 
  32   0.0000       0.727331        19.7917 
  33   0.0000       0.755231        20.5509 
  34   0.0000       0.772500        21.0208 
  35   0.0000       0.785631        21.3781 
  36   0.0000       0.828967        22.5573 
  37   0.0000       0.869659        23.6646 
  38   0.0000       0.969402        26.3788 
  39   0.0000       0.989624        26.9290 
  40   0.0000       1.013575        27.5808 
  41   0.0000       1.041780        28.3483 
  42   0.0000       1.057585        28.7784 
  43   0.0000       1.059519        28.8310 
  44   0.0000       1.064906        28.9776 
  45   0.0000       1.178835        32.0777 
  46   0.0000       1.301010        35.4023 
  47   0.0000       1.349206        36.7138 
  48   0.0000       1.755375        47.7662 
  49   0.0000       1.761076        47.9213 
  50   0.0000       1.817567        49.4585 
  51   0.0000       1.857716        50.5510 
  52   0.0000       2.165115        58.9158 
  53   0.0000       2.255062        61.3634 
  54   0.0000       2.267698        61.7072 
  55   0.0000       2.303540        62.6825 
  56   0.0000       2.321921        63.1827 
  57   0.0000       2.325646        63.2840 
  58   0.0000      13.650974       371.4619 
  59   0.0000      13.748310       374.1105 

                    ********************************
                    * MULLIKEN POPULATION ANALYSIS *
                    ********************************

-----------------------
MULLIKEN ATOMIC CHARGES
-----------------------
   0 S :    0.018831
   1 C :   -0.747005
   2 C :   -0.747005
   3 H :    0.240856
   4 H :    0.240856
   5 H :    0.255877
   6 H :    0.240856
   7 H :    0.255877
   8 H :    0.240856
Sum of atomic charges:    0.0000000

--------------------------------
MULLIKEN REDUCED ORBITAL CHARGES
--------------------------------
  0 S s       :     5.846488  s :     5.846488
      pz      :     3.231010  p :    10.045833
      px      :     3.925312
      py      :     2.889512
      dz2     :     0.011693  d :     0.088848
      dxz     :     0.006506
      dyz     :     0.048053
      dx2y2   :     0.015573
      dxy     :     0.007024
  1 C s       :     3.428290  s :     3.428290
      pz      :     1.074092  p :     3.280611
      px      :     1.163778
      py      :     1.042742
      dz2     :     0.001473  d :     0.038104
      dxz     :     0.013711
      dyz     :     0.010195
      dx2y2   :     0.010506
      dxy     :     0.002219
  2 C s       :     3.428290  s :     3.428290
      pz      :     1.074092  p :     3.280611
      px      :     1.163778
      py      :     1.042742
      dz2     :     0.001473  d :     0.038104
      dxz     :     0.013711
      dyz     :     0.010195
      dx2y2   :     0.010506
      dxy     :     0.002219
  3 H s       :     0.759144  s :     0.759144
  4 H s       :     0.759144  s :     0.759144
  5 H s       :     0.744123  s :     0.744123
  6 H s       :     0.759144  s :     0.759144
  7 H s       :     0.744123  s :     0.744123
  8 H s       :     0.759144  s :     0.759144


                     *******************************
                     * LOEWDIN POPULATION ANALYSIS *
                     *******************************

----------------------
LOEWDIN ATOMIC CHARGES
----------------------
   0 S :    0.141030
   1 C :   -0.467820
   2 C :   -0.467820
   3 H :    0.127993
   4 H :    0.127993
   5 H :    0.141319
   6 H :    0.127993
   7 H :    0.141319
   8 H :    0.127993

-------------------------------
LOEWDIN REDUCED ORBITAL CHARGES
-------------------------------
  0 S s       :     5.593999  s :     5.593999
      pz      :     3.319281  p :    10.151713
      px      :     3.896291
      py      :     2.936141
      dz2     :     0.012700  d :     0.113259
      dxz     :     0.007486
      dyz     :     0.061905
      dx2y2   :     0.022237
      dxy     :     0.008931
  1 C s       :     3.015784  s :     3.015784
      pz      :     1.120039  p :     3.384300
      px      :     1.169126
      py      :     1.095135
      dz2     :     0.002871  d :     0.067736
      dxz     :     0.024272
      dyz     :     0.019086
      dx2y2   :     0.017393
      dxy     :     0.004113
  2 C s       :     3.015784  s :     3.015784
      pz      :     1.120039  p :     3.384300
      px      :     1.169126
      py      :     1.095135
      dz2     :     0.002871  d :     0.067736
      dxz     :     0.024272
      dyz     :     0.019086
      dx2y2   :     0.017393
      dxy     :     0.004113
  3 H s       :     0.872007  s :     0.872007
  4 H s       :     0.872007  s :     0.872007
  5 H s       :     0.858681  s :     0.858681
  6 H s       :     0.872007  s :     0.872007
  7 H s       :     0.858681  s :     0.858681
  8 H s       :     0.872007  s :     0.872007


                      *****************************
                      * MAYER POPULATION ANALYSIS *
                      *****************************

  NA   - Mulliken gross atomic population
  ZA   - Total nuclear charge
  QA   - Mulliken gross atomic charge
  VA   - Mayer's total valence
  BVA  - Mayer's bonded valence
  FA   - Mayer's free valence

  ATOM       NA         ZA         QA         VA         BVA        FA
  0 S     15.9812    16.0000     0.0188     2.0542     2.0542    -0.0000
  1 C      6.7470     6.0000    -0.7470     3.7247     3.7247     0.0000
  2 C      6.7470     6.0000    -0.7470     3.7247     3.7247     0.0000
  3 H      0.7591     1.0000     0.2409     0.8933     0.8933     0.0000
  4 H      0.7591     1.0000     0.2409     0.8933     0.8933     0.0000
  5 H      0.7441     1.0000     0.2559     0.8991     0.8991     0.0000
  6 H      0.7591     1.0000     0.2409     0.8933     0.8933    -0.0000
  7 H      0.7441     1.0000     0.2559     0.8991     0.8991     0.0000
  8 H      0.7591     1.0000     0.2409     0.8933     0.8933     0.0000

  Mayer bond orders larger than 0.100000
B(  0-S ,  1-C ) :   1.0205 B(  0-S ,  2-C ) :   1.0205 B(  1-C ,  3-H ) :   0.8984 
B(  1-C ,  4-H ) :   0.8984 B(  1-C ,  5-H ) :   0.9106 B(  2-C ,  6-H ) :   0.8984 
B(  2-C ,  7-H ) :   0.9106 B(  2-C ,  8-H ) :   0.8984 

-------
TIMINGS
-------

Total SCF time: 0 days 0 hours 0 min 55 sec 

Total time                  ....      55.168 sec
Sum of individual times     ....      48.114 sec  ( 87.2%)

Fock matrix formation       ....      39.839 sec  ( 72.2%)
  Split-RI-J                ....       5.269 sec  ( 13.2% of F)
  Chain of spheres X        ....       6.840 sec  ( 17.2% of F)
  XC integration            ....      13.859 sec  ( 34.8% of F)
    Basis function eval.    ....       0.928 sec  (  6.7% of XC)
    Density eval.           ....       0.739 sec  (  5.3% of XC)
    XC-Functional eval.     ....       0.989 sec  (  7.1% of XC)
    XC-Potential eval.      ....       0.302 sec  (  2.2% of XC)
Diagonalization             ....       0.297 sec  (  0.5%)
Density matrix formation    ....       0.043 sec  (  0.1%)
Population analysis         ....       0.843 sec  (  1.5%)
Initial guess               ....       0.007 sec  (  0.0%)
Orbital Transformation      ....       0.000 sec  (  0.0%)
Orbital Orthonormalization  ....       0.000 sec  (  0.0%)
DIIS solution               ....       1.543 sec  (  2.8%)
SOSCF solution              ....       0.854 sec  (  1.5%)
Grid generation             ....       4.688 sec  (  8.5%)

Maximum memory used throughout the entire SCF-calculation: 47.0 MB


-------------------------------------------------------------------------------
                          DFT DISPERSION CORRECTION                            
                                                                               
                              DFTD3 V3.1  Rev 1                                
                          USING Becke-Johnson damping                          
-------------------------------------------------------------------------------
The PBEh-3c composite method is recognized
Using three-body term ABC
Active option DFTDOPT                   ...         4   

molecular C6(AA) [au] = 914.649226 


            DFT-D V3
 parameters
 s6 scaling factor         :     1.0000 
 a1 scaling factor         :     0.4860 
 s8 scaling factor         :     0.0000 
 a2 scaling factor         :     4.5000 
 Damping factor alpha9(ATM):    16.0000 
 ad hoc parameters k1-k3   :    16.0000     1.3333    -4.0000 

 Edisp/kcal,au: -1.936493273534  -0.003085998135 
 E6   /kcal   :  -1.938064274 
 E8   /kcal   :  -0.000000000 
 E6(ABC)      :   0.001571001 
 % E8         :   0.000000000 
 % E6(ABC)    :  -0.081126054 

-------------------------   ----------------
Dispersion correction           -0.003085998
-------------------------   ----------------

------------------   -----------------
gCP correction             0.010406848
------------------   -----------------

-------------------------   --------------------
FINAL SINGLE POINT ENERGY      -477.387230912566
-------------------------   --------------------


                            ***************************************
                            *     ORCA property calculations      *
                            ***************************************

                                    ---------------------
                                    Active property flags
                                    ---------------------
   (+) Dipole Moment


------------------------------------------------------------------------------
                       ORCA ELECTRIC PROPERTIES CALCULATION
------------------------------------------------------------------------------

Dipole Moment Calculation                       ... on
Quadrupole Moment Calculation                   ... off
Polarizability Calculation                      ... off
GBWName                                         ... pbeh-3c.gbw
Electron density                                ... pbeh-3c.scfp
The origin for moment calculation is the CENTER OF MASS  = ( 0.000000,  0.000000  0.135555)

-------------
DIPOLE MOMENT
-------------
                                X             Y             Z
Electronic contribution:     -0.00000       0.00000       3.95585
Nuclear contribution   :      0.00000       0.00000      -4.60888
                        -----------------------------------------
Total Dipole Moment    :     -0.00000       0.00000      -0.65303
                        -----------------------------------------
Magnitude (a.u.)       :      0.65303
Magnitude (Debye)      :      1.65988



--------------------
Rotational spectrum 
--------------------
 
Rotational constants in cm-1:     0.584191     0.257828     0.191937 
Rotational constants in MHz : 17513.604968  7729.478175  5754.135540 

 Dipole components along the rotational axes: 
x,y,z [a.u.] :     0.000000    -0.653033    -0.000000 
x,y,z [Debye]:     0.000000    -1.659877    -0.000000 

 

Timings for individual modules:

Sum of individual times         ...       59.513 sec (=   0.992 min)
GTO integral calculation        ...        3.431 sec (=   0.057 min)   5.8 %
SCF iterations                  ...       56.082 sec (=   0.935 min)  94.2 %
                             ****ORCA TERMINATED NORMALLY****
TOTAL RUN TIME: 0 days 0 hours 1 minutes 5 seconds 179 msec
