
                                 *****************
                                 * O   R   C   A *
                                 *****************

                                            #,                                       
                                            ###                                      
                                            ####                                     
                                            #####                                    
                                            ######                                   
                                           ########,                                 
                                     ,,################,,,,,                         
                               ,,#################################,,                 
                          ,,##########################################,,             
                       ,#########################################, ''#####,          
                    ,#############################################,,   '####,        
                  ,##################################################,,,,####,       
                ,###########''''           ''''###############################       
              ,#####''   ,,,,##########,,,,          '''####'''          '####       
            ,##' ,,,,###########################,,,                        '##       
           ' ,,###''''                  '''############,,,                           
         ,,##''                                '''############,,,,        ,,,,,,###''
      ,#''                                            '''#######################'''  
     '                                                          ''''####''''         
             ,#######,   #######,   ,#######,      ##                                
            ,#'     '#,  ##    ##  ,#'     '#,    #''#        ######   ,####,        
            ##       ##  ##   ,#'  ##            #'  '#       #        #'  '#        
            ##       ##  #######   ##           ,######,      #####,   #    #        
            '#,     ,#'  ##    ##  '#,     ,#' ,#      #,         ##   #,  ,#        
             '#######'   ##     ##  '#######'  #'      '#     #####' # '####'        



                  #######################################################
                  #                        -***-                        #
                  #          Department of theory and spectroscopy      #
                  #    Directorship and core code : Frank Neese         #
                  #        Max Planck Institute fuer Kohlenforschung    #
                  #                Kaiser Wilhelm Platz 1               #
                  #                 D-45470 Muelheim/Ruhr               #
                  #                      Germany                        #
                  #                                                     #
                  #                  All rights reserved                #
                  #                        -***-                        #
                  #######################################################


                         Program Version 5.0.3 -  RELEASE  -


 With contributions from (in alphabetic order):
   Daniel Aravena         : Magnetic Suceptibility
   Michael Atanasov       : Ab Initio Ligand Field Theory (pilot matlab implementation)
   Alexander A. Auer      : GIAO ZORA, VPT2 properties, NMR spectrum
   Ute Becker             : Parallelization
   Giovanni Bistoni       : ED, misc. LED, open-shell LED, HFLD
   Martin Brehm           : Molecular dynamics
   Dmytro Bykov           : SCF Hessian
   Vijay G. Chilkuri      : MRCI spin determinant printing, contributions to CSF-ICE
   Dipayan Datta          : RHF DLPNO-CCSD density
   Achintya Kumar Dutta   : EOM-CC, STEOM-CC
   Dmitry Ganyushin       : Spin-Orbit,Spin-Spin,Magnetic field MRCI
   Miquel Garcia          : C-PCM and meta-GGA Hessian, CC/C-PCM, Gaussian charge scheme
   Yang Guo               : DLPNO-NEVPT2, F12-NEVPT2, CIM, IAO-localization
   Andreas Hansen         : Spin unrestricted coupled pair/coupled cluster methods
   Benjamin Helmich-Paris : MC-RPA, TRAH-SCF, COSX integrals
   Lee Huntington         : MR-EOM, pCC
   Robert Izsak           : Overlap fitted RIJCOSX, COSX-SCS-MP3, EOM
   Marcus Kettner         : VPT2
   Christian Kollmar      : KDIIS, OOCD, Brueckner-CCSD(T), CCSD density, CASPT2, CASPT2-K
   Simone Kossmann        : Meta GGA functionals, TD-DFT gradient, OOMP2, MP2 Hessian
   Martin Krupicka        : Initial AUTO-CI
   Lucas Lang             : DCDCAS
   Marvin Lechner         : AUTO-CI (C++ implementation), FIC-MRCC
   Dagmar Lenk            : GEPOL surface, SMD
   Dimitrios Liakos       : Extrapolation schemes; Compound Job, initial MDCI parallelization
   Dimitrios Manganas     : Further ROCIS development; embedding schemes
   Dimitrios Pantazis     : SARC Basis sets
   Anastasios Papadopoulos: AUTO-CI, single reference methods and gradients
   Taras Petrenko         : DFT Hessian,TD-DFT gradient, ASA, ECA, R-Raman, ABS, FL, XAS/XES, NRVS
   Peter Pinski           : DLPNO-MP2, DLPNO-MP2 Gradient
   Christoph Reimann      : Effective Core Potentials
   Marius Retegan         : Local ZFS, SOC
   Christoph Riplinger    : Optimizer, TS searches, QM/MM, DLPNO-CCSD(T), (RO)-DLPNO pert. Triples
   Tobias Risthaus        : Range-separated hybrids, TD-DFT gradient, RPA, STAB
   Michael Roemelt        : Original ROCIS implementation
   Masaaki Saitow         : Open-shell DLPNO-CCSD energy and density
   Barbara Sandhoefer     : DKH picture change effects
   Avijit Sen             : IP-ROCIS
   Kantharuban Sivalingam : CASSCF convergence, NEVPT2, FIC-MRCI
   Bernardo de Souza      : ESD, SOC TD-DFT
   Georgi Stoychev        : AutoAux, RI-MP2 NMR, DLPNO-MP2 response
   Willem Van den Heuvel  : Paramagnetic NMR
   Boris Wezisla          : Elementary symmetry handling
   Frank Wennmohs         : Technical directorship


 We gratefully acknowledge several colleagues who have allowed us to
 interface, adapt or use parts of their codes:
   Stefan Grimme, W. Hujo, H. Kruse, P. Pracht,  : VdW corrections, initial TS optimization,
                  C. Bannwarth, S. Ehlert          DFT functionals, gCP, sTDA/sTD-DF
   Ed Valeev, F. Pavosevic, A. Kumar             : LibInt (2-el integral package), F12 methods
   Garnet Chan, S. Sharma, J. Yang, R. Olivares  : DMRG
   Ulf Ekstrom                                   : XCFun DFT Library
   Mihaly Kallay                                 : mrcc  (arbitrary order and MRCC methods)
   Jiri Pittner, Ondrej Demel                    : Mk-CCSD
   Frank Weinhold                                : gennbo (NPA and NBO analysis)
   Christopher J. Cramer and Donald G. Truhlar   : smd solvation model
   Lars Goerigk                                  : TD-DFT with DH, B97 family of functionals
   V. Asgeirsson, H. Jonsson                     : NEB implementation
   FAccTs GmbH                                   : IRC, NEB, NEB-TS, DLPNO-Multilevel, CI-OPT
                                                   MM, QMMM, 2- and 3-layer-ONIOM, Crystal-QMMM,
                                                   LR-CPCM, SF, NACMEs, symmetry and pop. for TD-DFT,
                                                   nearIR, NL-DFT gradient (VV10), updates on ESD,
                                                   ML-optimized integration grids
   S Lehtola, MJT Oliveira, MAL Marques          : LibXC Library
   Liviu Ungur et al                             : ANISO software


 Your calculation uses the libint2 library for the computation of 2-el integrals
 For citations please refer to: http://libint.valeyev.net

 Your ORCA version has been built with support for libXC version: 5.1.0
 For citations please refer to: https://tddft.org/programs/libxc/

 This ORCA versions uses:
   CBLAS   interface :  Fast vector & matrix operations
   LAPACKE interface :  Fast linear algebra routines
   SCALAPACK package :  Parallel linear algebra routines
   Shared memory     :  Shared parallel matrices
   BLAS/LAPACK       :  OpenBLAS 0.3.15  USE64BITINT DYNAMIC_ARCH NO_AFFINITY Haswell SINGLE_THREADED
        Core in use  :  Haswell
   Copyright (c) 2011-2014, The OpenBLAS Project




***************************************
The coordinates will be read from file: h2o_6_ts.xyz
***************************************


Your calculation utilizes the geometrical counterpoise correction gCP
Please cite in your paper:
H.Kruse, S. Grimme J.Chem.Phys., 136, (2012), 154101 
   

Your calculation utilizes the atom-pairwise dispersion correction
with the Becke-Johnson damping scheme (D3BJ)
Cite in your paper:
S.Grimme, S.Ehrlich, L.Goerigk, J Comput Chem, (2011), 32, 1456–1465 
S.Grimme, J.Antony, S.Ehrlich and H.Krieg, J.Chem.Phys., 132, (2010), 154104 
   

Your calculation employs the composite approach PBEh-3c.
Please cite in your paper:
S. Grimme, J. G. Brandenburg, C. Bannwarth, A. Hansen J.Chem.Phys., 143, (2015), 054107 
   

================================================================================

----- Orbital basis set information -----
Your calculation utilizes the basis: def2-mSVP

----- AuxJ basis set information -----
Your calculation utilizes the auxiliary basis: def2/J
   F. Weigend, Phys. Chem. Chem. Phys. 8, 1057 (2006).

================================================================================
                                        WARNINGS
                       Please study these warnings very carefully!
================================================================================


INFO   : the flag for use of the SHARK integral package has been found!

================================================================================
                                       INPUT FILE
================================================================================
NAME = pbeh-3c.inp
|  1> ! PBEh-3c def2/J TightSCF DefGrid3
|  2> 
|  3> %maxcore 60000
|  4> 
|  5> %pal
|  6> nprocs 4
|  7> end
|  8> 
|  9> *xyzfile 0 1 h2o_6_ts.xyz
| 10> 
| 11>                          ****END OF INPUT****
================================================================================

                       ****************************
                       * Single Point Calculation *
                       ****************************

---------------------------------
CARTESIAN COORDINATES (ANGSTROEM)
---------------------------------
  O      2.079161   -1.200404    0.095322
  H      1.035446    1.793446    0.000000
  H      2.070893    0.000000    0.000000
  O      2.079161    1.200404   -0.095322
  H      1.035446   -1.793446    0.000000
  O      0.000000   -2.400809   -0.095322
  H     -1.035446   -1.793446    0.000000
  O      0.000000    2.400809    0.095322
  H      0.000000    2.940562    0.889692
  H      2.546601    1.470281   -0.889692
  H      2.546601   -1.470281    0.889692
  H      0.000000   -2.940562   -0.889692
  O     -2.079161   -1.200404    0.095322
  H     -1.035446    1.793446    0.000000
  H     -2.546601   -1.470281    0.889692
  O     -2.079161    1.200404   -0.095322
  H     -2.070893    0.000000    0.000000
  H     -2.546601    1.470281   -0.889692

----------------------------
CARTESIAN COORDINATES (A.U.)
----------------------------
  NO LB      ZA    FRAG     MASS         X           Y           Z
   0 O     8.0000    0    15.999    3.929045   -2.268435    0.180132
   1 H     1.0000    0     1.008    1.956709    3.389122    0.000000
   2 H     1.0000    0     1.008    3.913420    0.000000    0.000000
   3 O     8.0000    0    15.999    3.929045    2.268435   -0.180132
   4 H     1.0000    0     1.008    1.956709   -3.389122    0.000000
   5 O     8.0000    0    15.999    0.000000   -4.536871   -0.180132
   6 H     1.0000    0     1.008   -1.956709   -3.389122    0.000000
   7 O     8.0000    0    15.999    0.000000    4.536871    0.180132
   8 H     1.0000    0     1.008    0.000000    5.556856    1.681274
   9 H     1.0000    0     1.008    4.812378    2.778428   -1.681274
  10 H     1.0000    0     1.008    4.812378   -2.778428    1.681274
  11 H     1.0000    0     1.008    0.000000   -5.556856   -1.681274
  12 O     8.0000    0    15.999   -3.929045   -2.268435    0.180132
  13 H     1.0000    0     1.008   -1.956709    3.389122    0.000000
  14 H     1.0000    0     1.008   -4.812378   -2.778428    1.681274
  15 O     8.0000    0    15.999   -3.929045    2.268435   -0.180132
  16 H     1.0000    0     1.008   -3.913420    0.000000    0.000000
  17 H     1.0000    0     1.008   -4.812378    2.778428   -1.681274

--------------------------------
INTERNAL COORDINATES (ANGSTROEM)
--------------------------------
 O      0   0   0     0.000000000000     0.00000000     0.00000000
 H      1   0   0     3.171996833206     0.00000000     0.00000000
 H      1   2   0     1.204211014168    19.00475486     0.00000000
 O      3   1   2     1.204211014168   179.21321891   172.10032517
 H      1   2   4     1.204211816365   100.20961516   193.73269387
 O      5   1   2     1.204211022955   179.21318048   177.39326574
 H      6   5   1     1.204211022955   118.60043176   172.28340006
 O      2   1   3     1.204211022955   139.16426777   180.00001281
 H      8   2   1     0.960394106102   110.42205962   113.21917164
 H      4   3   1     0.960394290522   110.42206885    58.88112443
 H      1   2   8     0.960394290522   116.75844271   254.69424626
 H      6   5   1     0.960394106102   110.42205962   301.11907775
 O      7   6   5     1.204211816365   179.21318048   187.71659994
 H      8   2   1     1.204211022955   118.60043176   344.38349395
 H     13   7   6     0.960394290522   110.42202519    58.88132582
 O     14   8   2     1.204211816365   179.21318048   187.71659994
 H     13   7   6     1.204211014168   118.60050026   187.71704538
 H     16  14   8     0.960394290522   110.42202519    58.88132582

---------------------------
INTERNAL COORDINATES (A.U.)
---------------------------
 O      0   0   0     0.000000000000     0.00000000     0.00000000
 H      1   0   0     5.994205312425     0.00000000     0.00000000
 H      1   2   0     2.275629024229    19.00475486     0.00000000
 O      3   1   2     2.275629024229   179.21321891   172.10032517
 H      1   2   4     2.275630540162   100.20961516   193.73269387
 O      5   1   2     2.275629040835   179.21318048   177.39326574
 H      6   5   1     2.275629040835   118.60043176   172.28340006
 O      2   1   3     2.275629040835   139.16426777   180.00001281
 H      8   2   1     1.814881841164   110.42205962   113.21917164
 H      4   3   1     1.814882189668   110.42206885    58.88112443
 H      1   2   8     1.814882189668   116.75844271   254.69424626
 H      6   5   1     1.814881841164   110.42205962   301.11907775
 O      7   6   5     2.275630540162   179.21318048   187.71659994
 H      8   2   1     2.275629040835   118.60043176   344.38349395
 H     13   7   6     1.814882189668   110.42202519    58.88132582
 O     14   8   2     2.275630540162   179.21318048   187.71659994
 H     13   7   6     2.275629024229   118.60050026   187.71704538
 H     16  14   8     1.814882189668   110.42202519    58.88132582

---------------------
BASIS SET INFORMATION
---------------------
There are 2 groups of distinct atoms

 Group   1 Type O   : 8s4p1d contracted to 4s2p1d pattern {5111/31/1}
 Group   2 Type H   : 4s contracted to 2s pattern {31}

Atom   0O    basis set group =>   1
Atom   1H    basis set group =>   2
Atom   2H    basis set group =>   2
Atom   3O    basis set group =>   1
Atom   4H    basis set group =>   2
Atom   5O    basis set group =>   1
Atom   6H    basis set group =>   2
Atom   7O    basis set group =>   1
Atom   8H    basis set group =>   2
Atom   9H    basis set group =>   2
Atom  10H    basis set group =>   2
Atom  11H    basis set group =>   2
Atom  12O    basis set group =>   1
Atom  13H    basis set group =>   2
Atom  14H    basis set group =>   2
Atom  15O    basis set group =>   1
Atom  16H    basis set group =>   2
Atom  17H    basis set group =>   2
---------------------------------
AUXILIARY/J BASIS SET INFORMATION
---------------------------------
There are 2 groups of distinct atoms

 Group   1 Type O   : 12s5p4d2f1g contracted to 6s4p3d1f1g pattern {711111/2111/211/2/1}
 Group   2 Type H   : 5s2p1d contracted to 3s1p1d pattern {311/2/1}

Atom   0O    basis set group =>   1
Atom   1H    basis set group =>   2
Atom   2H    basis set group =>   2
Atom   3O    basis set group =>   1
Atom   4H    basis set group =>   2
Atom   5O    basis set group =>   1
Atom   6H    basis set group =>   2
Atom   7O    basis set group =>   1
Atom   8H    basis set group =>   2
Atom   9H    basis set group =>   2
Atom  10H    basis set group =>   2
Atom  11H    basis set group =>   2
Atom  12O    basis set group =>   1
Atom  13H    basis set group =>   2
Atom  14H    basis set group =>   2
Atom  15O    basis set group =>   1
Atom  16H    basis set group =>   2
Atom  17H    basis set group =>   2


           ************************************************************
           *        Program running with 4 parallel MPI-processes     *
           *              working on a common directory               *
           ************************************************************
------------------------------------------------------------------------------
                           ORCA GTO INTEGRAL CALCULATION
                           -- RI-GTO INTEGRALS CHOSEN --
------------------------------------------------------------------------------
------------------------------------------------------------------------------
                   ___                                                        
                  /   \      - P O W E R E D   B Y -                         
                 /     \                                                     
                 |  |  |   _    _      __       _____    __    __             
                 |  |  |  | |  | |    /  \     |  _  \  |  |  /  |          
                  \  \/   | |  | |   /    \    | | | |  |  | /  /          
                 / \  \   | |__| |  /  /\  \   | |_| |  |  |/  /          
                |  |  |   |  __  | /  /__\  \  |    /   |      \           
                |  |  |   | |  | | |   __   |  |    \   |  |\   \          
                \     /   | |  | | |  |  |  |  | |\  \  |  | \   \       
                 \___/    |_|  |_| |__|  |__|  |_| \__\ |__|  \__/        
                                                                              
                      - O R C A' S   B I G   F R I E N D -                    
                                      &                                       
                       - I N T E G R A L  F E E D E R -                       
                                                                              
 v1 FN, 2020, v2 2021                                                         
------------------------------------------------------------------------------


Reading SHARK input file pbeh-3c.SHARKINP.tmp ... ok
----------------------
SHARK INTEGRAL PACKAGE
----------------------

Number of atoms                             ...     18
Number of basis functions                   ...    114
Number of shells                            ...     66
Maximum angular momentum                    ...      2
Integral batch strategy                     ... SHARK/LIBINT Hybrid
RI-J (if used) integral strategy            ... SPLIT-RIJ (Revised 2003 algorithm where possible)
Printlevel                                  ...      1
Contraction scheme used                     ... SEGMENTED contraction
Coulomb Range Separation                    ... NOT USED
Exchange Range Separation                   ... NOT USED
Finite Nucleus Model                        ... NOT USED
Auxiliary Coulomb fitting basis             ... AVAILABLE
   # of basis functions in Aux-J            ...    426
   # of shells in Aux-J                     ...    150
   Maximum angular momentum in Aux-J        ...      4
Auxiliary J/K fitting basis                 ... NOT available
Auxiliary Correlation fitting basis         ... NOT available
Auxiliary 'external' fitting basis          ... NOT available
Integral threshold                          ...     2.500000e-11
Primitive cut-off                           ...     2.500000e-12
Primitive pair pre-selection threshold      ...     2.500000e-12

Calculating pre-screening integrals         ... done (  0.0 sec) Dimension = 66
Organizing shell pair data                  ... done (  0.2 sec)
Shell pair information
Total number of shell pairs                 ...      2211
Shell pairs after pre-screening             ...      1848
Total number of primitive shell pairs       ...      8115
Primitive shell pairs kept                  ...      4713
          la=0 lb=0:    948 shell pairs
          la=1 lb=0:    504 shell pairs
          la=1 lb=1:     69 shell pairs
          la=2 lb=0:    240 shell pairs
          la=2 lb=1:     66 shell pairs
          la=2 lb=2:     21 shell pairs

Calculating one electron integrals          ... done (  0.0 sec)
Calculating RI/J V-Matrix + Cholesky decomp.... done (  0.3 sec)
Calculating Nuclear repulsion               ... done (  0.0 sec) ENN=    295.054532772956 Eh

SHARK setup successfully completed in   1.5 seconds

Maximum memory used throughout the entire GTOINT-calculation: 10.5 MB


           ************************************************************
           *        Program running with 4 parallel MPI-processes     *
           *              working on a common directory               *
           ************************************************************
-------------------------------------------------------------------------------
                                 ORCA SCF
-------------------------------------------------------------------------------

------------
SCF SETTINGS
------------
Hamiltonian:
 Density Functional     Method          .... DFT(GTOs)
 Exchange Functional    Exchange        .... PBE
   PBE kappa parameter   XKappa         ....  1.024500
   PBE mue parameter    XMuePBE         ....  0.123457
 Correlation Functional Correlation     .... PBE
   PBE beta parameter  CBetaPBE         ....  0.030000
 LDA part of GGA corr.  LDAOpt          .... PW91-LDA
 Gradients option       PostSCFGGA      .... off
 Hybrid DFT is turned on
   Fraction HF Exchange ScalHFX         ....  0.420000
   Scaling of DF-GGA-X  ScalDFX         ....  0.580000
   Scaling of DF-GGA-C  ScalDFC         ....  1.000000
   Scaling of DF-LDA-C  ScalLDAC        ....  1.000000
   Perturbative correction              ....  0.000000
   Density functional embedding theory  .... OFF
 RI-approximation to the Coulomb term is turned on
   Number of AuxJ basis functions       .... 426
   RIJ-ON(X) (HFX calculated with O(N)) .... on
   Number of AuxJ basis functions       .... 426
   RIJ-COSX (HFX calculated with COS-X)).... on


General Settings:
 Integral files         IntName         .... pbeh-3c
 Hartree-Fock type      HFTyp           .... RHF
 Total Charge           Charge          ....    0
 Multiplicity           Mult            ....    1
 Number of Electrons    NEL             ....   60
 Basis Dimension        Dim             ....  114
 Nuclear Repulsion      ENuc            ....    295.0545327730 Eh

Convergence Acceleration:
 DIIS                   CNVDIIS         .... on
   Start iteration      DIISMaxIt       ....    12
   Startup error        DIISStart       ....  0.200000
   # of expansion vecs  DIISMaxEq       ....     5
   Bias factor          DIISBfac        ....   1.050
   Max. coefficient     DIISMaxC        ....  10.000
 Trust-Rad. Augm. Hess. CNVTRAH         .... auto
   Auto Start mean grad. ratio tolernc. ....  1.125000
   Auto Start start iteration           ....    20
   Auto Start num. interpolation iter.  ....    10
   Max. Number of Micro iterations      ....    16
   Max. Number of Macro iterations      .... Maxiter - #DIIS iter
   Number of Davidson start vectors     ....     2
   Converg. threshold I  (grad. norm)   ....   1.000e-05
   Converg. threshold II (energy diff.) ....   1.000e-08
   Grad. Scal. Fac. for Micro threshold ....   0.100
   Minimum threshold for Micro iter.    ....   0.010
   NR start threshold (gradient norm)   ....   0.001
   Initial trust radius                 ....   0.400
   Minimum AH scaling param. (alpha)    ....   1.000
   Maximum AH scaling param. (alpha)    .... 1000.000
   Orbital update algorithm             .... Taylor
   White noise on init. David. guess    .... on
   Maximum white noise                  ....   0.010
   Quad. conv. algorithm                .... NR
   COSX micro iterations for RIJONX calc.... off
 SOSCF                  CNVSOSCF        .... on
   Start iteration      SOSCFMaxIt      ....   150
   Startup grad/error   SOSCFStart      ....  0.003300
 Level Shifting         CNVShift        .... on
   Level shift para.    LevelShift      ....    0.2500
   Turn off err/grad.   ShiftErr        ....    0.0010
 Zerner damping         CNVZerner       .... off
 Static damping         CNVDamp         .... on
   Fraction old density DampFac         ....    0.7000
   Max. Damping (<1)    DampMax         ....    0.9800
   Min. Damping (>=0)   DampMin         ....    0.0000
   Turn off err/grad.   DampErr         ....    0.1000
 Fernandez-Rico         CNVRico         .... off

SCF Procedure:
 Maximum # iterations   MaxIter         ....   125
 SCF integral mode      SCFMode         .... Direct
   Integral package                     .... SHARK and LIBINT hybrid scheme
 Reset frequency        DirectResetFreq ....    20
 Integral Threshold     Thresh          ....  2.500e-11 Eh
 Primitive CutOff       TCut            ....  2.500e-12 Eh

Convergence Tolerance:
 Convergence Check Mode ConvCheckMode   .... Total+1el-Energy
 Convergence forced     ConvForced      .... 0
 Energy Change          TolE            ....  1.000e-08 Eh
 1-El. energy change                    ....  1.000e-05 Eh
 Orbital Gradient       TolG            ....  1.000e-05
 Orbital Rotation angle TolX            ....  1.000e-05
 DIIS Error             TolErr          ....  5.000e-07


Diagonalization of the overlap matrix:
Smallest eigenvalue                        ... 1.913e-02
Time for diagonalization                   ...    0.002 sec
Threshold for overlap eigenvalues          ... 1.000e-08
Number of eigenvalues below threshold      ... 0
Time for construction of square roots      ...    0.097 sec
Total time needed                          ...    0.100 sec

--------------------------------
INITIAL GUESS: MINIMAL BASIS EHT
--------------------------------
The minimal basis has 42 functions
EHT matrix was diagonalized
Basis set overlap was calculated now projecting the orbitals
Using GuessMode=FMatrix for the initial guess
C*T matrix was formed
Effective Fockian was calculated
Effective Fockian was diagonalized
Initial density was built
                      ------------------
                      INITIAL GUESS DONE
                      ------------------
-------------------
DFT GRID GENERATION
-------------------

General Integration Accuracy     IntAcc      ... 4.959
Radial Grid Type                 RadialGrid  ... OptM3 with GC (2021)
Angular Grid (max. ang.)         AngularGrid ... 6 (Lebedev-590)
Angular grid pruning method      GridPruning ... 4 (adaptive)
Weight generation scheme         WeightScheme... Becke
Basis function cutoff            BFCut       ... 1.0000e-11
Integration weight cutoff        WCut        ... 1.0000e-14
Angular grids for H and He will be reduced by one unit
Partially contracted basis set               ... off
Rotationally invariant grid construction     ... off

Total number of grid points                  ...   192490
Total number of batches                      ...     3018
Average number of points per batch           ...       63
Average number of grid points per atom       ...    10694
Time for grid setup =    2.932 sec

--------------------
COSX GRID GENERATION
--------------------

GRIDX 1
-------
General Integration Accuracy     IntAcc      ... 4.020
Radial Grid Type                 RadialGrid  ... OptM3 with GC (2021)
Angular Grid (max. ang.)         AngularGrid ... 2 (Lebedev-110)
Angular grid pruning method      GridPruning ... 4 (adaptive)
Weight generation scheme         WeightScheme... Becke
Basis function cutoff            BFCut       ... 1.0000e-11
Integration weight cutoff        WCut        ... 1.0000e-14
Angular grids for H and He will be reduced by one unit
Partially contracted basis set               ... on
Rotationally invariant grid construction     ... off

Total number of grid points                  ...    20296
Total number of batches                      ...      323
Average number of points per batch           ...       62
Average number of grid points per atom       ...     1128
UseSFitting                                  ... on

GRIDX 2
-------
General Integration Accuracy     IntAcc      ... 4.338
Radial Grid Type                 RadialGrid  ... OptM3 with GC (2021)
Angular Grid (max. ang.)         AngularGrid ... 3 (Lebedev-194)
Angular grid pruning method      GridPruning ... 4 (adaptive)
Weight generation scheme         WeightScheme... Becke
Basis function cutoff            BFCut       ... 1.0000e-11
Integration weight cutoff        WCut        ... 1.0000e-14
Angular grids for H and He will be reduced by one unit
Partially contracted basis set               ... on
Rotationally invariant grid construction     ... off

Total number of grid points                  ...    44362
Total number of batches                      ...      702
Average number of points per batch           ...       63
Average number of grid points per atom       ...     2465
UseSFitting                                  ... on

GRIDX 3
-------
General Integration Accuracy     IntAcc      ... 4.871
Radial Grid Type                 RadialGrid  ... OptM3 with GC (2021)
Angular Grid (max. ang.)         AngularGrid ... 4 (Lebedev-302)
Angular grid pruning method      GridPruning ... 4 (adaptive)
Weight generation scheme         WeightScheme... Becke
Basis function cutoff            BFCut       ... 1.0000e-11
Integration weight cutoff        WCut        ... 1.0000e-14
Angular grids for H and He will be reduced by one unit
Partially contracted basis set               ... on
Rotationally invariant grid construction     ... off

Total number of grid points                  ...    88540
Total number of batches                      ...     1393
Average number of points per batch           ...       63
Average number of grid points per atom       ...     4919
UseSFitting                                  ... on

Time for X-Grid setup             =    3.285 sec

--------------
SCF ITERATIONS
--------------
ITER       Energy         Delta-E        Max-DP      RMS-DP      [F,P]     Damp
               ***  Starting incremental Fock matrix formation  ***
  0   -456.2686837521   0.000000000000 0.13655252  0.00680573  0.4382311 0.7000
  1   -456.7807700163  -0.512086264279 0.07862698  0.00387316  0.2160513 0.7000
                               ***Turning on DIIS***
  2   -457.0477297100  -0.266959693706 0.03987668  0.00207301  0.1078847 0.7000
  3   -457.2225880970  -0.174858386904 0.05893398  0.00376114  0.0755165 0.0000
  4   -457.6379839297  -0.415395832795 0.00840712  0.00050843  0.0104147 0.0000
                      *** Initiating the SOSCF procedure ***
                           *** Shutting down DIIS ***
                      *** Re-Reading the Fockian *** 
                      *** Removing any level shift *** 
ITER      Energy       Delta-E        Grad      Rot      Max-DP    RMS-DP
  5   -457.63910182  -0.0011178923  0.001811  0.001811  0.001805  0.000136
               *** Restarting incremental Fock matrix formation ***
  6   -457.63925736  -0.0001555390  0.000804  0.001607  0.001146  0.000078
  7   -457.63927452  -0.0000171573  0.000183  0.000510  0.000431  0.000025
  8   -457.63927545  -0.0000009280  0.000087  0.000055  0.000154  0.000006
  9   -457.63927556  -0.0000001175  0.000036  0.000056  0.000059  0.000003
 10   -457.63927559  -0.0000000270  0.000003  0.000005  0.000007  0.000000
 11   -457.63927559   0.0000000020  0.000003  0.000002  0.000003  0.000000
                 **** Energy Check signals convergence ****
              ***Rediagonalizing the Fockian in SOSCF/NRSCF***

               *****************************************************
               *                     SUCCESS                       *
               *           SCF CONVERGED AFTER  12 CYCLES          *
               *****************************************************

Old exchange energy                            =    -22.526400065 Eh
New exchange energy                            =    -22.526412131 Eh
Exchange energy change after final integration =     -0.000012066 Eh
Total energy after final integration           =   -457.639287656 Eh
Final COS-X integration done in                =     2.425 sec

----------------
TOTAL SCF ENERGY
----------------

Total Energy       :         -457.63928766 Eh          -12452.99812 eV

Components:
Nuclear Repulsion  :          295.05453277 Eh            8028.84202 eV
Electronic Energy  :         -752.69382043 Eh          -20481.84013 eV
One Electron Energy:        -1219.44296736 Eh          -33182.73012 eV
Two Electron Energy:          466.74914693 Eh           12700.88999 eV
Max COSX asymmetry :            0.00000027 Eh               0.00001 eV

Virial components:
Potential Energy   :         -912.38144963 Eh          -24827.16143 eV
Kinetic Energy     :          454.74216197 Eh           12374.16332 eV
Virial Ratio       :            2.00637092


DFT components:
N(Alpha)           :       29.999994223197 electrons
N(Beta)            :       29.999994223197 electrons
N(Total)           :       59.999988446394 electrons
E(X)               :      -30.052820689164 Eh       
E(C)               :       -2.698578471868 Eh       
E(XC)              :      -32.751399161033 Eh       
DFET-embed. en.    :        0.000000000000 Eh       

---------------
SCF CONVERGENCE
---------------

  Last Energy change         ...   -1.8289e-09  Tolerance :   1.0000e-08
  Last MAX-Density change    ...    1.6653e-15  Tolerance :   1.0000e-07
  Last RMS-Density change    ...    5.3598e-17  Tolerance :   5.0000e-09
  Last Orbital Gradient      ...    3.5106e-07  Tolerance :   1.0000e-05
  Last Orbital Rotation      ...    8.0698e-07  Tolerance :   1.0000e-05

             **** THE GBW FILE WAS UPDATED (pbeh-3c.gbw) ****
             **** DENSITY pbeh-3c.scfp WAS UPDATED ****
             **** ENERGY FILE WAS UPDATED (pbeh-3c.en.tmp) ****
             **** THE GBW FILE WAS UPDATED (pbeh-3c.gbw) ****
             **** DENSITY pbeh-3c.scfp WAS UPDATED ****
----------------
ORBITAL ENERGIES
----------------

  NO   OCC          E(Eh)            E(eV) 
   0   2.0000     -19.463842      -529.6381 
   1   2.0000     -19.463841      -529.6380 
   2   2.0000     -19.463835      -529.6379 
   3   2.0000     -19.463771      -529.6361 
   4   2.0000     -19.463770      -529.6361 
   5   2.0000     -19.463676      -529.6336 
   6   2.0000      -1.113458       -30.2987 
   7   2.0000      -1.097481       -29.8640 
   8   2.0000      -1.097479       -29.8639 
   9   2.0000      -1.061625       -28.8883 
  10   2.0000      -1.061624       -28.8883 
  11   2.0000      -1.040822       -28.3222 
  12   2.0000      -0.599635       -16.3169 
  13   2.0000      -0.587634       -15.9903 
  14   2.0000      -0.587634       -15.9903 
  15   2.0000      -0.583132       -15.8678 
  16   2.0000      -0.581141       -15.8137 
  17   2.0000      -0.581141       -15.8136 
  18   2.0000      -0.501145       -13.6368 
  19   2.0000      -0.468904       -12.7595 
  20   2.0000      -0.468903       -12.7595 
  21   2.0000      -0.391714       -10.6591 
  22   2.0000      -0.391712       -10.6590 
  23   2.0000      -0.370953       -10.0941 
  24   2.0000      -0.351241        -9.5577 
  25   2.0000      -0.351240        -9.5577 
  26   2.0000      -0.349263        -9.5039 
  27   2.0000      -0.349262        -9.5039 
  28   2.0000      -0.346693        -9.4340 
  29   2.0000      -0.318631        -8.6704 
  30   0.0000       0.128379         3.4934 
  31   0.0000       0.153200         4.1688 
  32   0.0000       0.153201         4.1688 
  33   0.0000       0.182189         4.9576 
  34   0.0000       0.182190         4.9576 
  35   0.0000       0.193553         5.2669 
  36   0.0000       0.306144         8.3306 
  37   0.0000       0.359706         9.7881 
  38   0.0000       0.359716         9.7884 
  39   0.0000       0.430108        11.7038 
  40   0.0000       0.430113        11.7040 
  41   0.0000       0.463697        12.6178 
  42   0.0000       0.738221        20.0880 
  43   0.0000       0.823402        22.4059 
  44   0.0000       0.823405        22.4060 
  45   0.0000       0.829473        22.5711 
  46   0.0000       0.858585        23.3633 
  47   0.0000       0.858586        23.3633 
  48   0.0000       0.883496        24.0412 
  49   0.0000       0.886928        24.1345 
  50   0.0000       0.886928        24.1345 
  51   0.0000       0.901887        24.5416 
  52   0.0000       0.905061        24.6280 
  53   0.0000       0.905064        24.6280 
  54   0.0000       1.009375        27.4665 
  55   0.0000       1.036437        28.2029 
  56   0.0000       1.036441        28.2030 
  57   0.0000       1.039102        28.2754 
  58   0.0000       1.039109        28.2756 
  59   0.0000       1.082557        29.4579 
  60   0.0000       1.170868        31.8609 
  61   0.0000       1.170882        31.8613 
  62   0.0000       1.186900        32.2972 
  63   0.0000       1.186902        32.2973 
  64   0.0000       1.253515        34.1099 
  65   0.0000       1.272793        34.6345 
  66   0.0000       1.284964        34.9657 
  67   0.0000       1.284965        34.9657 
  68   0.0000       1.298772        35.3414 
  69   0.0000       1.298779        35.3416 
  70   0.0000       1.305772        35.5319 
  71   0.0000       1.402501        38.1640 
  72   0.0000       1.728949        47.0471 
  73   0.0000       1.772659        48.2365 
  74   0.0000       1.786200        48.6050 
  75   0.0000       1.793117        48.7932 
  76   0.0000       1.793119        48.7932 
  77   0.0000       1.802600        49.0513 
  78   0.0000       1.802603        49.0513 
  79   0.0000       1.811164        49.2843 
  80   0.0000       1.811168        49.2844 
  81   0.0000       1.826396        49.6988 
  82   0.0000       1.826397        49.6988 
  83   0.0000       1.832824        49.8737 
  84   0.0000       1.833908        49.9032 
  85   0.0000       1.896771        51.6138 
  86   0.0000       1.896778        51.6140 
  87   0.0000       1.902375        51.7663 
  88   0.0000       1.920332        52.2549 
  89   0.0000       1.921045        52.2743 
  90   0.0000       1.921047        52.2744 
  91   0.0000       1.957416        53.2640 
  92   0.0000       1.957418        53.2641 
  93   0.0000       1.973543        53.7028 
  94   0.0000       1.989241        54.1300 
  95   0.0000       1.989242        54.1300 
  96   0.0000       2.555280        69.5327 
  97   0.0000       2.575680        70.0878 
  98   0.0000       2.575680        70.0878 
  99   0.0000       2.582364        70.2697 
 100   0.0000       2.598369        70.7052 
 101   0.0000       2.598373        70.7053 
 102   0.0000       2.932791        79.8053 
 103   0.0000       2.970702        80.8369 
 104   0.0000       2.970703        80.8369 
 105   0.0000       3.017399        82.1076 
 106   0.0000       3.017403        82.1077 
 107   0.0000       3.028451        82.4083 
 108   0.0000      25.251342       687.1240 
 109   0.0000      25.492934       693.6980 
 110   0.0000      25.492936       693.6980 
 111   0.0000      25.699135       699.3090 
 112   0.0000      25.699383       699.3158 
 113   0.0000      25.699387       699.3159 

                    ********************************
                    * MULLIKEN POPULATION ANALYSIS *
                    ********************************

-----------------------
MULLIKEN ATOMIC CHARGES
-----------------------
   0 O :   -0.916799
   1 H :    0.496572
   2 H :    0.496591
   3 O :   -0.916799
   4 H :    0.496572
   5 O :   -0.916785
   6 H :    0.496572
   7 O :   -0.916785
   8 H :    0.420220
   9 H :    0.420214
  10 H :    0.420214
  11 H :    0.420220
  12 O :   -0.916799
  13 H :    0.496572
  14 H :    0.420214
  15 O :   -0.916799
  16 H :    0.496591
  17 H :    0.420214
Sum of atomic charges:   -0.0000000

--------------------------------
MULLIKEN REDUCED ORBITAL CHARGES
--------------------------------
  0 O s       :     3.821952  s :     3.821952
      pz      :     1.649625  p :     5.078912
      px      :     1.719137
      py      :     1.710150
      dz2     :     0.005752  d :     0.015935
      dxz     :     0.004708
      dyz     :     0.001887
      dx2y2   :     0.002080
      dxy     :     0.001508
  1 H s       :     0.503428  s :     0.503428
  2 H s       :     0.503409  s :     0.503409
  3 O s       :     3.821952  s :     3.821952
      pz      :     1.649625  p :     5.078912
      px      :     1.719137
      py      :     1.710150
      dz2     :     0.005752  d :     0.015935
      dxz     :     0.004708
      dyz     :     0.001887
      dx2y2   :     0.002080
      dxy     :     0.001508
  4 H s       :     0.503428  s :     0.503428
  5 O s       :     3.821940  s :     3.821940
      pz      :     1.649627  p :     5.078910
      px      :     1.705655
      py      :     1.723627
      dz2     :     0.005752  d :     0.015935
      dxz     :     0.000476
      dyz     :     0.006119
      dx2y2   :     0.001222
      dxy     :     0.002366
  6 H s       :     0.503428  s :     0.503428
  7 O s       :     3.821940  s :     3.821940
      pz      :     1.649627  p :     5.078910
      px      :     1.705655
      py      :     1.723627
      dz2     :     0.005752  d :     0.015935
      dxz     :     0.000476
      dyz     :     0.006119
      dx2y2   :     0.001222
      dxy     :     0.002366
  8 H s       :     0.579780  s :     0.579780
  9 H s       :     0.579786  s :     0.579786
 10 H s       :     0.579786  s :     0.579786
 11 H s       :     0.579780  s :     0.579780
 12 O s       :     3.821952  s :     3.821952
      pz      :     1.649625  p :     5.078912
      px      :     1.719137
      py      :     1.710150
      dz2     :     0.005752  d :     0.015935
      dxz     :     0.004708
      dyz     :     0.001887
      dx2y2   :     0.002080
      dxy     :     0.001508
 13 H s       :     0.503428  s :     0.503428
 14 H s       :     0.579786  s :     0.579786
 15 O s       :     3.821952  s :     3.821952
      pz      :     1.649625  p :     5.078912
      px      :     1.719137
      py      :     1.710150
      dz2     :     0.005752  d :     0.015935
      dxz     :     0.004708
      dyz     :     0.001887
      dx2y2   :     0.002080
      dxy     :     0.001508
 16 H s       :     0.503409  s :     0.503409
 17 H s       :     0.579786  s :     0.579786


                     *******************************
                     * LOEWDIN POPULATION ANALYSIS *
                     *******************************

----------------------
LOEWDIN ATOMIC CHARGES
----------------------
   0 O :   -0.654533
   1 H :    0.349568
   2 H :    0.349574
   3 O :   -0.654533
   4 H :    0.349568
   5 O :   -0.654531
   6 H :    0.349568
   7 O :   -0.654531
   8 H :    0.304964
   9 H :    0.304961
  10 H :    0.304961
  11 H :    0.304964
  12 O :   -0.654533
  13 H :    0.349568
  14 H :    0.304961
  15 O :   -0.654533
  16 H :    0.349574
  17 H :    0.304961

-------------------------------
LOEWDIN REDUCED ORBITAL CHARGES
-------------------------------
  0 O s       :     3.583058  s :     3.583058
      pz      :     1.653937  p :     5.045951
      px      :     1.706140
      py      :     1.685874
      dz2     :     0.008380  d :     0.025524
      dxz     :     0.006289
      dyz     :     0.002562
      dx2y2   :     0.004813
      dxy     :     0.003479
  1 H s       :     0.650432  s :     0.650432
  2 H s       :     0.650426  s :     0.650426
  3 O s       :     3.583058  s :     3.583058
      pz      :     1.653937  p :     5.045951
      px      :     1.706140
      py      :     1.685874
      dz2     :     0.008380  d :     0.025524
      dxz     :     0.006289
      dyz     :     0.002562
      dx2y2   :     0.004813
      dxy     :     0.003479
  4 H s       :     0.650432  s :     0.650432
  5 O s       :     3.583053  s :     3.583053
      pz      :     1.653940  p :     5.045953
      px      :     1.675741
      py      :     1.716273
      dz2     :     0.008380  d :     0.025524
      dxz     :     0.000699
      dyz     :     0.008152
      dx2y2   :     0.002813
      dxy     :     0.005480
  6 H s       :     0.650432  s :     0.650432
  7 O s       :     3.583053  s :     3.583053
      pz      :     1.653940  p :     5.045953
      px      :     1.675741
      py      :     1.716273
      dz2     :     0.008380  d :     0.025524
      dxz     :     0.000699
      dyz     :     0.008152
      dx2y2   :     0.002813
      dxy     :     0.005480
  8 H s       :     0.695036  s :     0.695036
  9 H s       :     0.695039  s :     0.695039
 10 H s       :     0.695039  s :     0.695039
 11 H s       :     0.695036  s :     0.695036
 12 O s       :     3.583058  s :     3.583058
      pz      :     1.653937  p :     5.045951
      px      :     1.706140
      py      :     1.685874
      dz2     :     0.008380  d :     0.025524
      dxz     :     0.006289
      dyz     :     0.002562
      dx2y2   :     0.004813
      dxy     :     0.003479
 13 H s       :     0.650432  s :     0.650432
 14 H s       :     0.695039  s :     0.695039
 15 O s       :     3.583058  s :     3.583058
      pz      :     1.653937  p :     5.045951
      px      :     1.706140
      py      :     1.685874
      dz2     :     0.008380  d :     0.025524
      dxz     :     0.006289
      dyz     :     0.002562
      dx2y2   :     0.004813
      dxy     :     0.003479
 16 H s       :     0.650426  s :     0.650426
 17 H s       :     0.695039  s :     0.695039


                      *****************************
                      * MAYER POPULATION ANALYSIS *
                      *****************************

  NA   - Mulliken gross atomic population
  ZA   - Total nuclear charge
  QA   - Mulliken gross atomic charge
  VA   - Mayer's total valence
  BVA  - Mayer's bonded valence
  FA   - Mayer's free valence

  ATOM       NA         ZA         QA         VA         BVA        FA
  0 O      8.9168     8.0000    -0.9168     1.6069     1.6069    -0.0000
  1 H      0.5034     1.0000     0.4966     0.7550     0.7550    -0.0000
  2 H      0.5034     1.0000     0.4966     0.7550     0.7550    -0.0000
  3 O      8.9168     8.0000    -0.9168     1.6069     1.6069    -0.0000
  4 H      0.5034     1.0000     0.4966     0.7550     0.7550     0.0000
  5 O      8.9168     8.0000    -0.9168     1.6069     1.6069     0.0000
  6 H      0.5034     1.0000     0.4966     0.7550     0.7550    -0.0000
  7 O      8.9168     8.0000    -0.9168     1.6069     1.6069    -0.0000
  8 H      0.5798     1.0000     0.4202     0.8036     0.8036    -0.0000
  9 H      0.5798     1.0000     0.4202     0.8036     0.8036    -0.0000
 10 H      0.5798     1.0000     0.4202     0.8036     0.8036    -0.0000
 11 H      0.5798     1.0000     0.4202     0.8036     0.8036    -0.0000
 12 O      8.9168     8.0000    -0.9168     1.6069     1.6069    -0.0000
 13 H      0.5034     1.0000     0.4966     0.7550     0.7550     0.0000
 14 H      0.5798     1.0000     0.4202     0.8036     0.8036    -0.0000
 15 O      8.9168     8.0000    -0.9168     1.6069     1.6069    -0.0000
 16 H      0.5034     1.0000     0.4966     0.7550     0.7550     0.0000
 17 H      0.5798     1.0000     0.4202     0.8036     0.8036    -0.0000

  Mayer bond orders larger than 0.100000
B(  0-O ,  2-H ) :   0.3754 B(  0-O ,  4-H ) :   0.3754 B(  0-O , 10-H ) :   0.7961 
B(  1-H ,  3-O ) :   0.3754 B(  1-H ,  7-O ) :   0.3754 B(  2-H ,  3-O ) :   0.3754 
B(  3-O ,  9-H ) :   0.7961 B(  4-H ,  5-O ) :   0.3754 B(  5-O ,  6-H ) :   0.3754 
B(  5-O , 11-H ) :   0.7961 B(  6-H , 12-O ) :   0.3754 B(  7-O ,  8-H ) :   0.7961 
B(  7-O , 13-H ) :   0.3754 B( 12-O , 14-H ) :   0.7961 B( 12-O , 16-H ) :   0.3754 
B( 13-H , 15-O ) :   0.3754 B( 15-O , 16-H ) :   0.3754 B( 15-O , 17-H ) :   0.7961 


-------
TIMINGS
-------

Total SCF time: 0 days 0 hours 1 min 4 sec 

Total time                  ....      64.061 sec
Sum of individual times     ....      58.682 sec  ( 91.6%)

Fock matrix formation       ....      49.658 sec  ( 77.5%)
  Split-RI-J                ....       5.493 sec  ( 11.1% of F)
  Chain of spheres X        ....      15.644 sec  ( 31.5% of F)
  XC integration            ....      16.738 sec  ( 33.7% of F)
    Basis function eval.    ....       2.066 sec  ( 12.3% of XC)
    Density eval.           ....       1.310 sec  (  7.8% of XC)
    XC-Functional eval.     ....       1.241 sec  (  7.4% of XC)
    XC-Potential eval.      ....       0.489 sec  (  2.9% of XC)
Diagonalization             ....       0.496 sec  (  0.8%)
Density matrix formation    ....       0.042 sec  (  0.1%)
Population analysis         ....       0.558 sec  (  0.9%)
Initial guess               ....       0.009 sec  (  0.0%)
Orbital Transformation      ....       0.000 sec  (  0.0%)
Orbital Orthonormalization  ....       0.000 sec  (  0.0%)
DIIS solution               ....       0.944 sec  (  1.5%)
SOSCF solution              ....       0.758 sec  (  1.2%)
Grid generation             ....       6.217 sec  (  9.7%)

Maximum memory used throughout the entire SCF-calculation: 53.7 MB


-------------------------------------------------------------------------------
                          DFT DISPERSION CORRECTION                            
                                                                               
                              DFTD3 V3.1  Rev 1                                
                          USING Becke-Johnson damping                          
-------------------------------------------------------------------------------
The PBEh-3c composite method is recognized
Using three-body term ABC
Active option DFTDOPT                   ...         4   

molecular C6(AA) [au] = 1591.840325 


            DFT-D V3
 parameters
 s6 scaling factor         :     1.0000 
 a1 scaling factor         :     0.4860 
 s8 scaling factor         :     0.0000 
 a2 scaling factor         :     4.5000 
 Damping factor alpha9(ATM):    16.0000 
 ad hoc parameters k1-k3   :    16.0000     1.3333    -4.0000 

 Edisp/kcal,au: -3.297362039485  -0.005254680326 
 E6   /kcal   :  -3.342444591 
 E8   /kcal   :  -0.000000000 
 E6(ABC)      :   0.045082551 
 % E8         :   0.000000000 
 % E6(ABC)    :  -1.367230851 

-------------------------   ----------------
Dispersion correction           -0.005254680
-------------------------   ----------------

------------------   -----------------
gCP correction             0.043193527
------------------   -----------------

-------------------------   --------------------
FINAL SINGLE POINT ENERGY      -457.601348809866
-------------------------   --------------------


                            ***************************************
                            *     ORCA property calculations      *
                            ***************************************

                                    ---------------------
                                    Active property flags
                                    ---------------------
   (+) Dipole Moment


------------------------------------------------------------------------------
                       ORCA ELECTRIC PROPERTIES CALCULATION
------------------------------------------------------------------------------

Dipole Moment Calculation                       ... on
Quadrupole Moment Calculation                   ... off
Polarizability Calculation                      ... off
GBWName                                         ... pbeh-3c.gbw
Electron density                                ... pbeh-3c.scfp
The origin for moment calculation is the CENTER OF MASS  = ( 0.000000,  0.000000 -0.000000)

-------------
DIPOLE MOMENT
-------------
                                X             Y             Z
Electronic contribution:      0.00000      -0.00000       0.00000
Nuclear contribution   :      0.00000      -0.00000       0.00000
                        -----------------------------------------
Total Dipole Moment    :      0.00000      -0.00000       0.00000
                        -----------------------------------------
Magnitude (a.u.)       :      0.00000
Magnitude (Debye)      :      0.00000



--------------------
Rotational spectrum 
--------------------
 
Rotational constants in cm-1:     0.052447     0.052447     0.026693 
Rotational constants in MHz :  1572.307097  1572.306741   800.243838 

 Dipole components along the rotational axes: 
x,y,z [a.u.] :    -0.000000     0.000000     0.000000 
x,y,z [Debye]:    -0.000000     0.000000     0.000000 

 

Timings for individual modules:

Sum of individual times         ...       67.315 sec (=   1.122 min)
GTO integral calculation        ...        2.399 sec (=   0.040 min)   3.6 %
SCF iterations                  ...       64.916 sec (=   1.082 min)  96.4 %
                             ****ORCA TERMINATED NORMALLY****
TOTAL RUN TIME: 0 days 0 hours 1 minutes 13 seconds 192 msec
