
                                 *****************
                                 * O   R   C   A *
                                 *****************

                                            #,                                       
                                            ###                                      
                                            ####                                     
                                            #####                                    
                                            ######                                   
                                           ########,                                 
                                     ,,################,,,,,                         
                               ,,#################################,,                 
                          ,,##########################################,,             
                       ,#########################################, ''#####,          
                    ,#############################################,,   '####,        
                  ,##################################################,,,,####,       
                ,###########''''           ''''###############################       
              ,#####''   ,,,,##########,,,,          '''####'''          '####       
            ,##' ,,,,###########################,,,                        '##       
           ' ,,###''''                  '''############,,,                           
         ,,##''                                '''############,,,,        ,,,,,,###''
      ,#''                                            '''#######################'''  
     '                                                          ''''####''''         
             ,#######,   #######,   ,#######,      ##                                
            ,#'     '#,  ##    ##  ,#'     '#,    #''#        ######   ,####,        
            ##       ##  ##   ,#'  ##            #'  '#       #        #'  '#        
            ##       ##  #######   ##           ,######,      #####,   #    #        
            '#,     ,#'  ##    ##  '#,     ,#' ,#      #,         ##   #,  ,#        
             '#######'   ##     ##  '#######'  #'      '#     #####' # '####'        



                  #######################################################
                  #                        -***-                        #
                  #          Department of theory and spectroscopy      #
                  #    Directorship and core code : Frank Neese         #
                  #        Max Planck Institute fuer Kohlenforschung    #
                  #                Kaiser Wilhelm Platz 1               #
                  #                 D-45470 Muelheim/Ruhr               #
                  #                      Germany                        #
                  #                                                     #
                  #                  All rights reserved                #
                  #                        -***-                        #
                  #######################################################


                         Program Version 5.0.3 -  RELEASE  -


 With contributions from (in alphabetic order):
   Daniel Aravena         : Magnetic Suceptibility
   Michael Atanasov       : Ab Initio Ligand Field Theory (pilot matlab implementation)
   Alexander A. Auer      : GIAO ZORA, VPT2 properties, NMR spectrum
   Ute Becker             : Parallelization
   Giovanni Bistoni       : ED, misc. LED, open-shell LED, HFLD
   Martin Brehm           : Molecular dynamics
   Dmytro Bykov           : SCF Hessian
   Vijay G. Chilkuri      : MRCI spin determinant printing, contributions to CSF-ICE
   Dipayan Datta          : RHF DLPNO-CCSD density
   Achintya Kumar Dutta   : EOM-CC, STEOM-CC
   Dmitry Ganyushin       : Spin-Orbit,Spin-Spin,Magnetic field MRCI
   Miquel Garcia          : C-PCM and meta-GGA Hessian, CC/C-PCM, Gaussian charge scheme
   Yang Guo               : DLPNO-NEVPT2, F12-NEVPT2, CIM, IAO-localization
   Andreas Hansen         : Spin unrestricted coupled pair/coupled cluster methods
   Benjamin Helmich-Paris : MC-RPA, TRAH-SCF, COSX integrals
   Lee Huntington         : MR-EOM, pCC
   Robert Izsak           : Overlap fitted RIJCOSX, COSX-SCS-MP3, EOM
   Marcus Kettner         : VPT2
   Christian Kollmar      : KDIIS, OOCD, Brueckner-CCSD(T), CCSD density, CASPT2, CASPT2-K
   Simone Kossmann        : Meta GGA functionals, TD-DFT gradient, OOMP2, MP2 Hessian
   Martin Krupicka        : Initial AUTO-CI
   Lucas Lang             : DCDCAS
   Marvin Lechner         : AUTO-CI (C++ implementation), FIC-MRCC
   Dagmar Lenk            : GEPOL surface, SMD
   Dimitrios Liakos       : Extrapolation schemes; Compound Job, initial MDCI parallelization
   Dimitrios Manganas     : Further ROCIS development; embedding schemes
   Dimitrios Pantazis     : SARC Basis sets
   Anastasios Papadopoulos: AUTO-CI, single reference methods and gradients
   Taras Petrenko         : DFT Hessian,TD-DFT gradient, ASA, ECA, R-Raman, ABS, FL, XAS/XES, NRVS
   Peter Pinski           : DLPNO-MP2, DLPNO-MP2 Gradient
   Christoph Reimann      : Effective Core Potentials
   Marius Retegan         : Local ZFS, SOC
   Christoph Riplinger    : Optimizer, TS searches, QM/MM, DLPNO-CCSD(T), (RO)-DLPNO pert. Triples
   Tobias Risthaus        : Range-separated hybrids, TD-DFT gradient, RPA, STAB
   Michael Roemelt        : Original ROCIS implementation
   Masaaki Saitow         : Open-shell DLPNO-CCSD energy and density
   Barbara Sandhoefer     : DKH picture change effects
   Avijit Sen             : IP-ROCIS
   Kantharuban Sivalingam : CASSCF convergence, NEVPT2, FIC-MRCI
   Bernardo de Souza      : ESD, SOC TD-DFT
   Georgi Stoychev        : AutoAux, RI-MP2 NMR, DLPNO-MP2 response
   Willem Van den Heuvel  : Paramagnetic NMR
   Boris Wezisla          : Elementary symmetry handling
   Frank Wennmohs         : Technical directorship


 We gratefully acknowledge several colleagues who have allowed us to
 interface, adapt or use parts of their codes:
   Stefan Grimme, W. Hujo, H. Kruse, P. Pracht,  : VdW corrections, initial TS optimization,
                  C. Bannwarth, S. Ehlert          DFT functionals, gCP, sTDA/sTD-DF
   Ed Valeev, F. Pavosevic, A. Kumar             : LibInt (2-el integral package), F12 methods
   Garnet Chan, S. Sharma, J. Yang, R. Olivares  : DMRG
   Ulf Ekstrom                                   : XCFun DFT Library
   Mihaly Kallay                                 : mrcc  (arbitrary order and MRCC methods)
   Jiri Pittner, Ondrej Demel                    : Mk-CCSD
   Frank Weinhold                                : gennbo (NPA and NBO analysis)
   Christopher J. Cramer and Donald G. Truhlar   : smd solvation model
   Lars Goerigk                                  : TD-DFT with DH, B97 family of functionals
   V. Asgeirsson, H. Jonsson                     : NEB implementation
   FAccTs GmbH                                   : IRC, NEB, NEB-TS, DLPNO-Multilevel, CI-OPT
                                                   MM, QMMM, 2- and 3-layer-ONIOM, Crystal-QMMM,
                                                   LR-CPCM, SF, NACMEs, symmetry and pop. for TD-DFT,
                                                   nearIR, NL-DFT gradient (VV10), updates on ESD,
                                                   ML-optimized integration grids
   S Lehtola, MJT Oliveira, MAL Marques          : LibXC Library
   Liviu Ungur et al                             : ANISO software


 Your calculation uses the libint2 library for the computation of 2-el integrals
 For citations please refer to: http://libint.valeyev.net

 Your ORCA version has been built with support for libXC version: 5.1.0
 For citations please refer to: https://tddft.org/programs/libxc/

 This ORCA versions uses:
   CBLAS   interface :  Fast vector & matrix operations
   LAPACKE interface :  Fast linear algebra routines
   SCALAPACK package :  Parallel linear algebra routines
   Shared memory     :  Shared parallel matrices
   BLAS/LAPACK       :  OpenBLAS 0.3.15  USE64BITINT DYNAMIC_ARCH NO_AFFINITY Haswell SINGLE_THREADED
        Core in use  :  Haswell
   Copyright (c) 2011-2014, The OpenBLAS Project




***************************************
The coordinates will be read from file: 30.xyz
***************************************


Your calculation utilizes the geometrical counterpoise correction gCP
Please cite in your paper:
H.Kruse, S. Grimme J.Chem.Phys., 136, (2012), 154101 
   

Your calculation utilizes the atom-pairwise dispersion correction
with the Becke-Johnson damping scheme (D3BJ)
Cite in your paper:
S.Grimme, S.Ehrlich, L.Goerigk, J Comput Chem, (2011), 32, 1456–1465 
S.Grimme, J.Antony, S.Ehrlich and H.Krieg, J.Chem.Phys., 132, (2010), 154104 
   

Your calculation employs the composite approach PBEh-3c.
Please cite in your paper:
S. Grimme, J. G. Brandenburg, C. Bannwarth, A. Hansen J.Chem.Phys., 143, (2015), 054107 
   

================================================================================

----- Orbital basis set information -----
Your calculation utilizes the basis: def2-mSVP

----- AuxJ basis set information -----
Your calculation utilizes the auxiliary basis: def2/J
   F. Weigend, Phys. Chem. Chem. Phys. 8, 1057 (2006).

================================================================================
                                        WARNINGS
                       Please study these warnings very carefully!
================================================================================


WARNING: your system is open-shell and RHF/RKS was chosen
  ===> : WILL SWITCH to UHF/UKS


INFO   : the flag for use of the SHARK integral package has been found!

================================================================================
                                       INPUT FILE
================================================================================
NAME = pbeh-3c.inp
|  1> ! PBEh-3c def2/J TightSCF DefGrid3
|  2> 
|  3> %maxcore 60000
|  4> 
|  5> %pal
|  6> nprocs 4
|  7> end
|  8> 
|  9> *xyzfile 0 2 30.xyz
| 10> 
| 11>                          ****END OF INPUT****
================================================================================

                       ****************************
                       * Single Point Calculation *
                       ****************************

---------------------------------
CARTESIAN COORDINATES (ANGSTROEM)
---------------------------------
  F      1.775298    1.426225   -1.356085
  F     -2.273688   -0.851626    1.762681
  B      0.573062   -1.278388   -2.097141
  C     -0.211075    1.587281    0.691943
  F      2.432250    0.539450    0.946222
  F     -2.098932   -0.151806   -0.557526
  Si     1.553247    1.771232    0.209418
  F      1.582156   -1.717027   -2.862936
  H     -0.331579    2.006127    1.701687
  H     -0.165377   -0.465182   -2.555628
  S      0.352349   -1.993477   -0.451236
  H     -0.810173    2.188008   -0.005446
  H      0.175480   -0.780617    2.073330
  Li     1.682383   -1.162728    1.304945
  Li    -3.394638   -0.760768    0.412918
  Al    -0.840763   -0.356702    0.782853

----------------------------
CARTESIAN COORDINATES (A.U.)
----------------------------
  NO LB      ZA    FRAG     MASS         X           Y           Z
   0 F     9.0000    0    18.998    3.354828    2.695176   -2.562629
   1 F     9.0000    0    18.998   -4.296648   -1.609341    3.330984
   2 B     5.0000    0    10.810    1.082929   -2.415803   -3.963022
   3 C     6.0000    0    12.011   -0.398874    2.999526    1.307582
   4 F     9.0000    0    18.998    4.596285    1.019412    1.788101
   5 F     9.0000    0    18.998   -3.966406   -0.286872   -1.053571
   6 Si   14.0000    0    28.086    2.935212    3.347143    0.395742
   7 F     9.0000    0    18.998    2.989842   -3.244712   -5.410165
   8 H     1.0000    0     1.008   -0.626594    3.791031    3.215722
   9 H     1.0000    0     1.008   -0.312518   -0.879067   -4.829437
  10 S    16.0000    0    32.060    0.665844   -3.767125   -0.852712
  11 H     1.0000    0     1.008   -1.531006    4.134736   -0.010291
  12 H     1.0000    0     1.008    0.331609   -1.475153    3.918026
  13 Li    3.0000    0     6.941    3.179244   -2.197238    2.465989
  14 Li    3.0000    0     6.941   -6.414936   -1.437643    0.780302
  15 Al   13.0000    0    26.982   -1.588812   -0.674069    1.479378

--------------------------------
INTERNAL COORDINATES (ANGSTROEM)
--------------------------------
 F      0   0   0     0.000000000000     0.00000000     0.00000000
 F      1   0   0     5.595498159688     0.00000000     0.00000000
 B      1   2   0     3.051142831889    59.29593214     0.00000000
 C      1   2   3     2.857627522118    28.41650158   167.33692789
 F      1   2   3     2.553149718241    62.75423715   251.20503944
 F      2   1   3     2.429742024395    45.44940088   300.01304711
 Si     1   2   3     1.618373779152    56.51882550   204.70012940
 F      3   1   2     1.340566492758    97.59595434   200.67506375
 H      4   1   2     1.099789375040   139.08103707   137.17423578
 H      3   1   2     1.190296559423    74.47842914    83.57239113
 S      3   1   2     1.808056898818   100.22918399   321.91965071
 H      4   1   2     1.098245310770    87.41606064   252.59311736
 H      2   1   3     2.469811556409    48.76372843    99.81283600
 Li    13   2   1     1.734122817278   143.09584900   304.99538024
 Li     6   2   1     1.729580981286    46.28419296   184.70970239
 Al    13   2   1     1.696403333378    46.95699938   350.56149071

---------------------------
INTERNAL COORDINATES (A.U.)
---------------------------
 F      0   0   0     0.000000000000     0.00000000     0.00000000
 F      1   0   0    10.573959104671     0.00000000     0.00000000
 B      1   2   0     5.765824347746    59.29593214     0.00000000
 C      1   2   3     5.400133409558    28.41650158   167.33692789
 F      1   2   3     4.824753746374    62.75423715   251.20503944
 F      2   1   3     4.591547002187    45.44940088   300.01304711
 Si     1   2   3     3.058283224916    56.51882550   204.70012940
 F      3   1   2     2.533303535624    97.59595434   200.67506375
 H      4   1   2     2.078300723822   139.08103707   137.17423578
 H      3   1   2     2.249334515459    74.47842914    83.57239113
 S      3   1   2     3.416732373312   100.22918399   321.91965071
 H      4   1   2     2.075382865218    87.41606064   252.59311736
 H      2   1   3     4.667267444006    48.76372843    99.81283600
 Li    13   2   1     3.277017207240   143.09584900   304.99538024
 Li     6   2   1     3.268434381068    46.28419296   184.70970239
 Al    13   2   1     3.205737712755    46.95699938   350.56149071

---------------------
BASIS SET INFORMATION
---------------------
There are 8 groups of distinct atoms

 Group   1 Type F   : 8s4p1d contracted to 4s2p1d pattern {5111/31/1}
 Group   2 Type B   : 8s4p1d contracted to 4s2p1d pattern {5111/31/1}
 Group   3 Type C   : 8s4p1d contracted to 4s2p1d pattern {5111/31/1}
 Group   4 Type Si  : 10s7p1d contracted to 4s3p1d pattern {5311/511/1}
 Group   5 Type H   : 4s contracted to 2s pattern {31}
 Group   6 Type S   : 10s7p1d contracted to 4s3p1d pattern {5311/511/1}
 Group   7 Type Li  : 7s3p contracted to 3s2p pattern {511/21}
 Group   8 Type Al  : 10s7p1d contracted to 4s3p1d pattern {5311/511/1}

Atom   0F    basis set group =>   1
Atom   1F    basis set group =>   1
Atom   2B    basis set group =>   2
Atom   3C    basis set group =>   3
Atom   4F    basis set group =>   1
Atom   5F    basis set group =>   1
Atom   6Si   basis set group =>   4
Atom   7F    basis set group =>   1
Atom   8H    basis set group =>   5
Atom   9H    basis set group =>   5
Atom  10S    basis set group =>   6
Atom  11H    basis set group =>   5
Atom  12H    basis set group =>   5
Atom  13Li   basis set group =>   7
Atom  14Li   basis set group =>   7
Atom  15Al   basis set group =>   8
---------------------------------
AUXILIARY/J BASIS SET INFORMATION
---------------------------------
There are 8 groups of distinct atoms

 Group   1 Type F   : 12s5p4d2f1g contracted to 6s4p3d1f1g pattern {711111/2111/211/2/1}
 Group   2 Type B   : 12s5p4d2f1g contracted to 6s4p3d1f1g pattern {711111/2111/211/2/1}
 Group   3 Type C   : 12s5p4d2f1g contracted to 6s4p3d1f1g pattern {711111/2111/211/2/1}
 Group   4 Type Si  : 14s5p5d2f1g contracted to 8s4p3d1f1g pattern {71111111/2111/311/2/1}
 Group   5 Type H   : 5s2p1d contracted to 3s1p1d pattern {311/2/1}
 Group   6 Type S   : 14s5p5d2f1g contracted to 8s4p3d1f1g pattern {71111111/2111/311/2/1}
 Group   7 Type Li  : 12s5p4d2f1g contracted to 6s4p3d1f1g pattern {711111/2111/211/2/1}
 Group   8 Type Al  : 14s5p5d2f1g contracted to 8s4p3d1f1g pattern {71111111/2111/311/2/1}

Atom   0F    basis set group =>   1
Atom   1F    basis set group =>   1
Atom   2B    basis set group =>   2
Atom   3C    basis set group =>   3
Atom   4F    basis set group =>   1
Atom   5F    basis set group =>   1
Atom   6Si   basis set group =>   4
Atom   7F    basis set group =>   1
Atom   8H    basis set group =>   5
Atom   9H    basis set group =>   5
Atom  10S    basis set group =>   6
Atom  11H    basis set group =>   5
Atom  12H    basis set group =>   5
Atom  13Li   basis set group =>   7
Atom  14Li   basis set group =>   7
Atom  15Al   basis set group =>   8


           ************************************************************
           *        Program running with 4 parallel MPI-processes     *
           *              working on a common directory               *
           ************************************************************
------------------------------------------------------------------------------
                           ORCA GTO INTEGRAL CALCULATION
                           -- RI-GTO INTEGRALS CHOSEN --
------------------------------------------------------------------------------
------------------------------------------------------------------------------
                   ___                                                        
                  /   \      - P O W E R E D   B Y -                         
                 /     \                                                     
                 |  |  |   _    _      __       _____    __    __             
                 |  |  |  | |  | |    /  \     |  _  \  |  |  /  |          
                  \  \/   | |  | |   /    \    | | | |  |  | /  /          
                 / \  \   | |__| |  /  /\  \   | |_| |  |  |/  /          
                |  |  |   |  __  | /  /__\  \  |    /   |      \           
                |  |  |   | |  | | |   __   |  |    \   |  |\   \          
                \     /   | |  | | |  |  |  |  | |\  \  |  | \   \       
                 \___/    |_|  |_| |__|  |__|  |_| \__\ |__|  \__/        
                                                                              
                      - O R C A' S   B I G   F R I E N D -                    
                                      &                                       
                       - I N T E G R A L  F E E D E R -                       
                                                                              
 v1 FN, 2020, v2 2021                                                         
------------------------------------------------------------------------------


Reading SHARK input file pbeh-3c.SHARKINP.tmp ... ok
----------------------
SHARK INTEGRAL PACKAGE
----------------------

Number of atoms                             ...     16
Number of basis functions                   ...    185
Number of shells                            ...     91
Maximum angular momentum                    ...      2
Integral batch strategy                     ... SHARK/LIBINT Hybrid
RI-J (if used) integral strategy            ... SPLIT-RIJ (Revised 2003 algorithm where possible)
Printlevel                                  ...      1
Contraction scheme used                     ... SEGMENTED contraction
Coulomb Range Separation                    ... NOT USED
Exchange Range Separation                   ... NOT USED
Finite Nucleus Model                        ... NOT USED
Auxiliary Coulomb fitting basis             ... AVAILABLE
   # of basis functions in Aux-J            ...    638
   # of shells in Aux-J                     ...    206
   Maximum angular momentum in Aux-J        ...      4
Auxiliary J/K fitting basis                 ... NOT available
Auxiliary Correlation fitting basis         ... NOT available
Auxiliary 'external' fitting basis          ... NOT available
Integral threshold                          ...     2.500000e-11
Primitive cut-off                           ...     2.500000e-12
Primitive pair pre-selection threshold      ...     2.500000e-12

Calculating pre-screening integrals         ... done (  0.1 sec) Dimension = 91
Organizing shell pair data                  ... done (  0.2 sec)
Shell pair information
Total number of shell pairs                 ...      4186
Shell pairs after pre-screening             ...      3498
Total number of primitive shell pairs       ...     16665
Primitive shell pairs kept                  ...      9089
          la=0 lb=0:   1103 shell pairs
          la=1 lb=0:   1257 shell pairs
          la=1 lb=1:    354 shell pairs
          la=2 lb=0:    468 shell pairs
          la=2 lb=1:    261 shell pairs
          la=2 lb=2:     55 shell pairs

Calculating one electron integrals          ... done (  0.0 sec)
Calculating RI/J V-Matrix + Cholesky decomp.... done (  0.3 sec)
Calculating Nuclear repulsion               ... done (  0.1 sec) ENN=    935.686236552857 Eh

SHARK setup successfully completed in   2.6 seconds

Maximum memory used throughout the entire GTOINT-calculation: 12.2 MB


           ************************************************************
           *        Program running with 4 parallel MPI-processes     *
           *              working on a common directory               *
           ************************************************************
-------------------------------------------------------------------------------
                                 ORCA SCF
-------------------------------------------------------------------------------

------------
SCF SETTINGS
------------
Hamiltonian:
 Density Functional     Method          .... DFT(GTOs)
 Exchange Functional    Exchange        .... PBE
   PBE kappa parameter   XKappa         ....  1.024500
   PBE mue parameter    XMuePBE         ....  0.123457
 Correlation Functional Correlation     .... PBE
   PBE beta parameter  CBetaPBE         ....  0.030000
 LDA part of GGA corr.  LDAOpt          .... PW91-LDA
 Gradients option       PostSCFGGA      .... off
 Hybrid DFT is turned on
   Fraction HF Exchange ScalHFX         ....  0.420000
   Scaling of DF-GGA-X  ScalDFX         ....  0.580000
   Scaling of DF-GGA-C  ScalDFC         ....  1.000000
   Scaling of DF-LDA-C  ScalLDAC        ....  1.000000
   Perturbative correction              ....  0.000000
   Density functional embedding theory  .... OFF
 RI-approximation to the Coulomb term is turned on
   Number of AuxJ basis functions       .... 638
   RIJ-ON(X) (HFX calculated with O(N)) .... on
   Number of AuxJ basis functions       .... 638
   RIJ-COSX (HFX calculated with COS-X)).... on


General Settings:
 Integral files         IntName         .... pbeh-3c
 Hartree-Fock type      HFTyp           .... UHF
 Total Charge           Charge          ....    0
 Multiplicity           Mult            ....    2
 Number of Electrons    NEL             ....  109
 Basis Dimension        Dim             ....  185
 Nuclear Repulsion      ENuc            ....    935.6862365529 Eh

Convergence Acceleration:
 DIIS                   CNVDIIS         .... on
   Start iteration      DIISMaxIt       ....    12
   Startup error        DIISStart       ....  0.200000
   # of expansion vecs  DIISMaxEq       ....     5
   Bias factor          DIISBfac        ....   1.050
   Max. coefficient     DIISMaxC        ....  10.000
 Trust-Rad. Augm. Hess. CNVTRAH         .... auto
   Auto Start mean grad. ratio tolernc. ....  1.125000
   Auto Start start iteration           ....    20
   Auto Start num. interpolation iter.  ....    10
   Max. Number of Micro iterations      ....    16
   Max. Number of Macro iterations      .... Maxiter - #DIIS iter
   Number of Davidson start vectors     ....     2
   Converg. threshold I  (grad. norm)   ....   1.000e-05
   Converg. threshold II (energy diff.) ....   1.000e-08
   Grad. Scal. Fac. for Micro threshold ....   0.100
   Minimum threshold for Micro iter.    ....   0.010
   NR start threshold (gradient norm)   ....   0.001
   Initial trust radius                 ....   0.400
   Minimum AH scaling param. (alpha)    ....   1.000
   Maximum AH scaling param. (alpha)    .... 1000.000
   Orbital update algorithm             .... Taylor
   White noise on init. David. guess    .... on
   Maximum white noise                  ....   0.010
   Quad. conv. algorithm                .... NR
   COSX micro iterations for RIJONX calc.... off
 SOSCF                  CNVSOSCF        .... off
 Level Shifting         CNVShift        .... on
   Level shift para.    LevelShift      ....    0.2500
   Turn off err/grad.   ShiftErr        ....    0.0010
 Zerner damping         CNVZerner       .... off
 Static damping         CNVDamp         .... on
   Fraction old density DampFac         ....    0.7000
   Max. Damping (<1)    DampMax         ....    0.9800
   Min. Damping (>=0)   DampMin         ....    0.0000
   Turn off err/grad.   DampErr         ....    0.1000
 Fernandez-Rico         CNVRico         .... off

SCF Procedure:
 Maximum # iterations   MaxIter         ....   125
 SCF integral mode      SCFMode         .... Direct
   Integral package                     .... SHARK and LIBINT hybrid scheme
 Reset frequency        DirectResetFreq ....    20
 Integral Threshold     Thresh          ....  2.500e-11 Eh
 Primitive CutOff       TCut            ....  2.500e-12 Eh

Convergence Tolerance:
 Convergence Check Mode ConvCheckMode   .... Total+1el-Energy
 Convergence forced     ConvForced      .... 0
 Energy Change          TolE            ....  1.000e-08 Eh
 1-El. energy change                    ....  1.000e-05 Eh
 DIIS Error             TolErr          ....  5.000e-07


Diagonalization of the overlap matrix:
Smallest eigenvalue                        ... 5.592e-03
Time for diagonalization                   ...    0.047 sec
Threshold for overlap eigenvalues          ... 1.000e-08
Number of eigenvalues below threshold      ... 0
Time for construction of square roots      ...    0.319 sec
Total time needed                          ...    0.566 sec

--------------------------------
INITIAL GUESS: MINIMAL BASIS EHT
--------------------------------
The minimal basis has 76 functions
EHT matrix was diagonalized
Basis set overlap was calculated now projecting the orbitals
Using GuessMode=FMatrix for the initial guess
C*T matrix was formed
Effective Fockian was calculated
Effective Fockian was diagonalized
Initial density was built
                      ------------------
                      INITIAL GUESS DONE
                      ------------------
-------------------
DFT GRID GENERATION
-------------------

General Integration Accuracy     IntAcc      ... 4.959
Radial Grid Type                 RadialGrid  ... OptM3 with GC (2021)
Angular Grid (max. ang.)         AngularGrid ... 6 (Lebedev-590)
Angular grid pruning method      GridPruning ... 4 (adaptive)
Weight generation scheme         WeightScheme... Becke
Basis function cutoff            BFCut       ... 1.0000e-11
Integration weight cutoff        WCut        ... 1.0000e-14
Angular grids for H and He will be reduced by one unit
Partially contracted basis set               ... off
Rotationally invariant grid construction     ... off

Total number of grid points                  ...   210091
Total number of batches                      ...     3293
Average number of points per batch           ...       63
Average number of grid points per atom       ...    13131
Time for grid setup =    4.475 sec

--------------------
COSX GRID GENERATION
--------------------

GRIDX 1
-------
General Integration Accuracy     IntAcc      ... 4.020
Radial Grid Type                 RadialGrid  ... OptM3 with GC (2021)
Angular Grid (max. ang.)         AngularGrid ... 2 (Lebedev-110)
Angular grid pruning method      GridPruning ... 4 (adaptive)
Weight generation scheme         WeightScheme... Becke
Basis function cutoff            BFCut       ... 1.0000e-11
Integration weight cutoff        WCut        ... 1.0000e-14
Angular grids for H and He will be reduced by one unit
Partially contracted basis set               ... on
Rotationally invariant grid construction     ... off

Total number of grid points                  ...    24944
Total number of batches                      ...      398
Average number of points per batch           ...       62
Average number of grid points per atom       ...     1559
UseSFitting                                  ... on

GRIDX 2
-------
General Integration Accuracy     IntAcc      ... 4.338
Radial Grid Type                 RadialGrid  ... OptM3 with GC (2021)
Angular Grid (max. ang.)         AngularGrid ... 3 (Lebedev-194)
Angular grid pruning method      GridPruning ... 4 (adaptive)
Weight generation scheme         WeightScheme... Becke
Basis function cutoff            BFCut       ... 1.0000e-11
Integration weight cutoff        WCut        ... 1.0000e-14
Angular grids for H and He will be reduced by one unit
Partially contracted basis set               ... on
Rotationally invariant grid construction     ... off

Total number of grid points                  ...    56577
Total number of batches                      ...      893
Average number of points per batch           ...       63
Average number of grid points per atom       ...     3536
UseSFitting                                  ... on

GRIDX 3
-------
General Integration Accuracy     IntAcc      ... 4.871
Radial Grid Type                 RadialGrid  ... OptM3 with GC (2021)
Angular Grid (max. ang.)         AngularGrid ... 4 (Lebedev-302)
Angular grid pruning method      GridPruning ... 4 (adaptive)
Weight generation scheme         WeightScheme... Becke
Basis function cutoff            BFCut       ... 1.0000e-11
Integration weight cutoff        WCut        ... 1.0000e-14
Angular grids for H and He will be reduced by one unit
Partially contracted basis set               ... on
Rotationally invariant grid construction     ... off

Total number of grid points                  ...   101886
Total number of batches                      ...     1601
Average number of points per batch           ...       63
Average number of grid points per atom       ...     6368
UseSFitting                                  ... on

Time for X-Grid setup             =    6.049 sec

--------------
SCF ITERATIONS
--------------
ITER       Energy         Delta-E        Max-DP      RMS-DP      [F,P]     Damp
               ***  Starting incremental Fock matrix formation  ***
  0  -1504.4812458229   0.000000000000 0.10392538  0.00425382  0.3668280 0.7000
  1  -1505.8013921011  -1.320146278186 0.05229213  0.00226358  0.1615336 0.7000
                               ***Turning on DIIS***
  2  -1506.4677942565  -0.666402155365 0.04081934  0.00128200  0.1126639 0.7000
  3  -1506.9183145002  -0.450520243719 0.13636436  0.00296703  0.0775686 0.0000
  4  -1507.9849030740  -1.066588573798 0.02284158  0.00042932  0.0185580 0.0000
  5  -1507.9905000060  -0.005596931986 0.00599891  0.00015769  0.0087041 0.0000
  6  -1507.9920052325  -0.001505226506 0.00470520  0.00007648  0.0018223 0.0000
  7  -1507.9921777930  -0.000172560542 0.00259812  0.00004288  0.0011330 0.0000
  8  -1507.9922332738  -0.000055480765 0.00227537  0.00004178  0.0004487 0.0000
               *** Restarting incremental Fock matrix formation ***
                                   *** Resetting DIIS ***
  9  -1507.9923269851  -0.000093711279 0.00047355  0.00000993  0.0002440 0.0000
 10  -1507.9923285280  -0.000001542927 0.00025274  0.00000429  0.0002853 0.0000
 11  -1507.9923295235  -0.000000995525 0.00020756  0.00000416  0.0000703 0.0000
 12  -1507.9923298277  -0.000000304158 0.00007676  0.00000137  0.0000302 0.0000
 13  -1507.9923298543  -0.000000026591 0.00003111  0.00000045  0.0000132 0.0000
 14  -1507.9923298571  -0.000000002834 0.00000633  0.00000010  0.0000040 0.0000
 15  -1507.9923298581  -0.000000001028 0.00000272  0.00000005  0.0000016 0.0000
                            ***DIIS convergence achieved***

               *****************************************************
               *                     SUCCESS                       *
               *           SCF CONVERGED AFTER  16 CYCLES          *
               *****************************************************

Old exchange energy                            =    -53.934245249 Eh
New exchange energy                            =    -53.934315468 Eh
Exchange energy change after final integration =     -0.000070220 Eh
Total energy after final integration           =  -1507.992400082 Eh
Final COS-X integration done in                =    13.178 sec

----------------
TOTAL SCF ENERGY
----------------

Total Energy       :        -1507.99240008 Eh          -41034.55936 eV

Components:
Nuclear Repulsion  :          935.68623655 Eh           25461.31692 eV
Electronic Energy  :        -2443.67863663 Eh          -66495.87629 eV
One Electron Energy:        -3963.17101495 Eh         -107843.36597 eV
Two Electron Energy:         1519.49237832 Eh           41347.48968 eV
Max COSX asymmetry :            0.00000241 Eh               0.00007 eV

Virial components:
Potential Energy   :        -3010.23791692 Eh          -81912.73808 eV
Kinetic Energy     :         1502.24551683 Eh           40878.17872 eV
Virial Ratio       :            2.00382553


DFT components:
N(Alpha)           :       54.999984930773 electrons
N(Beta)            :       53.999944907440 electrons
N(Total)           :      108.999929838214 electrons
E(X)               :      -71.837497327282 Eh       
E(C)               :       -5.147819567571 Eh       
E(XC)              :      -76.985316894853 Eh       
DFET-embed. en.    :        0.000000000000 Eh       

---------------
SCF CONVERGENCE
---------------

  Last Energy change         ...   -3.5402e-09  Tolerance :   1.0000e-08
  Last MAX-Density change    ...    0.0000e+00  Tolerance :   1.0000e-07
  Last RMS-Density change    ...    0.0000e+00  Tolerance :   5.0000e-09
  Last DIIS Error            ...    6.0738e-07  Tolerance :   5.0000e-07

             **** THE GBW FILE WAS UPDATED (pbeh-3c.gbw) ****
             **** DENSITY pbeh-3c.scfp WAS UPDATED ****
             **** ENERGY FILE WAS UPDATED (pbeh-3c.en.tmp) ****
----------------------
UHF SPIN CONTAMINATION
----------------------

Warning: in a DFT calculation there is little theoretical justification to 
         calculate <S**2> as in Hartree-Fock theory. We will do it anyways
         but you should keep in mind that the values have only limited relevance

Expectation value of <S**2>     :     0.753226
Ideal value S*(S+1) for S=0.5   :     0.750000
Deviation                       :     0.003226

             **** THE GBW FILE WAS UPDATED (pbeh-3c.gbw) ****
             **** DENSITY pbeh-3c.scfp WAS UPDATED ****
----------------
ORBITAL ENERGIES
----------------
                 SPIN UP ORBITALS
  NO   OCC          E(Eh)            E(eV) 
   0   1.0000     -89.542017     -2436.5621 
   1   1.0000     -66.822794     -1818.3407 
   2   1.0000     -56.609012     -1540.4095 
   3   1.0000     -25.112720      -683.3518 
   4   1.0000     -25.084791      -682.5919 
   5   1.0000     -25.080586      -682.4774 
   6   1.0000     -25.042585      -681.4434 
   7   1.0000     -25.025965      -680.9911 
   8   1.0000     -10.413171      -283.3568 
   9   1.0000      -8.182769      -222.6645 
  10   1.0000      -7.022244      -191.0850 
  11   1.0000      -6.071515      -165.2143 
  12   1.0000      -6.070131      -165.1767 
  13   1.0000      -6.068949      -165.1445 
  14   1.0000      -5.583754      -151.9417 
  15   1.0000      -4.332434      -117.8915 
  16   1.0000      -3.876915      -105.4962 
  17   1.0000      -3.876500      -105.4849 
  18   1.0000      -3.872175      -105.3672 
  19   1.0000      -2.824118       -76.8482 
  20   1.0000      -2.822045       -76.7917 
  21   1.0000      -2.821085       -76.7656 
  22   1.0000      -2.119096       -57.6635 
  23   1.0000      -2.102762       -57.2191 
  24   1.0000      -1.326248       -36.0890 
  25   1.0000      -1.308162       -35.5969 
  26   1.0000      -1.297399       -35.3040 
  27   1.0000      -1.244661       -33.8690 
  28   1.0000      -1.220745       -33.2182 
  29   1.0000      -0.772498       -21.0208 
  30   1.0000      -0.762917       -20.7600 
  31   1.0000      -0.633978       -17.2514 
  32   1.0000      -0.598427       -16.2840 
  33   1.0000      -0.566364       -15.4115 
  34   1.0000      -0.546803       -14.8793 
  35   1.0000      -0.535308       -14.5665 
  36   1.0000      -0.529955       -14.4208 
  37   1.0000      -0.520335       -14.1590 
  38   1.0000      -0.506135       -13.7726 
  39   1.0000      -0.499477       -13.5915 
  40   1.0000      -0.491204       -13.3664 
  41   1.0000      -0.486009       -13.2250 
  42   1.0000      -0.480701       -13.0805 
  43   1.0000      -0.468466       -12.7476 
  44   1.0000      -0.464304       -12.6344 
  45   1.0000      -0.451468       -12.2851 
  46   1.0000      -0.432795       -11.7770 
  47   1.0000      -0.425652       -11.5826 
  48   1.0000      -0.415925       -11.3179 
  49   1.0000      -0.398773       -10.8512 
  50   1.0000      -0.355671        -9.6783 
  51   1.0000      -0.317317        -8.6346 
  52   1.0000      -0.302904        -8.2424 
  53   1.0000      -0.293657        -7.9908 
  54   1.0000      -0.250015        -6.8033 
  55   0.0000      -0.018051        -0.4912 
  56   0.0000       0.005290         0.1439 
  57   0.0000       0.028550         0.7769 
  58   0.0000       0.068460         1.8629 
  59   0.0000       0.072484         1.9724 
  60   0.0000       0.079851         2.1729 
  61   0.0000       0.086924         2.3653 
  62   0.0000       0.094210         2.5636 
  63   0.0000       0.109931         2.9914 
  64   0.0000       0.113566         3.0903 
  65   0.0000       0.128268         3.4904 
  66   0.0000       0.146172         3.9776 
  67   0.0000       0.148327         4.0362 
  68   0.0000       0.160244         4.3605 
  69   0.0000       0.177010         4.8167 
  70   0.0000       0.201267         5.4768 
  71   0.0000       0.208969         5.6863 
  72   0.0000       0.215019         5.8510 
  73   0.0000       0.232331         6.3220 
  74   0.0000       0.252071         6.8592 
  75   0.0000       0.275500         7.4967 
  76   0.0000       0.284174         7.7328 
  77   0.0000       0.290258         7.8983 
  78   0.0000       0.307741         8.3741 
  79   0.0000       0.329965         8.9788 
  80   0.0000       0.350901         9.5485 
  81   0.0000       0.381889        10.3917 
  82   0.0000       0.418388        11.3849 
  83   0.0000       0.455726        12.4009 
  84   0.0000       0.468234        12.7413 
  85   0.0000       0.476818        12.9749 
  86   0.0000       0.483196        13.1484 
  87   0.0000       0.499855        13.6017 
  88   0.0000       0.520634        14.1672 
  89   0.0000       0.530773        14.4431 
  90   0.0000       0.549050        14.9404 
  91   0.0000       0.563437        15.3319 
  92   0.0000       0.571324        15.5465 
  93   0.0000       0.574515        15.6334 
  94   0.0000       0.578242        15.7348 
  95   0.0000       0.589469        16.0403 
  96   0.0000       0.592164        16.1136 
  97   0.0000       0.617293        16.7974 
  98   0.0000       0.630017        17.1436 
  99   0.0000       0.637767        17.3545 
 100   0.0000       0.670375        18.2418 
 101   0.0000       0.676584        18.4108 
 102   0.0000       0.683559        18.6006 
 103   0.0000       0.707514        19.2524 
 104   0.0000       0.723932        19.6992 
 105   0.0000       0.753656        20.5080 
 106   0.0000       0.804729        21.8978 
 107   0.0000       0.822079        22.3699 
 108   0.0000       0.829521        22.5724 
 109   0.0000       0.836366        22.7587 
 110   0.0000       0.868326        23.6283 
 111   0.0000       0.877605        23.8808 
 112   0.0000       0.902684        24.5633 
 113   0.0000       0.921382        25.0721 
 114   0.0000       0.953825        25.9549 
 115   0.0000       1.035025        28.1645 
 116   0.0000       1.061662        28.8893 
 117   0.0000       1.079849        29.3842 
 118   0.0000       1.092542        29.7296 
 119   0.0000       1.131493        30.7895 
 120   0.0000       1.186155        32.2769 
 121   0.0000       1.204455        32.7749 
 122   0.0000       1.214004        33.0347 
 123   0.0000       1.235600        33.6224 
 124   0.0000       1.247511        33.9465 
 125   0.0000       1.251202        34.0469 
 126   0.0000       1.252993        34.0957 
 127   0.0000       1.267016        34.4773 
 128   0.0000       1.267152        34.4809 
 129   0.0000       1.278000        34.7761 
 130   0.0000       1.280467        34.8433 
 131   0.0000       1.282763        34.9058 
 132   0.0000       1.289532        35.0900 
 133   0.0000       1.297988        35.3200 
 134   0.0000       1.308469        35.6053 
 135   0.0000       1.317082        35.8396 
 136   0.0000       1.328335        36.1458 
 137   0.0000       1.335361        36.3370 
 138   0.0000       1.341834        36.5132 
 139   0.0000       1.355202        36.8769 
 140   0.0000       1.358113        36.9561 
 141   0.0000       1.374547        37.4033 
 142   0.0000       1.377955        37.4961 
 143   0.0000       1.406499        38.2728 
 144   0.0000       1.436147        39.0796 
 145   0.0000       1.449768        39.4502 
 146   0.0000       1.465938        39.8902 
 147   0.0000       1.476612        40.1807 
 148   0.0000       1.498533        40.7771 
 149   0.0000       1.502379        40.8818 
 150   0.0000       1.512289        41.1515 
 151   0.0000       1.527575        41.5674 
 152   0.0000       1.559592        42.4387 
 153   0.0000       1.563749        42.5518 
 154   0.0000       1.579321        42.9755 
 155   0.0000       1.604514        43.6611 
 156   0.0000       1.657346        45.0987 
 157   0.0000       1.711250        46.5655 
 158   0.0000       1.770301        48.1723 
 159   0.0000       1.832760        49.8719 
 160   0.0000       1.869637        50.8754 
 161   0.0000       1.874435        51.0060 
 162   0.0000       1.907325        51.9009 
 163   0.0000       1.934125        52.6302 
 164   0.0000       1.961801        53.3833 
 165   0.0000       1.971073        53.6356 
 166   0.0000       2.124749        57.8173 
 167   0.0000       2.214794        60.2676 
 168   0.0000       2.265743        61.6540 
 169   0.0000       2.291464        62.3539 
 170   0.0000       2.349535        63.9341 
 171   0.0000       2.385723        64.9188 
 172   0.0000       2.507290        68.2268 
 173   0.0000       2.689324        73.1802 
 174   0.0000       2.798394        76.1482 
 175   0.0000       2.827454        76.9389 
 176   0.0000       2.921874        79.5082 
 177   0.0000       3.276541        89.1592 
 178   0.0000       9.237996       251.3787 
 179   0.0000      13.761279       374.4634 
 180   0.0000      32.617465       887.5664 
 181   0.0000      32.665168       888.8644 
 182   0.0000      32.697076       889.7327 
 183   0.0000      32.768028       891.6634 
 184   0.0000      32.799489       892.5195 

                 SPIN DOWN ORBITALS
  NO   OCC          E(Eh)            E(eV) 
   0   1.0000     -89.542020     -2436.5622 
   1   1.0000     -66.818992     -1818.2372 
   2   1.0000     -56.608837     -1540.4048 
   3   1.0000     -25.110738      -683.2979 
   4   1.0000     -25.082400      -682.5268 
   5   1.0000     -25.080582      -682.4773 
   6   1.0000     -25.042523      -681.4417 
   7   1.0000     -25.025733      -680.9848 
   8   1.0000     -10.409577      -283.2590 
   9   1.0000      -8.182773      -222.6646 
  10   1.0000      -7.022237      -191.0848 
  11   1.0000      -6.071518      -165.2144 
  12   1.0000      -6.070135      -165.1768 
  13   1.0000      -6.068956      -165.1447 
  14   1.0000      -5.578328      -151.7940 
  15   1.0000      -4.332157      -117.8840 
  16   1.0000      -3.873659      -105.4076 
  17   1.0000      -3.870283      -105.3158 
  18   1.0000      -3.865144      -105.1759 
  19   1.0000      -2.823927       -76.8430 
  20   1.0000      -2.821576       -76.7790 
  21   1.0000      -2.820923       -76.7612 
  22   1.0000      -2.119090       -57.6634 
  23   1.0000      -2.102698       -57.2173 
  24   1.0000      -1.321277       -35.9538 
  25   1.0000      -1.308150       -35.5966 
  26   1.0000      -1.291612       -35.1466 
  27   1.0000      -1.244445       -33.8631 
  28   1.0000      -1.220239       -33.2044 
  29   1.0000      -0.771589       -20.9960 
  30   1.0000      -0.752384       -20.4734 
  31   1.0000      -0.622588       -16.9415 
  32   1.0000      -0.598373       -16.2826 
  33   1.0000      -0.558802       -15.2058 
  34   1.0000      -0.539244       -14.6736 
  35   1.0000      -0.531995       -14.4763 
  36   1.0000      -0.528033       -14.3685 
  37   1.0000      -0.519894       -14.1470 
  38   1.0000      -0.502104       -13.6629 
  39   1.0000      -0.495333       -13.4787 
  40   1.0000      -0.490097       -13.3362 
  41   1.0000      -0.483911       -13.1679 
  42   1.0000      -0.479137       -13.0380 
  43   1.0000      -0.467753       -12.7282 
  44   1.0000      -0.463428       -12.6105 
  45   1.0000      -0.449749       -12.2383 
  46   1.0000      -0.431514       -11.7421 
  47   1.0000      -0.425334       -11.5739 
  48   1.0000      -0.406422       -11.0593 
  49   1.0000      -0.388206       -10.5636 
  50   1.0000      -0.347278        -9.4499 
  51   1.0000      -0.309826        -8.4308 
  52   1.0000      -0.301940        -8.2162 
  53   1.0000      -0.289015        -7.8645 
  54   0.0000      -0.065335        -1.7778 
  55   0.0000      -0.017559        -0.4778 
  56   0.0000       0.006836         0.1860 
  57   0.0000       0.029305         0.7974 
  58   0.0000       0.073507         2.0002 
  59   0.0000       0.080033         2.1778 
  60   0.0000       0.082169         2.2359 
  61   0.0000       0.089542         2.4366 
  62   0.0000       0.107646         2.9292 
  63   0.0000       0.113408         3.0860 
  64   0.0000       0.123783         3.3683 
  65   0.0000       0.130107         3.5404 
  66   0.0000       0.148781         4.0485 
  67   0.0000       0.153917         4.1883 
  68   0.0000       0.161904         4.4056 
  69   0.0000       0.182986         4.9793 
  70   0.0000       0.205620         5.5952 
  71   0.0000       0.211684         5.7602 
  72   0.0000       0.220284         5.9942 
  73   0.0000       0.238144         6.4802 
  74   0.0000       0.257019         6.9938 
  75   0.0000       0.278447         7.5769 
  76   0.0000       0.286670         7.8007 
  77   0.0000       0.302998         8.2450 
  78   0.0000       0.312695         8.5089 
  79   0.0000       0.332402         9.0451 
  80   0.0000       0.357179         9.7193 
  81   0.0000       0.383223        10.4280 
  82   0.0000       0.425943        11.5905 
  83   0.0000       0.463015        12.5993 
  84   0.0000       0.472591        12.8598 
  85   0.0000       0.483323        13.1519 
  86   0.0000       0.489885        13.3304 
  87   0.0000       0.506885        13.7931 
  88   0.0000       0.526234        14.3196 
  89   0.0000       0.542756        14.7691 
  90   0.0000       0.551719        15.0130 
  91   0.0000       0.571883        15.5617 
  92   0.0000       0.575430        15.6583 
  93   0.0000       0.579570        15.7709 
  94   0.0000       0.586593        15.9620 
  95   0.0000       0.592300        16.1173 
  96   0.0000       0.604684        16.4543 
  97   0.0000       0.617862        16.8129 
  98   0.0000       0.634172        17.2567 
  99   0.0000       0.643914        17.5218 
 100   0.0000       0.671496        18.2723 
 101   0.0000       0.683613        18.6021 
 102   0.0000       0.695801        18.9337 
 103   0.0000       0.710775        19.3412 
 104   0.0000       0.728963        19.8361 
 105   0.0000       0.758602        20.6426 
 106   0.0000       0.805752        21.9256 
 107   0.0000       0.822808        22.3897 
 108   0.0000       0.831756        22.6332 
 109   0.0000       0.844349        22.9759 
 110   0.0000       0.871674        23.7195 
 111   0.0000       0.883481        24.0407 
 112   0.0000       0.903706        24.5911 
 113   0.0000       0.935892        25.4669 
 114   0.0000       0.955537        26.0015 
 115   0.0000       1.036066        28.1928 
 116   0.0000       1.063163        28.9301 
 117   0.0000       1.082259        29.4498 
 118   0.0000       1.095562        29.8118 
 119   0.0000       1.132246        30.8100 
 120   0.0000       1.186454        32.2851 
 121   0.0000       1.205555        32.8048 
 122   0.0000       1.215414        33.0731 
 123   0.0000       1.236232        33.6396 
 124   0.0000       1.248362        33.9697 
 125   0.0000       1.252578        34.0844 
 126   0.0000       1.253887        34.1200 
 127   0.0000       1.267420        34.4883 
 128   0.0000       1.267743        34.4970 
 129   0.0000       1.278589        34.7922 
 130   0.0000       1.280784        34.8519 
 131   0.0000       1.284330        34.9484 
 132   0.0000       1.290327        35.1116 
 133   0.0000       1.299443        35.3596 
 134   0.0000       1.309664        35.6378 
 135   0.0000       1.318025        35.8653 
 136   0.0000       1.328850        36.1599 
 137   0.0000       1.336276        36.3619 
 138   0.0000       1.343667        36.5630 
 139   0.0000       1.356814        36.9208 
 140   0.0000       1.359442        36.9923 
 141   0.0000       1.375459        37.4281 
 142   0.0000       1.378381        37.5076 
 143   0.0000       1.408211        38.3194 
 144   0.0000       1.437109        39.1057 
 145   0.0000       1.450823        39.4789 
 146   0.0000       1.468267        39.9536 
 147   0.0000       1.481011        40.3004 
 148   0.0000       1.500927        40.8423 
 149   0.0000       1.503628        40.9158 
 150   0.0000       1.514491        41.2114 
 151   0.0000       1.530595        41.6496 
 152   0.0000       1.561688        42.4957 
 153   0.0000       1.565849        42.6089 
 154   0.0000       1.582499        43.0620 
 155   0.0000       1.606207        43.7071 
 156   0.0000       1.661575        45.2138 
 157   0.0000       1.713705        46.6323 
 158   0.0000       1.772309        48.2270 
 159   0.0000       1.833431        49.8902 
 160   0.0000       1.870954        50.9113 
 161   0.0000       1.876009        51.0488 
 162   0.0000       1.908760        51.9400 
 163   0.0000       1.934931        52.6521 
 164   0.0000       1.971613        53.6503 
 165   0.0000       1.977466        53.8096 
 166   0.0000       2.125021        57.8248 
 167   0.0000       2.224573        60.5337 
 168   0.0000       2.266082        61.6632 
 169   0.0000       2.303710        62.6871 
 170   0.0000       2.349625        63.9365 
 171   0.0000       2.388726        65.0006 
 172   0.0000       2.507327        68.2278 
 173   0.0000       2.689951        73.1973 
 174   0.0000       2.803618        76.2903 
 175   0.0000       2.828582        76.9696 
 176   0.0000       2.927683        79.6663 
 177   0.0000       3.276570        89.1600 
 178   0.0000       9.238015       251.3792 
 179   0.0000      13.766068       374.5937 
 180   0.0000      32.617661       887.5717 
 181   0.0000      32.667650       888.9319 
 182   0.0000      32.697259       889.7377 
 183   0.0000      32.770131       891.7206 
 184   0.0000      32.800427       892.5450 

                    ********************************
                    * MULLIKEN POPULATION ANALYSIS *
                    ********************************

--------------------------------------------
MULLIKEN ATOMIC CHARGES AND SPIN POPULATIONS
--------------------------------------------
   0 F :   -0.452388    0.034746
   1 F :   -0.554998    0.000983
   2 B :    0.352536    0.001515
   3 C :   -1.056912    0.159606
   4 F :   -0.485818    0.024957
   5 F :   -0.559866    0.003300
   6 Si:    1.095281    0.756936
   7 F :   -0.267169    0.000061
   8 H :    0.252276   -0.008173
   9 H :    0.023001   -0.000064
  10 S :   -0.596127   -0.000300
  11 H :    0.256604   -0.009125
  12 H :   -0.256867    0.003428
  13 Li:    0.541456    0.004264
  14 Li:    0.703130    0.003220
  15 Al:    1.005863    0.024647
Sum of atomic charges         :   -0.0000000
Sum of atomic spin populations:    1.0000000

-----------------------------------------------------
MULLIKEN REDUCED ORBITAL CHARGES AND SPIN POPULATIONS
-----------------------------------------------------
CHARGE
  0 F s       :     3.921821  s :     3.921821
      pz      :     1.735245  p :     5.510038
      px      :     1.897996
      py      :     1.876796
      dz2     :     0.008589  d :     0.020530
      dxz     :     0.005265
      dyz     :     0.005702
      dx2y2   :     0.000395
      dxy     :     0.000578
  1 F s       :     3.923098  s :     3.923098
      pz      :     1.891634  p :     5.620090
      px      :     1.830059
      py      :     1.898396
      dz2     :     0.002730  d :     0.011811
      dxz     :     0.004380
      dyz     :     0.002222
      dx2y2   :     0.001514
      dxy     :     0.000964
  2 B s       :     2.893164  s :     2.893164
      pz      :     0.595445  p :     1.688077
      px      :     0.538232
      py      :     0.554401
      dz2     :     0.013592  d :     0.066223
      dxz     :     0.020140
      dyz     :     0.011999
      dx2y2   :     0.008542
      dxy     :     0.011952
  3 C s       :     3.455648  s :     3.455648
      pz      :     1.129161  p :     3.583179
      px      :     1.122493
      py      :     1.331524
      dz2     :     0.004355  d :     0.018085
      dxz     :     0.002407
      dyz     :     0.007107
      dx2y2   :     0.001631
      dxy     :     0.002584
  4 F s       :     3.918986  s :     3.918986
      pz      :     1.884706  p :     5.552286
      px      :     1.873612
      py      :     1.793968
      dz2     :     0.002074  d :     0.014546
      dxz     :     0.002582
      dyz     :     0.002352
      dx2y2   :     0.003162
      dxy     :     0.004376
  5 F s       :     3.921368  s :     3.921368
      pz      :     1.869726  p :     5.628712
      px      :     1.837576
      py      :     1.921411
      dz2     :     0.002484  d :     0.009786
      dxz     :     0.003939
      dyz     :     0.002043
      dx2y2   :     0.000777
      dxy     :     0.000543
  6 Sis       :     5.143801  s :     5.143801
      pz      :     2.320011  p :     7.447286
      px      :     2.556294
      py      :     2.570981
      dz2     :     0.075051  d :     0.313632
      dxz     :     0.068356
      dyz     :     0.056024
      dx2y2   :     0.054416
      dxy     :     0.059785
  7 F s       :     3.889911  s :     3.889911
      pz      :     1.800989  p :     5.364581
      px      :     1.721110
      py      :     1.842482
      dz2     :     0.001901  d :     0.012677
      dxz     :     0.002535
      dyz     :     0.002426
      dx2y2   :     0.003505
      dxy     :     0.002310
  8 H s       :     0.747724  s :     0.747724
  9 H s       :     0.976999  s :     0.976999
 10 S s       :     5.859968  s :     5.859968
      pz      :     3.352999  p :    10.701590
      px      :     3.702839
      py      :     3.645751
      dz2     :     0.012308  d :     0.034570
      dxz     :     0.002958
      dyz     :     0.012020
      dx2y2   :     0.002945
      dxy     :     0.004338
 11 H s       :     0.743396  s :     0.743396
 12 H s       :     1.256867  s :     1.256867
 13 Lis       :     2.182381  s :     2.182381
      pz      :     0.103228  p :     0.276162
      px      :     0.103375
      py      :     0.069559
 14 Lis       :     2.096845  s :     2.096845
      pz      :     0.096585  p :     0.200025
      px      :     0.053700
      py      :     0.049740
 15 Als       :     4.638611  s :     4.638611
      pz      :     2.322838  p :     7.038771
      px      :     2.351608
      py      :     2.364325
      dz2     :     0.042623  d :     0.316755
      dxz     :     0.113676
      dyz     :     0.041190
      dx2y2   :     0.055842
      dxy     :     0.063424

SPIN
  0 F s       :     0.001394  s :     0.001394
      pz      :     0.011838  p :     0.033470
      px      :     0.004118
      py      :     0.017515
      dz2     :     0.000021  d :    -0.000119
      dxz     :     0.000030
      dyz     :    -0.000193
      dx2y2   :     0.000008
      dxy     :     0.000016
  1 F s       :     0.000047  s :     0.000047
      pz      :     0.000073  p :     0.000910
      px      :     0.000084
      py      :     0.000752
      dz2     :    -0.000000  d :     0.000027
      dxz     :     0.000011
      dyz     :    -0.000002
      dx2y2   :    -0.000003
      dxy     :     0.000021
  2 B s       :     0.000429  s :     0.000429
      pz      :     0.000072  p :     0.001087
      px      :     0.000205
      py      :     0.000810
      dz2     :    -0.000000  d :    -0.000000
      dxz     :     0.000000
      dyz     :     0.000001
      dx2y2   :    -0.000001
      dxy     :    -0.000000
  3 C s       :     0.010148  s :     0.010148
      pz      :     0.008719  p :     0.149264
      px      :     0.112489
      py      :     0.028057
      dz2     :    -0.000044  d :     0.000193
      dxz     :    -0.000004
      dyz     :     0.000137
      dx2y2   :     0.000112
      dxy     :    -0.000009
  4 F s       :     0.001796  s :     0.001796
      pz      :    -0.000527  p :     0.022353
      px      :    -0.000683
      py      :     0.023563
      dz2     :     0.000007  d :     0.000808
      dxz     :    -0.000006
      dyz     :     0.000066
      dx2y2   :     0.000738
      dxy     :     0.000003
  5 F s       :     0.000205  s :     0.000205
      pz      :     0.001167  p :     0.003118
      px      :     0.000984
      py      :     0.000967
      dz2     :    -0.000002  d :    -0.000023
      dxz     :     0.000024
      dyz     :    -0.000022
      dx2y2   :    -0.000004
      dxy     :    -0.000019
  6 Sis       :     0.268714  s :     0.268714
      pz      :     0.013298  p :     0.462787
      px      :     0.152485
      py      :     0.297004
      dz2     :     0.003081  d :     0.025435
      dxz     :     0.002945
      dyz     :     0.002098
      dx2y2   :     0.008250
      dxy     :     0.009062
  7 F s       :     0.000000  s :     0.000000
      pz      :     0.000004  p :     0.000066
      px      :     0.000033
      py      :     0.000030
      dz2     :    -0.000001  d :    -0.000006
      dxz     :    -0.000001
      dyz     :    -0.000001
      dx2y2   :    -0.000003
      dxy     :     0.000000
  8 H s       :    -0.008173  s :    -0.008173
  9 H s       :    -0.000064  s :    -0.000064
 10 S s       :    -0.000123  s :    -0.000123
      pz      :    -0.000154  p :    -0.000209
      px      :    -0.000145
      py      :     0.000090
      dz2     :     0.000038  d :     0.000032
      dxz     :    -0.000003
      dyz     :    -0.000002
      dx2y2   :    -0.000000
      dxy     :    -0.000000
 11 H s       :    -0.009125  s :    -0.009125
 12 H s       :     0.003428  s :     0.003428
 13 Lis       :    -0.000962  s :    -0.000962
      pz      :     0.000975  p :     0.005226
      px      :     0.003544
      py      :     0.000707
 14 Lis       :     0.002368  s :     0.002368
      pz      :    -0.000025  p :     0.000852
      px      :     0.000922
      py      :    -0.000045
 15 Als       :     0.009398  s :     0.009398
      pz      :    -0.000778  p :     0.010670
      px      :    -0.004565
      py      :     0.016014
      dz2     :     0.000861  d :     0.004578
      dxz     :    -0.000078
      dyz     :     0.000268
      dx2y2   :     0.004405
      dxy     :    -0.000877


                     *******************************
                     * LOEWDIN POPULATION ANALYSIS *
                     *******************************

-------------------------------------------
LOEWDIN ATOMIC CHARGES AND SPIN POPULATIONS
-------------------------------------------
   0 F :   -0.239250    0.047180
   1 F :   -0.278825    0.001238
   2 B :    0.011960    0.001176
   3 C :   -0.633045    0.133183
   4 F :   -0.221940    0.038611
   5 F :   -0.300954    0.004480
   6 Si:    0.628377    0.734105
   7 F :   -0.145495    0.000110
   8 H :    0.170112   -0.003346
   9 H :    0.002945    0.000077
  10 S :    0.014465   -0.000191
  11 H :    0.171028   -0.004898
  12 H :   -0.089721    0.002609
  13 Li:    0.133565    0.011038
  14 Li:    0.475797    0.001907
  15 Al:    0.300979    0.032721

----------------------------------------------------
LOEWDIN REDUCED ORBITAL CHARGES AND SPIN POPULATIONS
----------------------------------------------------
CHARGE
  0 F s       :     3.728533  s :     3.728533
      pz      :     1.738724  p :     5.469849
      px      :     1.874440
      py      :     1.856686
      dz2     :     0.019838  d :     0.040868
      dxz     :     0.008242
      dyz     :     0.010923
      dx2y2   :     0.001027
      dxy     :     0.000837
  1 F s       :     3.716780  s :     3.716780
      pz      :     1.865080  p :     5.537440
      px      :     1.795112
      py      :     1.877248
      dz2     :     0.004416  d :     0.024605
      dxz     :     0.010703
      dyz     :     0.002682
      dx2y2   :     0.004630
      dxy     :     0.002174
  2 B s       :     2.822824  s :     2.822824
      pz      :     0.738763  p :     2.017749
      px      :     0.640928
      py      :     0.638059
      dz2     :     0.033964  d :     0.147467
      dxz     :     0.044121
      dyz     :     0.024578
      dx2y2   :     0.018338
      dxy     :     0.026466
  3 C s       :     3.021022  s :     3.021022
      pz      :     1.111256  p :     3.578783
      px      :     1.172170
      py      :     1.295357
      dz2     :     0.008040  d :     0.033240
      dxz     :     0.004978
      dyz     :     0.010687
      dx2y2   :     0.004945
      dxy     :     0.004591
  4 F s       :     3.705841  s :     3.705841
      pz      :     1.859553  p :     5.481120
      px      :     1.853148
      py      :     1.768419
      dz2     :     0.004640  d :     0.034978
      dxz     :     0.004448
      dyz     :     0.006569
      dx2y2   :     0.008850
      dxy     :     0.010472
  5 F s       :     3.726077  s :     3.726077
      pz      :     1.845795  p :     5.550077
      px      :     1.804663
      py      :     1.899619
      dz2     :     0.004450  d :     0.024801
      dxz     :     0.010554
      dyz     :     0.003230
      dx2y2   :     0.002906
      dxy     :     0.003662
  6 Sis       :     5.006013  s :     5.006013
      pz      :     2.455139  p :     7.765349
      px      :     2.657438
      py      :     2.652772
      dz2     :     0.161587  d :     0.600262
      dxz     :     0.120883
      dyz     :     0.113433
      dx2y2   :     0.096012
      dxy     :     0.108346
  7 F s       :     3.698090  s :     3.698090
      pz      :     1.816279  p :     5.400377
      px      :     1.744821
      py      :     1.839277
      dz2     :     0.011726  d :     0.047028
      dxz     :     0.013848
      dyz     :     0.004743
      dx2y2   :     0.006075
      dxy     :     0.010636
  8 H s       :     0.829888  s :     0.829888
  9 H s       :     0.997055  s :     0.997055
 10 S s       :     5.493833  s :     5.493833
      pz      :     3.288187  p :    10.452238
      px      :     3.597987
      py      :     3.566063
      dz2     :     0.014778  d :     0.039465
      dxz     :     0.003921
      dyz     :     0.014053
      dx2y2   :     0.002773
      dxy     :     0.003940
 11 H s       :     0.828972  s :     0.828972
 12 H s       :     1.089721  s :     1.089721
 13 Lis       :     2.240690  s :     2.240690
      pz      :     0.217060  p :     0.625745
      px      :     0.231166
      py      :     0.177519
 14 Lis       :     2.085695  s :     2.085695
      pz      :     0.193830  p :     0.438507
      px      :     0.155555
      py      :     0.089122
 15 Als       :     4.586826  s :     4.586826
      pz      :     2.488507  p :     7.461779
      px      :     2.455614
      py      :     2.517658
      dz2     :     0.087273  d :     0.650417
      dxz     :     0.242955
      dyz     :     0.080820
      dx2y2   :     0.118275
      dxy     :     0.121093

SPIN
  0 F s       :     0.002995  s :     0.002995
      pz      :     0.012458  p :     0.038845
      px      :     0.005695
      py      :     0.020692
      dz2     :     0.000347  d :     0.005340
      dxz     :     0.001165
      dyz     :     0.003279
      dx2y2   :     0.000514
      dxy     :     0.000036
  1 F s       :     0.000055  s :     0.000055
      pz      :     0.000068  p :     0.001046
      px      :     0.000070
      py      :     0.000907
      dz2     :     0.000007  d :     0.000138
      dxz     :     0.000025
      dyz     :     0.000009
      dx2y2   :     0.000007
      dxy     :     0.000090
  2 B s       :     0.000183  s :     0.000183
      pz      :     0.000052  p :     0.000989
      px      :     0.000226
      py      :     0.000711
      dz2     :     0.000000  d :     0.000005
      dxz     :    -0.000000
      dyz     :     0.000002
      dx2y2   :     0.000003
      dxy     :    -0.000000
  3 C s       :     0.009244  s :     0.009244
      pz      :     0.005862  p :     0.123782
      px      :     0.089491
      py      :     0.028428
      dz2     :    -0.000032  d :     0.000157
      dxz     :    -0.000076
      dyz     :     0.000078
      dx2y2   :    -0.000092
      dxy     :     0.000279
  4 F s       :     0.004758  s :     0.004758
      pz      :    -0.000283  p :     0.027808
      px      :    -0.000057
      py      :     0.028148
      dz2     :     0.000597  d :     0.006045
      dxz     :     0.000083
      dyz     :     0.000607
      dx2y2   :     0.004835
      dxy     :    -0.000078
  5 F s       :     0.000644  s :     0.000644
      pz      :     0.001242  p :     0.003520
      px      :     0.001039
      py      :     0.001239
      dz2     :    -0.000001  d :     0.000315
      dxz     :     0.000160
      dyz     :     0.000079
      dx2y2   :    -0.000004
      dxy     :     0.000081
  6 Sis       :     0.223371  s :     0.223371
      pz      :     0.011595  p :     0.464578
      px      :     0.159028
      py      :     0.293955
      dz2     :     0.004931  d :     0.046156
      dxz     :     0.005002
      dyz     :     0.003753
      dx2y2   :     0.016936
      dxy     :     0.015535
  7 F s       :     0.000005  s :     0.000005
      pz      :     0.000010  p :     0.000103
      px      :     0.000042
      py      :     0.000051
      dz2     :    -0.000001  d :     0.000002
      dxz     :     0.000001
      dyz     :    -0.000002
      dx2y2   :     0.000003
      dxy     :     0.000000
  8 H s       :    -0.003346  s :    -0.003346
  9 H s       :     0.000077  s :     0.000077
 10 S s       :    -0.000023  s :    -0.000023
      pz      :    -0.000112  p :    -0.000189
      px      :    -0.000131
      py      :     0.000054
      dz2     :     0.000038  d :     0.000021
      dxz     :    -0.000004
      dyz     :    -0.000006
      dx2y2   :    -0.000006
      dxy     :    -0.000001
 11 H s       :    -0.004898  s :    -0.004898
 12 H s       :     0.002609  s :     0.002609
 13 Lis       :     0.004951  s :     0.004951
      pz      :     0.001366  p :     0.006087
      px      :     0.002487
      py      :     0.002234
 14 Lis       :     0.001421  s :     0.001421
      pz      :    -0.000033  p :     0.000487
      px      :     0.000481
      py      :     0.000038
 15 Als       :     0.007945  s :     0.007945
      pz      :    -0.000398  p :     0.017714
      px      :    -0.000859
      py      :     0.018971
      dz2     :     0.001107  d :     0.007061
      dxz     :     0.000105
      dyz     :     0.000376
      dx2y2   :     0.006698
      dxy     :    -0.001223


                      *****************************
                      * MAYER POPULATION ANALYSIS *
                      *****************************

  NA   - Mulliken gross atomic population
  ZA   - Total nuclear charge
  QA   - Mulliken gross atomic charge
  VA   - Mayer's total valence
  BVA  - Mayer's bonded valence
  FA   - Mayer's free valence

  ATOM       NA         ZA         QA         VA         BVA        FA
  0 F      9.4524     9.0000    -0.4524     0.9688     0.9665     0.0023
  1 F      9.5550     9.0000    -0.5550     0.8449     0.8449     0.0000
  2 B      4.6475     5.0000     0.3525     3.3256     3.3256     0.0000
  3 C      7.0569     6.0000    -1.0569     3.5624     3.5376     0.0248
  4 F      9.4858     9.0000    -0.4858     0.9258     0.9244     0.0014
  5 F      9.5599     9.0000    -0.5599     0.8228     0.8228     0.0000
  6 Si    12.9047    14.0000     1.0953     3.3827     2.7462     0.6365
  7 F      9.2672     9.0000    -0.2672     1.1884     1.1884     0.0000
  8 H      0.7477     1.0000     0.2523     0.8957     0.8956     0.0001
  9 H      0.9770     1.0000     0.0230     0.9627     0.9627     0.0000
 10 S     16.5961    16.0000    -0.5961     2.0194     2.0194     0.0000
 11 H      0.7434     1.0000     0.2566     0.8981     0.8980     0.0001
 12 H      1.2569     1.0000    -0.2569     0.9088     0.9087     0.0000
 13 Li     2.4585     3.0000     0.5415     0.8487     0.8487     0.0000
 14 Li     2.2969     3.0000     0.7031     0.5866     0.5866     0.0000
 15 Al    11.9941    13.0000     1.0059     3.1138     3.1130     0.0009

  Mayer bond orders larger than 0.100000
B(  0-F ,  6-Si) :   0.8796 B(  1-F , 14-Li) :   0.2303 B(  1-F , 15-Al) :   0.5931 
B(  2-B ,  7-F ) :   1.1491 B(  2-B ,  9-H ) :   0.9427 B(  2-B , 10-S ) :   1.1321 
B(  3-C ,  6-Si) :   1.0952 B(  3-C ,  8-H ) :   0.8803 B(  3-C , 11-H ) :   0.8824 
B(  3-C , 15-Al) :   0.6021 B(  4-F ,  6-Si) :   0.6752 B(  4-F , 13-Li) :   0.2034 
B(  5-F , 14-Li) :   0.2575 B(  5-F , 15-Al) :   0.5250 B( 10-S , 13-Li) :   0.2213 
B( 10-S , 15-Al) :   0.5842 B( 12-H , 13-Li) :   0.2738 B( 12-H , 15-Al) :   0.6015 


-------
TIMINGS
-------

Total SCF time: 0 days 0 hours 4 min 36 sec 

Total time                  ....     276.804 sec
Sum of individual times     ....     265.037 sec  ( 95.7%)

Fock matrix formation       ....     211.070 sec  ( 76.3%)
  Split-RI-J                ....      16.515 sec  (  7.8% of F)
  Chain of spheres X        ....      89.024 sec  ( 42.2% of F)
  XC integration            ....      49.836 sec  ( 23.6% of F)
    Basis function eval.    ....       7.022 sec  ( 14.1% of XC)
    Density eval.           ....       7.867 sec  ( 15.8% of XC)
    XC-Functional eval.     ....       3.003 sec  (  6.0% of XC)
    XC-Potential eval.      ....       4.645 sec  (  9.3% of XC)
Diagonalization             ....      13.267 sec  (  4.8%)
Density matrix formation    ....       0.456 sec  (  0.2%)
Population analysis         ....       2.134 sec  (  0.8%)
Initial guess               ....       0.107 sec  (  0.0%)
Orbital Transformation      ....       0.000 sec  (  0.0%)
Orbital Orthonormalization  ....       0.000 sec  (  0.0%)
DIIS solution               ....      27.480 sec  (  9.9%)
Grid generation             ....      10.524 sec  (  3.8%)

Maximum memory used throughout the entire SCF-calculation: 61.7 MB


-------------------------------------------------------------------------------
                          DFT DISPERSION CORRECTION                            
                                                                               
                              DFTD3 V3.1  Rev 1                                
                          USING Becke-Johnson damping                          
-------------------------------------------------------------------------------
The PBEh-3c composite method is recognized
Using three-body term ABC
Active option DFTDOPT                   ...         4   

molecular C6(AA) [au] = 6804.617768 


            DFT-D V3
 parameters
 s6 scaling factor         :     1.0000 
 a1 scaling factor         :     0.4860 
 s8 scaling factor         :     0.0000 
 a2 scaling factor         :     4.5000 
 Damping factor alpha9(ATM):    16.0000 
 ad hoc parameters k1-k3   :    16.0000     1.3333    -4.0000 

 Edisp/kcal,au: -6.198147927891  -0.009877376395 
 E6   /kcal   :  -6.257774190 
 E8   /kcal   :  -0.000000000 
 E6(ABC)      :   0.059626262 
 % E8         :   0.000000000 
 % E6(ABC)    :  -0.962001276 

-------------------------   ----------------
Dispersion correction           -0.009877376
-------------------------   ----------------

------------------   -----------------
gCP correction             0.027774905
------------------   -----------------

-------------------------   --------------------
FINAL SINGLE POINT ENERGY     -1507.974502553213
-------------------------   --------------------


                            ***************************************
                            *     ORCA property calculations      *
                            ***************************************

                                    ---------------------
                                    Active property flags
                                    ---------------------
   (+) Dipole Moment


------------------------------------------------------------------------------
                       ORCA ELECTRIC PROPERTIES CALCULATION
------------------------------------------------------------------------------

Dipole Moment Calculation                       ... on
Quadrupole Moment Calculation                   ... off
Polarizability Calculation                      ... off
GBWName                                         ... pbeh-3c.gbw
Electron density                                ... pbeh-3c.scfp
The origin for moment calculation is the CENTER OF MASS  = ( 0.422215, -0.366845 -0.237049)

-------------
DIPOLE MOMENT
-------------
                                X             Y             Z
Electronic contribution:     -1.95549      -5.40573      -0.82394
Nuclear contribution   :      0.34745       5.55725       1.86501
                        -----------------------------------------
Total Dipole Moment    :     -1.60804       0.15152       1.04107
                        -----------------------------------------
Magnitude (a.u.)       :      1.92161
Magnitude (Debye)      :      4.88434



--------------------
Rotational spectrum 
--------------------
 
Rotational constants in cm-1:     0.025274     0.019326     0.014388 
Rotational constants in MHz :   757.693038   579.376059   431.331974 

 Dipole components along the rotational axes: 
x,y,z [a.u.] :    -1.776825     0.723899    -0.107001 
x,y,z [Debye]:    -4.516330     1.840005    -0.271975 

 

Timings for individual modules:

Sum of individual times         ...      281.739 sec (=   4.696 min)
GTO integral calculation        ...        3.431 sec (=   0.057 min)   1.2 %
SCF iterations                  ...      278.308 sec (=   4.638 min)  98.8 %
                             ****ORCA TERMINATED NORMALLY****
TOTAL RUN TIME: 0 days 0 hours 4 minutes 45 seconds 528 msec
