
                                 *****************
                                 * O   R   C   A *
                                 *****************

                                            #,                                       
                                            ###                                      
                                            ####                                     
                                            #####                                    
                                            ######                                   
                                           ########,                                 
                                     ,,################,,,,,                         
                               ,,#################################,,                 
                          ,,##########################################,,             
                       ,#########################################, ''#####,          
                    ,#############################################,,   '####,        
                  ,##################################################,,,,####,       
                ,###########''''           ''''###############################       
              ,#####''   ,,,,##########,,,,          '''####'''          '####       
            ,##' ,,,,###########################,,,                        '##       
           ' ,,###''''                  '''############,,,                           
         ,,##''                                '''############,,,,        ,,,,,,###''
      ,#''                                            '''#######################'''  
     '                                                          ''''####''''         
             ,#######,   #######,   ,#######,      ##                                
            ,#'     '#,  ##    ##  ,#'     '#,    #''#        ######   ,####,        
            ##       ##  ##   ,#'  ##            #'  '#       #        #'  '#        
            ##       ##  #######   ##           ,######,      #####,   #    #        
            '#,     ,#'  ##    ##  '#,     ,#' ,#      #,         ##   #,  ,#        
             '#######'   ##     ##  '#######'  #'      '#     #####' # '####'        



                  #######################################################
                  #                        -***-                        #
                  #          Department of theory and spectroscopy      #
                  #    Directorship and core code : Frank Neese         #
                  #        Max Planck Institute fuer Kohlenforschung    #
                  #                Kaiser Wilhelm Platz 1               #
                  #                 D-45470 Muelheim/Ruhr               #
                  #                      Germany                        #
                  #                                                     #
                  #                  All rights reserved                #
                  #                        -***-                        #
                  #######################################################


                         Program Version 5.0.3 -  RELEASE  -


 With contributions from (in alphabetic order):
   Daniel Aravena         : Magnetic Suceptibility
   Michael Atanasov       : Ab Initio Ligand Field Theory (pilot matlab implementation)
   Alexander A. Auer      : GIAO ZORA, VPT2 properties, NMR spectrum
   Ute Becker             : Parallelization
   Giovanni Bistoni       : ED, misc. LED, open-shell LED, HFLD
   Martin Brehm           : Molecular dynamics
   Dmytro Bykov           : SCF Hessian
   Vijay G. Chilkuri      : MRCI spin determinant printing, contributions to CSF-ICE
   Dipayan Datta          : RHF DLPNO-CCSD density
   Achintya Kumar Dutta   : EOM-CC, STEOM-CC
   Dmitry Ganyushin       : Spin-Orbit,Spin-Spin,Magnetic field MRCI
   Miquel Garcia          : C-PCM and meta-GGA Hessian, CC/C-PCM, Gaussian charge scheme
   Yang Guo               : DLPNO-NEVPT2, F12-NEVPT2, CIM, IAO-localization
   Andreas Hansen         : Spin unrestricted coupled pair/coupled cluster methods
   Benjamin Helmich-Paris : MC-RPA, TRAH-SCF, COSX integrals
   Lee Huntington         : MR-EOM, pCC
   Robert Izsak           : Overlap fitted RIJCOSX, COSX-SCS-MP3, EOM
   Marcus Kettner         : VPT2
   Christian Kollmar      : KDIIS, OOCD, Brueckner-CCSD(T), CCSD density, CASPT2, CASPT2-K
   Simone Kossmann        : Meta GGA functionals, TD-DFT gradient, OOMP2, MP2 Hessian
   Martin Krupicka        : Initial AUTO-CI
   Lucas Lang             : DCDCAS
   Marvin Lechner         : AUTO-CI (C++ implementation), FIC-MRCC
   Dagmar Lenk            : GEPOL surface, SMD
   Dimitrios Liakos       : Extrapolation schemes; Compound Job, initial MDCI parallelization
   Dimitrios Manganas     : Further ROCIS development; embedding schemes
   Dimitrios Pantazis     : SARC Basis sets
   Anastasios Papadopoulos: AUTO-CI, single reference methods and gradients
   Taras Petrenko         : DFT Hessian,TD-DFT gradient, ASA, ECA, R-Raman, ABS, FL, XAS/XES, NRVS
   Peter Pinski           : DLPNO-MP2, DLPNO-MP2 Gradient
   Christoph Reimann      : Effective Core Potentials
   Marius Retegan         : Local ZFS, SOC
   Christoph Riplinger    : Optimizer, TS searches, QM/MM, DLPNO-CCSD(T), (RO)-DLPNO pert. Triples
   Tobias Risthaus        : Range-separated hybrids, TD-DFT gradient, RPA, STAB
   Michael Roemelt        : Original ROCIS implementation
   Masaaki Saitow         : Open-shell DLPNO-CCSD energy and density
   Barbara Sandhoefer     : DKH picture change effects
   Avijit Sen             : IP-ROCIS
   Kantharuban Sivalingam : CASSCF convergence, NEVPT2, FIC-MRCI
   Bernardo de Souza      : ESD, SOC TD-DFT
   Georgi Stoychev        : AutoAux, RI-MP2 NMR, DLPNO-MP2 response
   Willem Van den Heuvel  : Paramagnetic NMR
   Boris Wezisla          : Elementary symmetry handling
   Frank Wennmohs         : Technical directorship


 We gratefully acknowledge several colleagues who have allowed us to
 interface, adapt or use parts of their codes:
   Stefan Grimme, W. Hujo, H. Kruse, P. Pracht,  : VdW corrections, initial TS optimization,
                  C. Bannwarth, S. Ehlert          DFT functionals, gCP, sTDA/sTD-DF
   Ed Valeev, F. Pavosevic, A. Kumar             : LibInt (2-el integral package), F12 methods
   Garnet Chan, S. Sharma, J. Yang, R. Olivares  : DMRG
   Ulf Ekstrom                                   : XCFun DFT Library
   Mihaly Kallay                                 : mrcc  (arbitrary order and MRCC methods)
   Jiri Pittner, Ondrej Demel                    : Mk-CCSD
   Frank Weinhold                                : gennbo (NPA and NBO analysis)
   Christopher J. Cramer and Donald G. Truhlar   : smd solvation model
   Lars Goerigk                                  : TD-DFT with DH, B97 family of functionals
   V. Asgeirsson, H. Jonsson                     : NEB implementation
   FAccTs GmbH                                   : IRC, NEB, NEB-TS, DLPNO-Multilevel, CI-OPT
                                                   MM, QMMM, 2- and 3-layer-ONIOM, Crystal-QMMM,
                                                   LR-CPCM, SF, NACMEs, symmetry and pop. for TD-DFT,
                                                   nearIR, NL-DFT gradient (VV10), updates on ESD,
                                                   ML-optimized integration grids
   S Lehtola, MJT Oliveira, MAL Marques          : LibXC Library
   Liviu Ungur et al                             : ANISO software


 Your calculation uses the libint2 library for the computation of 2-el integrals
 For citations please refer to: http://libint.valeyev.net

 Your ORCA version has been built with support for libXC version: 5.1.0
 For citations please refer to: https://tddft.org/programs/libxc/

 This ORCA versions uses:
   CBLAS   interface :  Fast vector & matrix operations
   LAPACKE interface :  Fast linear algebra routines
   SCALAPACK package :  Parallel linear algebra routines
   Shared memory     :  Shared parallel matrices
   BLAS/LAPACK       :  OpenBLAS 0.3.15  USE64BITINT DYNAMIC_ARCH NO_AFFINITY Haswell SINGLE_THREADED
        Core in use  :  Haswell
   Copyright (c) 2011-2014, The OpenBLAS Project




***************************************
The coordinates will be read from file: B47.xyz
***************************************


Your calculation utilizes the geometrical counterpoise correction gCP
Please cite in your paper:
H.Kruse, S. Grimme J.Chem.Phys., 136, (2012), 154101 
   

Your calculation utilizes the atom-pairwise dispersion correction
with the Becke-Johnson damping scheme (D3BJ)
Cite in your paper:
S.Grimme, S.Ehrlich, L.Goerigk, J Comput Chem, (2011), 32, 1456–1465 
S.Grimme, J.Antony, S.Ehrlich and H.Krieg, J.Chem.Phys., 132, (2010), 154104 
   

Your calculation employs the composite approach PBEh-3c.
Please cite in your paper:
S. Grimme, J. G. Brandenburg, C. Bannwarth, A. Hansen J.Chem.Phys., 143, (2015), 054107 
   

================================================================================

----- Orbital basis set information -----
Your calculation utilizes the basis: def2-mSVP

----- AuxJ basis set information -----
Your calculation utilizes the auxiliary basis: def2/J
   F. Weigend, Phys. Chem. Chem. Phys. 8, 1057 (2006).

================================================================================
                                        WARNINGS
                       Please study these warnings very carefully!
================================================================================


INFO   : the flag for use of the SHARK integral package has been found!

================================================================================
                                       INPUT FILE
================================================================================
NAME = pbeh-3c.inp
|  1> ! PBEh-3c def2/J TightSCF DefGrid3
|  2> 
|  3> %maxcore 60000
|  4> 
|  5> %pal
|  6> nprocs 4
|  7> end
|  8> 
|  9> *xyzfile 0 1 B47.xyz
| 10> 
| 11>                          ****END OF INPUT****
================================================================================

                       ****************************
                       * Single Point Calculation *
                       ****************************

---------------------------------
CARTESIAN COORDINATES (ANGSTROEM)
---------------------------------
  C      1.400066   -0.064138    0.492426
  H      0.917962   -0.915860    0.970479
  O      2.623833   -0.576937   -0.025192
  C      0.510804    0.530445   -0.592845
  H      1.059372    1.338087   -1.085789
  H      0.330223   -0.225837   -1.359567
  C     -0.816097    1.083959   -0.066318
  H     -1.351497    1.565631   -0.885949
  H     -0.621379    1.853015    0.687482
  H      3.083023    0.152189   -0.450893
  H      1.586157    0.683461    1.271665
  C     -1.734433    0.031350    0.549522
  H     -1.281161   -0.406201    1.443932
  H     -2.667155    0.500803    0.857779
  O     -2.109241   -0.986530   -0.374685
  H     -1.334331   -1.527247   -0.546836

----------------------------
CARTESIAN COORDINATES (A.U.)
----------------------------
  NO LB      ZA    FRAG     MASS         X           Y           Z
   0 C     6.0000    0    12.011    2.645741   -0.121203    0.930550
   1 H     1.0000    0     1.008    1.734697   -1.730725    1.833940
   2 O     8.0000    0    15.999    4.958326   -1.090253   -0.047606
   3 C     6.0000    0    12.011    0.965280    1.002396   -1.120315
   4 H     1.0000    0     1.008    2.001923    2.528618   -2.051844
   5 H     1.0000    0     1.008    0.624031   -0.426770   -2.569209
   6 C     6.0000    0    12.011   -1.542200    2.048386   -0.125323
   7 H     1.0000    0     1.008   -2.553959    2.958614   -1.674201
   8 H     1.0000    0     1.008   -1.174236    3.501691    1.299153
   9 H     1.0000    0     1.008    5.826069    0.287596   -0.852064
  10 H     1.0000    0     1.008    2.997402    1.291554    2.403099
  11 C     6.0000    0    12.011   -3.277603    0.059243    1.038446
  12 H     1.0000    0     1.008   -2.421043   -0.767609    2.728636
  13 H     1.0000    0     1.008   -5.040193    0.946381    1.620967
  14 O     8.0000    0    15.999   -3.985888   -1.864272   -0.708052
  15 H     1.0000    0     1.008   -2.521520   -2.886079   -1.033370

--------------------------------
INTERNAL COORDINATES (ANGSTROEM)
--------------------------------
 C      0   0   0     0.000000000000     0.00000000     0.00000000
 H      1   0   0     1.089214993887     0.00000000     0.00000000
 O      1   2   0     1.424253094999   104.96784611     0.00000000
 C      1   2   3     1.523853336766   111.06284168   121.86194660
 H      4   1   2     1.093712136681   108.44669624   183.56385046
 H      4   1   2     1.091986532137   109.04582669   298.71980858
 C      4   1   2     1.531102443903   113.69553302    62.37234658
 H      7   4   1     1.091080222415   109.05795503   175.13883605
 H      7   4   1     1.094338462570   109.67783724    58.10840508
 H      3   1   2     0.961093919124   107.35867090   180.44435146
 H      1   2   3     1.095786267574   107.25039869   241.88615403
 C      7   4   1     1.526625566856   114.25379106   296.33559024
 H     12   7   4     1.094018113052   110.87501151    64.34117684
 H     12   7   4     1.088751039743   109.40543353   182.38377813
 O     12   7   4     1.425033090884   112.89798922   299.46575459
 H     15  12   7     0.960466734973   107.82820666    70.78705644

---------------------------
INTERNAL COORDINATES (A.U.)
---------------------------
 C      0   0   0     0.000000000000     0.00000000     0.00000000
 H      1   0   0     2.058318039408     0.00000000     0.00000000
 O      1   2   0     2.691448294938   104.96784611     0.00000000
 C      1   2   3     2.879665474751   111.06284168   121.86194660
 H      4   1   2     2.066816407674   108.44669624   183.56385046
 H      4   1   2     2.063555487670   109.04582669   298.71980858
 C      4   1   2     2.893364301954   113.69553302    62.37234658
 H      7   4   1     2.061842810502   109.05795503   175.13883605
 H      7   4   1     2.067999992074   109.67783724    58.10840508
 H      3   1   2     1.816204296121   107.35867090   180.44435146
 H      1   2   3     2.070735947026   107.25039869   241.88615403
 C      7   4   1     2.884904230399   114.25379106   296.33559024
 H     12   7   4     2.067394619217   110.87501151    64.34117684
 H     12   7   4     2.057441293137   109.40543353   182.38377813
 O     12   7   4     2.692922273545   112.89798922   299.46575459
 H     15  12   7     1.815019089841   107.82820666    70.78705644

---------------------
BASIS SET INFORMATION
---------------------
There are 3 groups of distinct atoms

 Group   1 Type C   : 8s4p1d contracted to 4s2p1d pattern {5111/31/1}
 Group   2 Type H   : 4s contracted to 2s pattern {31}
 Group   3 Type O   : 8s4p1d contracted to 4s2p1d pattern {5111/31/1}

Atom   0C    basis set group =>   1
Atom   1H    basis set group =>   2
Atom   2O    basis set group =>   3
Atom   3C    basis set group =>   1
Atom   4H    basis set group =>   2
Atom   5H    basis set group =>   2
Atom   6C    basis set group =>   1
Atom   7H    basis set group =>   2
Atom   8H    basis set group =>   2
Atom   9H    basis set group =>   2
Atom  10H    basis set group =>   2
Atom  11C    basis set group =>   1
Atom  12H    basis set group =>   2
Atom  13H    basis set group =>   2
Atom  14O    basis set group =>   3
Atom  15H    basis set group =>   2
---------------------------------
AUXILIARY/J BASIS SET INFORMATION
---------------------------------
There are 3 groups of distinct atoms

 Group   1 Type C   : 12s5p4d2f1g contracted to 6s4p3d1f1g pattern {711111/2111/211/2/1}
 Group   2 Type H   : 5s2p1d contracted to 3s1p1d pattern {311/2/1}
 Group   3 Type O   : 12s5p4d2f1g contracted to 6s4p3d1f1g pattern {711111/2111/211/2/1}

Atom   0C    basis set group =>   1
Atom   1H    basis set group =>   2
Atom   2O    basis set group =>   3
Atom   3C    basis set group =>   1
Atom   4H    basis set group =>   2
Atom   5H    basis set group =>   2
Atom   6C    basis set group =>   1
Atom   7H    basis set group =>   2
Atom   8H    basis set group =>   2
Atom   9H    basis set group =>   2
Atom  10H    basis set group =>   2
Atom  11C    basis set group =>   1
Atom  12H    basis set group =>   2
Atom  13H    basis set group =>   2
Atom  14O    basis set group =>   3
Atom  15H    basis set group =>   2


           ************************************************************
           *        Program running with 4 parallel MPI-processes     *
           *              working on a common directory               *
           ************************************************************
------------------------------------------------------------------------------
                           ORCA GTO INTEGRAL CALCULATION
                           -- RI-GTO INTEGRALS CHOSEN --
------------------------------------------------------------------------------
------------------------------------------------------------------------------
                   ___                                                        
                  /   \      - P O W E R E D   B Y -                         
                 /     \                                                     
                 |  |  |   _    _      __       _____    __    __             
                 |  |  |  | |  | |    /  \     |  _  \  |  |  /  |          
                  \  \/   | |  | |   /    \    | | | |  |  | /  /          
                 / \  \   | |__| |  /  /\  \   | |_| |  |  |/  /          
                |  |  |   |  __  | /  /__\  \  |    /   |      \           
                |  |  |   | |  | | |   __   |  |    \   |  |\   \          
                \     /   | |  | | |  |  |  |  | |\  \  |  | \   \       
                 \___/    |_|  |_| |__|  |__|  |_| \__\ |__|  \__/        
                                                                              
                      - O R C A' S   B I G   F R I E N D -                    
                                      &                                       
                       - I N T E G R A L  F E E D E R -                       
                                                                              
 v1 FN, 2020, v2 2021                                                         
------------------------------------------------------------------------------


Reading SHARK input file pbeh-3c.SHARKINP.tmp ... ok
----------------------
SHARK INTEGRAL PACKAGE
----------------------

Number of atoms                             ...     16
Number of basis functions                   ...    110
Number of shells                            ...     62
Maximum angular momentum                    ...      2
Integral batch strategy                     ... SHARK/LIBINT Hybrid
RI-J (if used) integral strategy            ... SPLIT-RIJ (Revised 2003 algorithm where possible)
Printlevel                                  ...      1
Contraction scheme used                     ... SEGMENTED contraction
Coulomb Range Separation                    ... NOT USED
Exchange Range Separation                   ... NOT USED
Finite Nucleus Model                        ... NOT USED
Auxiliary Coulomb fitting basis             ... AVAILABLE
   # of basis functions in Aux-J            ...    404
   # of shells in Aux-J                     ...    140
   Maximum angular momentum in Aux-J        ...      4
Auxiliary J/K fitting basis                 ... NOT available
Auxiliary Correlation fitting basis         ... NOT available
Auxiliary 'external' fitting basis          ... NOT available
Integral threshold                          ...     2.500000e-11
Primitive cut-off                           ...     2.500000e-12
Primitive pair pre-selection threshold      ...     2.500000e-12

Calculating pre-screening integrals         ... done (  0.0 sec) Dimension = 62
Organizing shell pair data                  ... done (  0.1 sec)
Shell pair information
Total number of shell pairs                 ...      1953
Shell pairs after pre-screening             ...      1809
Total number of primitive shell pairs       ...      7129
Primitive shell pairs kept                  ...      4838
          la=0 lb=0:    890 shell pairs
          la=1 lb=0:    509 shell pairs
          la=1 lb=1:     77 shell pairs
          la=2 lb=0:    242 shell pairs
          la=2 lb=1:     70 shell pairs
          la=2 lb=2:     21 shell pairs

Calculating one electron integrals          ... done (  0.0 sec)
Calculating RI/J V-Matrix + Cholesky decomp.... done (  0.2 sec)
Calculating Nuclear repulsion               ... done (  0.1 sec) ENN=    253.551685082301 Eh

SHARK setup successfully completed in   1.6 seconds

Maximum memory used throughout the entire GTOINT-calculation: 10.5 MB


           ************************************************************
           *        Program running with 4 parallel MPI-processes     *
           *              working on a common directory               *
           ************************************************************
-------------------------------------------------------------------------------
                                 ORCA SCF
-------------------------------------------------------------------------------

------------
SCF SETTINGS
------------
Hamiltonian:
 Density Functional     Method          .... DFT(GTOs)
 Exchange Functional    Exchange        .... PBE
   PBE kappa parameter   XKappa         ....  1.024500
   PBE mue parameter    XMuePBE         ....  0.123457
 Correlation Functional Correlation     .... PBE
   PBE beta parameter  CBetaPBE         ....  0.030000
 LDA part of GGA corr.  LDAOpt          .... PW91-LDA
 Gradients option       PostSCFGGA      .... off
 Hybrid DFT is turned on
   Fraction HF Exchange ScalHFX         ....  0.420000
   Scaling of DF-GGA-X  ScalDFX         ....  0.580000
   Scaling of DF-GGA-C  ScalDFC         ....  1.000000
   Scaling of DF-LDA-C  ScalLDAC        ....  1.000000
   Perturbative correction              ....  0.000000
   Density functional embedding theory  .... OFF
 RI-approximation to the Coulomb term is turned on
   Number of AuxJ basis functions       .... 404
   RIJ-ON(X) (HFX calculated with O(N)) .... on
   Number of AuxJ basis functions       .... 404
   RIJ-COSX (HFX calculated with COS-X)).... on


General Settings:
 Integral files         IntName         .... pbeh-3c
 Hartree-Fock type      HFTyp           .... RHF
 Total Charge           Charge          ....    0
 Multiplicity           Mult            ....    1
 Number of Electrons    NEL             ....   50
 Basis Dimension        Dim             ....  110
 Nuclear Repulsion      ENuc            ....    253.5516850823 Eh

Convergence Acceleration:
 DIIS                   CNVDIIS         .... on
   Start iteration      DIISMaxIt       ....    12
   Startup error        DIISStart       ....  0.200000
   # of expansion vecs  DIISMaxEq       ....     5
   Bias factor          DIISBfac        ....   1.050
   Max. coefficient     DIISMaxC        ....  10.000
 Trust-Rad. Augm. Hess. CNVTRAH         .... auto
   Auto Start mean grad. ratio tolernc. ....  1.125000
   Auto Start start iteration           ....    20
   Auto Start num. interpolation iter.  ....    10
   Max. Number of Micro iterations      ....    16
   Max. Number of Macro iterations      .... Maxiter - #DIIS iter
   Number of Davidson start vectors     ....     2
   Converg. threshold I  (grad. norm)   ....   1.000e-05
   Converg. threshold II (energy diff.) ....   1.000e-08
   Grad. Scal. Fac. for Micro threshold ....   0.100
   Minimum threshold for Micro iter.    ....   0.010
   NR start threshold (gradient norm)   ....   0.001
   Initial trust radius                 ....   0.400
   Minimum AH scaling param. (alpha)    ....   1.000
   Maximum AH scaling param. (alpha)    .... 1000.000
   Orbital update algorithm             .... Taylor
   White noise on init. David. guess    .... on
   Maximum white noise                  ....   0.010
   Quad. conv. algorithm                .... NR
   COSX micro iterations for RIJONX calc.... off
 SOSCF                  CNVSOSCF        .... on
   Start iteration      SOSCFMaxIt      ....   150
   Startup grad/error   SOSCFStart      ....  0.003300
 Level Shifting         CNVShift        .... on
   Level shift para.    LevelShift      ....    0.2500
   Turn off err/grad.   ShiftErr        ....    0.0010
 Zerner damping         CNVZerner       .... off
 Static damping         CNVDamp         .... on
   Fraction old density DampFac         ....    0.7000
   Max. Damping (<1)    DampMax         ....    0.9800
   Min. Damping (>=0)   DampMin         ....    0.0000
   Turn off err/grad.   DampErr         ....    0.1000
 Fernandez-Rico         CNVRico         .... off

SCF Procedure:
 Maximum # iterations   MaxIter         ....   125
 SCF integral mode      SCFMode         .... Direct
   Integral package                     .... SHARK and LIBINT hybrid scheme
 Reset frequency        DirectResetFreq ....    20
 Integral Threshold     Thresh          ....  2.500e-11 Eh
 Primitive CutOff       TCut            ....  2.500e-12 Eh

Convergence Tolerance:
 Convergence Check Mode ConvCheckMode   .... Total+1el-Energy
 Convergence forced     ConvForced      .... 0
 Energy Change          TolE            ....  1.000e-08 Eh
 1-El. energy change                    ....  1.000e-05 Eh
 Orbital Gradient       TolG            ....  1.000e-05
 Orbital Rotation angle TolX            ....  1.000e-05
 DIIS Error             TolErr          ....  5.000e-07


Diagonalization of the overlap matrix:
Smallest eigenvalue                        ... 6.193e-03
Time for diagonalization                   ...    0.002 sec
Threshold for overlap eigenvalues          ... 1.000e-08
Number of eigenvalues below threshold      ... 0
Time for construction of square roots      ...    0.210 sec
Total time needed                          ...    0.213 sec

--------------------------------
INITIAL GUESS: MINIMAL BASIS EHT
--------------------------------
The minimal basis has 40 functions
EHT matrix was diagonalized
Basis set overlap was calculated now projecting the orbitals
Using GuessMode=FMatrix for the initial guess
C*T matrix was formed
Effective Fockian was calculated
Effective Fockian was diagonalized
Initial density was built
                      ------------------
                      INITIAL GUESS DONE
                      ------------------
-------------------
DFT GRID GENERATION
-------------------

General Integration Accuracy     IntAcc      ... 4.959
Radial Grid Type                 RadialGrid  ... OptM3 with GC (2021)
Angular Grid (max. ang.)         AngularGrid ... 6 (Lebedev-590)
Angular grid pruning method      GridPruning ... 4 (adaptive)
Weight generation scheme         WeightScheme... Becke
Basis function cutoff            BFCut       ... 1.0000e-11
Integration weight cutoff        WCut        ... 1.0000e-14
Angular grids for H and He will be reduced by one unit
Partially contracted basis set               ... off
Rotationally invariant grid construction     ... off

Total number of grid points                  ...   172976
Total number of batches                      ...     2711
Average number of points per batch           ...       63
Average number of grid points per atom       ...    10811
Time for grid setup =    3.063 sec

--------------------
COSX GRID GENERATION
--------------------

GRIDX 1
-------
General Integration Accuracy     IntAcc      ... 4.020
Radial Grid Type                 RadialGrid  ... OptM3 with GC (2021)
Angular Grid (max. ang.)         AngularGrid ... 2 (Lebedev-110)
Angular grid pruning method      GridPruning ... 4 (adaptive)
Weight generation scheme         WeightScheme... Becke
Basis function cutoff            BFCut       ... 1.0000e-11
Integration weight cutoff        WCut        ... 1.0000e-14
Angular grids for H and He will be reduced by one unit
Partially contracted basis set               ... on
Rotationally invariant grid construction     ... off

Total number of grid points                  ...    18449
Total number of batches                      ...      297
Average number of points per batch           ...       62
Average number of grid points per atom       ...     1153
UseSFitting                                  ... on

GRIDX 2
-------
General Integration Accuracy     IntAcc      ... 4.338
Radial Grid Type                 RadialGrid  ... OptM3 with GC (2021)
Angular Grid (max. ang.)         AngularGrid ... 3 (Lebedev-194)
Angular grid pruning method      GridPruning ... 4 (adaptive)
Weight generation scheme         WeightScheme... Becke
Basis function cutoff            BFCut       ... 1.0000e-11
Integration weight cutoff        WCut        ... 1.0000e-14
Angular grids for H and He will be reduced by one unit
Partially contracted basis set               ... on
Rotationally invariant grid construction     ... off

Total number of grid points                  ...    40334
Total number of batches                      ...      640
Average number of points per batch           ...       63
Average number of grid points per atom       ...     2521
UseSFitting                                  ... on

GRIDX 3
-------
General Integration Accuracy     IntAcc      ... 4.871
Radial Grid Type                 RadialGrid  ... OptM3 with GC (2021)
Angular Grid (max. ang.)         AngularGrid ... 4 (Lebedev-302)
Angular grid pruning method      GridPruning ... 4 (adaptive)
Weight generation scheme         WeightScheme... Becke
Basis function cutoff            BFCut       ... 1.0000e-11
Integration weight cutoff        WCut        ... 1.0000e-14
Angular grids for H and He will be reduced by one unit
Partially contracted basis set               ... on
Rotationally invariant grid construction     ... off

Total number of grid points                  ...    79463
Total number of batches                      ...     1248
Average number of points per batch           ...       63
Average number of grid points per atom       ...     4966
UseSFitting                                  ... on

Time for X-Grid setup             =    3.710 sec

--------------
SCF ITERATIONS
--------------
ITER       Energy         Delta-E        Max-DP      RMS-DP      [F,P]     Damp
               ***  Starting incremental Fock matrix formation  ***
  0   -307.3871419259   0.000000000000 0.15409965  0.00632418  0.4746102 0.7000
  1   -307.6904389066  -0.303296980679 0.08830495  0.00365793  0.2804743 0.7000
                               ***Turning on DIIS***
  2   -307.8545315514  -0.164092644790 0.04372862  0.00197462  0.1976627 0.7000
  3   -307.9664645177  -0.111932966377 0.02386523  0.00119130  0.1389487 0.7000
  4   -308.0459204400  -0.079455922307 0.05485859  0.00294306  0.0972623 0.0000
  5   -308.2364398801  -0.190519440068 0.00892205  0.00030723  0.0095116 0.0000
  6   -308.2366342305  -0.000194350417 0.00250507  0.00008786  0.0050650 0.0000
                      *** Initiating the SOSCF procedure ***
                           *** Shutting down DIIS ***
                      *** Re-Reading the Fockian *** 
                      *** Removing any level shift *** 
ITER      Energy       Delta-E        Grad      Rot      Max-DP    RMS-DP
  7   -308.23670548  -0.0000712534  0.000379  0.000379  0.001557  0.000062
               *** Restarting incremental Fock matrix formation ***
  8   -308.23672264  -0.0000171592  0.000050  0.000098  0.000212  0.000009
  9   -308.23672278  -0.0000001330  0.000030  0.000031  0.000082  0.000004
 10   -308.23672283  -0.0000000585  0.000006  0.000004  0.000019  0.000001
 11   -308.23672283  -0.0000000001  0.000006  0.000002  0.000010  0.000000
                 **** Energy Check signals convergence ****
              ***Rediagonalizing the Fockian in SOSCF/NRSCF***

               *****************************************************
               *                     SUCCESS                       *
               *           SCF CONVERGED AFTER  12 CYCLES          *
               *****************************************************

Old exchange energy                            =    -17.133280316 Eh
New exchange energy                            =    -17.133281761 Eh
Exchange energy change after final integration =     -0.000001445 Eh
Total energy after final integration           =   -308.236724279 Eh
Final COS-X integration done in                =     3.168 sec

----------------
TOTAL SCF ENERGY
----------------

Total Energy       :         -308.23672428 Eh           -8387.54768 eV

Components:
Nuclear Repulsion  :          253.55168508 Eh            6899.49211 eV
Electronic Energy  :         -561.78840936 Eh          -15287.03980 eV
One Electron Energy:         -922.00475362 Eh          -25089.02485 eV
Two Electron Energy:          360.21634426 Eh            9801.98505 eV
Max COSX asymmetry :            0.00000250 Eh               0.00007 eV

Virial components:
Potential Energy   :         -614.26699692 Eh          -16715.05476 eV
Kinetic Energy     :          306.03027265 Eh            8327.50708 eV
Virial Ratio       :            2.00720991


DFT components:
N(Alpha)           :       24.999988404524 electrons
N(Beta)            :       24.999988404524 electrons
N(Total)           :       49.999976809049 electrons
E(X)               :      -22.763679456786 Eh       
E(C)               :       -2.177688717673 Eh       
E(XC)              :      -24.941368174458 Eh       
DFET-embed. en.    :        0.000000000000 Eh       

---------------
SCF CONVERGENCE
---------------

  Last Energy change         ...    5.9742e-10  Tolerance :   1.0000e-08
  Last MAX-Density change    ...    2.8866e-15  Tolerance :   1.0000e-07
  Last RMS-Density change    ...    6.1011e-17  Tolerance :   5.0000e-09
  Last Orbital Gradient      ...    6.3632e-07  Tolerance :   1.0000e-05
  Last Orbital Rotation      ...    6.1086e-07  Tolerance :   1.0000e-05

             **** THE GBW FILE WAS UPDATED (pbeh-3c.gbw) ****
             **** DENSITY pbeh-3c.scfp WAS UPDATED ****
             **** ENERGY FILE WAS UPDATED (pbeh-3c.en.tmp) ****
             **** THE GBW FILE WAS UPDATED (pbeh-3c.gbw) ****
             **** DENSITY pbeh-3c.scfp WAS UPDATED ****
----------------
ORBITAL ENERGIES
----------------

  NO   OCC          E(Eh)            E(eV) 
   0   2.0000     -19.489411      -530.3338 
   1   2.0000     -19.485993      -530.2408 
   2   2.0000     -10.486640      -285.3560 
   3   2.0000     -10.482928      -285.2550 
   4   2.0000     -10.442079      -284.1434 
   5   2.0000     -10.439838      -284.0824 
   6   2.0000      -1.126430       -30.6517 
   7   2.0000      -1.122353       -30.5408 
   8   2.0000      -0.888589       -24.1797 
   9   2.0000      -0.798057       -21.7162 
  10   2.0000      -0.725309       -19.7367 
  11   2.0000      -0.657673       -17.8962 
  12   2.0000      -0.579590       -15.7715 
  13   2.0000      -0.574787       -15.6407 
  14   2.0000      -0.530497       -14.4356 
  15   2.0000      -0.501721       -13.6525 
  16   2.0000      -0.493113       -13.4183 
  17   2.0000      -0.477494       -12.9933 
  18   2.0000      -0.442546       -12.0423 
  19   2.0000      -0.421921       -11.4811 
  20   2.0000      -0.403522       -10.9804 
  21   2.0000      -0.386281       -10.5112 
  22   2.0000      -0.370891       -10.0925 
  23   2.0000      -0.330637        -8.9971 
  24   2.0000      -0.323311        -8.7977 
  25   0.0000       0.100297         2.7292 
  26   0.0000       0.127750         3.4763 
  27   0.0000       0.155047         4.2190 
  28   0.0000       0.169486         4.6119 
  29   0.0000       0.192893         5.2489 
  30   0.0000       0.201731         5.4894 
  31   0.0000       0.211231         5.7479 
  32   0.0000       0.222973         6.0674 
  33   0.0000       0.230198         6.2640 
  34   0.0000       0.244420         6.6510 
  35   0.0000       0.260460         7.0875 
  36   0.0000       0.264934         7.2092 
  37   0.0000       0.274010         7.4562 
  38   0.0000       0.302481         8.2309 
  39   0.0000       0.307102         8.3567 
  40   0.0000       0.507029        13.7970 
  41   0.0000       0.514475        13.9996 
  42   0.0000       0.556664        15.1476 
  43   0.0000       0.562754        15.3133 
  44   0.0000       0.573737        15.6122 
  45   0.0000       0.579538        15.7700 
  46   0.0000       0.632331        17.2066 
  47   0.0000       0.648766        17.6538 
  48   0.0000       0.665372        18.1057 
  49   0.0000       0.708143        19.2696 
  50   0.0000       0.743888        20.2422 
  51   0.0000       0.843480        22.9523 
  52   0.0000       0.900713        24.5097 
  53   0.0000       0.915975        24.9249 
  54   0.0000       0.947850        25.7923 
  55   0.0000       0.980891        26.6914 
  56   0.0000       0.991826        26.9890 
  57   0.0000       1.010004        27.4836 
  58   0.0000       1.014189        27.5975 
  59   0.0000       1.045918        28.4609 
  60   0.0000       1.052264        28.6336 
  61   0.0000       1.067598        29.0508 
  62   0.0000       1.081496        29.4290 
  63   0.0000       1.123206        30.5640 
  64   0.0000       1.150176        31.2979 
  65   0.0000       1.196467        32.5575 
  66   0.0000       1.224241        33.3133 
  67   0.0000       1.226012        33.3615 
  68   0.0000       1.266921        34.4747 
  69   0.0000       1.308766        35.6133 
  70   0.0000       1.420549        38.6551 
  71   0.0000       1.482064        40.3290 
  72   0.0000       1.516923        41.2776 
  73   0.0000       1.545831        42.0642 
  74   0.0000       1.592822        43.3429 
  75   0.0000       1.630488        44.3678 
  76   0.0000       1.747236        47.5447 
  77   0.0000       1.793314        48.7986 
  78   0.0000       1.826278        49.6956 
  79   0.0000       1.877623        51.0927 
  80   0.0000       1.908390        51.9299 
  81   0.0000       1.913798        52.0771 
  82   0.0000       1.958022        53.2805 
  83   0.0000       1.975491        53.7559 
  84   0.0000       2.024222        55.0819 
  85   0.0000       2.029339        55.2211 
  86   0.0000       2.101788        57.1926 
  87   0.0000       2.163638        58.8756 
  88   0.0000       2.190196        59.5983 
  89   0.0000       2.244581        61.0782 
  90   0.0000       2.308598        62.8201 
  91   0.0000       2.329555        63.3904 
  92   0.0000       2.378066        64.7105 
  93   0.0000       2.431119        66.1541 
  94   0.0000       2.448888        66.6376 
  95   0.0000       2.522177        68.6319 
  96   0.0000       2.540725        69.1366 
  97   0.0000       2.600667        70.7678 
  98   0.0000       2.608553        70.9823 
  99   0.0000       2.648543        72.0705 
 100   0.0000       2.747933        74.7751 
 101   0.0000       2.799759        76.1853 
 102   0.0000       2.898961        78.8847 
 103   0.0000       2.937380        79.9302 
 104   0.0000      13.568393       369.2147 
 105   0.0000      13.805452       375.6655 
 106   0.0000      13.992300       380.7498 
 107   0.0000      14.031278       381.8105 
 108   0.0000      25.508861       694.1314 
 109   0.0000      25.553746       695.3528 

                    ********************************
                    * MULLIKEN POPULATION ANALYSIS *
                    ********************************

-----------------------
MULLIKEN ATOMIC CHARGES
-----------------------
   0 C :   -0.133795
   1 H :    0.201573
   2 O :   -0.621124
   3 C :   -0.488762
   4 H :    0.213353
   5 H :    0.220258
   6 C :   -0.450784
   7 H :    0.236089
   8 H :    0.204055
   9 H :    0.409112
  10 H :    0.180065
  11 C :   -0.165369
  12 H :    0.181307
  13 H :    0.222873
  14 O :   -0.624829
  15 H :    0.415978
Sum of atomic charges:    0.0000000

--------------------------------
MULLIKEN REDUCED ORBITAL CHARGES
--------------------------------
  0 C s       :     3.245832  s :     3.245832
      pz      :     0.964313  p :     2.819354
      px      :     0.789216
      py      :     1.065825
      dz2     :     0.007733  d :     0.068609
      dxz     :     0.015586
      dyz     :     0.017576
      dx2y2   :     0.012718
      dxy     :     0.014995
  1 H s       :     0.798427  s :     0.798427
  2 O s       :     3.814521  s :     3.814521
      pz      :     1.748981  p :     4.777113
      px      :     1.432518
      py      :     1.595614
      dz2     :     0.003084  d :     0.029491
      dxz     :     0.003379
      dyz     :     0.006966
      dx2y2   :     0.005525
      dxy     :     0.010537
  3 C s       :     3.334152  s :     3.334152
      pz      :     1.027221  p :     3.111935
      px      :     0.979756
      py      :     1.104959
      dz2     :     0.003867  d :     0.042674
      dxz     :     0.009615
      dyz     :     0.013628
      dx2y2   :     0.006318
      dxy     :     0.009247
  4 H s       :     0.786647  s :     0.786647
  5 H s       :     0.779742  s :     0.779742
  6 C s       :     3.329922  s :     3.329922
      pz      :     1.103047  p :     3.078412
      px      :     0.960255
      py      :     1.015110
      dz2     :     0.004025  d :     0.042451
      dxz     :     0.009322
      dyz     :     0.013198
      dx2y2   :     0.006938
      dxy     :     0.008967
  7 H s       :     0.763911  s :     0.763911
  8 H s       :     0.795945  s :     0.795945
  9 H s       :     0.590888  s :     0.590888
 10 H s       :     0.819935  s :     0.819935
 11 C s       :     3.261855  s :     3.261855
      pz      :     0.897625  p :     2.835010
      px      :     1.070894
      py      :     0.866491
      dz2     :     0.013546  d :     0.068504
      dxz     :     0.011705
      dyz     :     0.017994
      dx2y2   :     0.009403
      dxy     :     0.015856
 12 H s       :     0.818693  s :     0.818693
 13 H s       :     0.777127  s :     0.777127
 14 O s       :     3.815837  s :     3.815837
      pz      :     1.685677  p :     4.779713
      px      :     1.587647
      py      :     1.506389
      dz2     :     0.005345  d :     0.029279
      dxz     :     0.004791
      dyz     :     0.004305
      dx2y2   :     0.004267
      dxy     :     0.010570
 15 H s       :     0.584022  s :     0.584022


                     *******************************
                     * LOEWDIN POPULATION ANALYSIS *
                     *******************************

----------------------
LOEWDIN ATOMIC CHARGES
----------------------
   0 C :   -0.097455
   1 H :    0.114432
   2 O :   -0.409499
   3 C :   -0.273826
   4 H :    0.123666
   5 H :    0.125174
   6 C :   -0.265183
   7 H :    0.134499
   8 H :    0.124624
   9 H :    0.306286
  10 H :    0.098176
  11 C :   -0.095486
  12 H :    0.096857
  13 H :    0.123103
  14 O :   -0.412303
  15 H :    0.306935

-------------------------------
LOEWDIN REDUCED ORBITAL CHARGES
-------------------------------
  0 C s       :     2.908004  s :     2.908004
      pz      :     1.055089  p :     3.044969
      px      :     0.900630
      py      :     1.089250
      dz2     :     0.016041  d :     0.144482
      dxz     :     0.035866
      dyz     :     0.034909
      dx2y2   :     0.026242
      dxy     :     0.031424
  1 H s       :     0.885568  s :     0.885568
  2 O s       :     3.528653  s :     3.528653
      pz      :     1.757432  p :     4.829646
      px      :     1.458424
      py      :     1.613790
      dz2     :     0.005056  d :     0.051200
      dxz     :     0.007727
      dyz     :     0.010289
      dx2y2   :     0.009823
      dxy     :     0.018305
  3 C s       :     2.920481  s :     2.920481
      pz      :     1.094432  p :     3.265727
      px      :     1.066131
      py      :     1.105164
      dz2     :     0.008358  d :     0.087617
      dxz     :     0.021888
      dyz     :     0.025423
      dx2y2   :     0.013379
      dxy     :     0.018571
  4 H s       :     0.876334  s :     0.876334
  5 H s       :     0.874826  s :     0.874826
  6 C s       :     2.920550  s :     2.920550
      pz      :     1.108891  p :     3.257465
      px      :     1.062557
      py      :     1.086018
      dz2     :     0.008004  d :     0.087168
      dxz     :     0.018800
      dyz     :     0.024603
      dx2y2   :     0.015355
      dxy     :     0.020406
  7 H s       :     0.865501  s :     0.865501
  8 H s       :     0.875376  s :     0.875376
  9 H s       :     0.693714  s :     0.693714
 10 H s       :     0.901824  s :     0.901824
 11 C s       :     2.908320  s :     2.908320
      pz      :     0.983138  p :     3.042620
      px      :     1.094467
      py      :     0.965014
      dz2     :     0.028687  d :     0.144547
      dxz     :     0.023621
      dyz     :     0.039127
      dx2y2   :     0.018741
      dxy     :     0.034371
 12 H s       :     0.903143  s :     0.903143
 13 H s       :     0.876897  s :     0.876897
 14 O s       :     3.528803  s :     3.528803
      pz      :     1.711851  p :     4.832461
      px      :     1.596520
      py      :     1.524091
      dz2     :     0.009242  d :     0.051039
      dxz     :     0.008148
      dyz     :     0.009116
      dx2y2   :     0.007144
      dxy     :     0.017389
 15 H s       :     0.693065  s :     0.693065


                      *****************************
                      * MAYER POPULATION ANALYSIS *
                      *****************************

  NA   - Mulliken gross atomic population
  ZA   - Total nuclear charge
  QA   - Mulliken gross atomic charge
  VA   - Mayer's total valence
  BVA  - Mayer's bonded valence
  FA   - Mayer's free valence

  ATOM       NA         ZA         QA         VA         BVA        FA
  0 C      6.1338     6.0000    -0.1338     3.7794     3.7794     0.0000
  1 H      0.7984     1.0000     0.2016     0.9122     0.9122     0.0000
  2 O      8.6211     8.0000    -0.6211     1.8645     1.8645    -0.0000
  3 C      6.4888     6.0000    -0.4888     3.7457     3.7457     0.0000
  4 H      0.7866     1.0000     0.2134     0.9129     0.9129     0.0000
  5 H      0.7797     1.0000     0.2203     0.9109     0.9109     0.0000
  6 C      6.4508     6.0000    -0.4508     3.7003     3.7003     0.0000
  7 H      0.7639     1.0000     0.2361     0.9012     0.9012    -0.0000
  8 H      0.7959     1.0000     0.2041     0.9104     0.9104     0.0000
  9 H      0.5909     1.0000     0.4091     0.8071     0.8071     0.0000
 10 H      0.8199     1.0000     0.1801     0.9075     0.9075    -0.0000
 11 C      6.1654     6.0000    -0.1654     3.7779     3.7779    -0.0000
 12 H      0.8187     1.0000     0.1813     0.9078     0.9078    -0.0000
 13 H      0.7771     1.0000     0.2229     0.9055     0.9055    -0.0000
 14 O      8.6248     8.0000    -0.6248     1.8533     1.8533     0.0000
 15 H      0.5840     1.0000     0.4160     0.8024     0.8024     0.0000

  Mayer bond orders larger than 0.100000
B(  0-C ,  1-H ) :   0.9139 B(  0-C ,  2-O ) :   1.0205 B(  0-C ,  3-C ) :   0.9733 
B(  0-C , 10-H ) :   0.9081 B(  2-O ,  9-H ) :   0.7942 B(  3-C ,  4-H ) :   0.9234 
B(  3-C ,  5-H ) :   0.9072 B(  3-C ,  6-C ) :   0.9689 B(  6-C ,  7-H ) :   0.9133 
B(  6-C ,  8-H ) :   0.9101 B(  6-C , 11-C ) :   0.9598 B( 11-C , 12-H ) :   0.9116 
B( 11-C , 13-H ) :   0.9178 B( 11-C , 14-O ) :   1.0204 B( 14-O , 15-H ) :   0.7886 


-------
TIMINGS
-------

Total SCF time: 0 days 0 hours 1 min 27 sec 

Total time                  ....      87.736 sec
Sum of individual times     ....      79.219 sec  ( 90.3%)

Fock matrix formation       ....      66.271 sec  ( 75.5%)
  Split-RI-J                ....       6.553 sec  (  9.9% of F)
  Chain of spheres X        ....      21.040 sec  ( 31.7% of F)
  XC integration            ....      21.589 sec  ( 32.6% of F)
    Basis function eval.    ....       3.098 sec  ( 14.3% of XC)
    Density eval.           ....       1.823 sec  (  8.4% of XC)
    XC-Functional eval.     ....       1.522 sec  (  7.1% of XC)
    XC-Potential eval.      ....       0.901 sec  (  4.2% of XC)
Diagonalization             ....       1.509 sec  (  1.7%)
Density matrix formation    ....       0.077 sec  (  0.1%)
Population analysis         ....       0.668 sec  (  0.8%)
Initial guess               ....       0.008 sec  (  0.0%)
Orbital Transformation      ....       0.000 sec  (  0.0%)
Orbital Orthonormalization  ....       0.000 sec  (  0.0%)
DIIS solution               ....       2.293 sec  (  2.6%)
SOSCF solution              ....       1.620 sec  (  1.8%)
Grid generation             ....       6.773 sec  (  7.7%)

Maximum memory used throughout the entire SCF-calculation: 52.8 MB


-------------------------------------------------------------------------------
                          DFT DISPERSION CORRECTION                            
                                                                               
                              DFTD3 V3.1  Rev 1                                
                          USING Becke-Johnson damping                          
-------------------------------------------------------------------------------
The PBEh-3c composite method is recognized
Using three-body term ABC
Active option DFTDOPT                   ...         4   

molecular C6(AA) [au] = 1675.088887 


            DFT-D V3
 parameters
 s6 scaling factor         :     1.0000 
 a1 scaling factor         :     0.4860 
 s8 scaling factor         :     0.0000 
 a2 scaling factor         :     4.5000 
 Damping factor alpha9(ATM):    16.0000 
 ad hoc parameters k1-k3   :    16.0000     1.3333    -4.0000 

 Edisp/kcal,au: -4.243687768740  -0.006762746208 
 E6   /kcal   :  -4.269112730 
 E8   /kcal   :  -0.000000000 
 E6(ABC)      :   0.025424962 
 % E8         :   0.000000000 
 % E6(ABC)    :  -0.599124230 

-------------------------   ----------------
Dispersion correction           -0.006762746
-------------------------   ----------------

------------------   -----------------
gCP correction             0.037294874
------------------   -----------------

-------------------------   --------------------
FINAL SINGLE POINT ENERGY      -308.206192151357
-------------------------   --------------------


                            ***************************************
                            *     ORCA property calculations      *
                            ***************************************

                                    ---------------------
                                    Active property flags
                                    ---------------------
   (+) Dipole Moment


------------------------------------------------------------------------------
                       ORCA ELECTRIC PROPERTIES CALCULATION
------------------------------------------------------------------------------

Dipole Moment Calculation                       ... on
Quadrupole Moment Calculation                   ... off
Polarizability Calculation                      ... off
GBWName                                         ... pbeh-3c.gbw
Electron density                                ... pbeh-3c.scfp
The origin for moment calculation is the CENTER OF MASS  = ( 0.005640, -0.062380 -0.018672)

-------------
DIPOLE MOMENT
-------------
                                X             Y             Z
Electronic contribution:      0.68604      -2.36056      -0.82728
Nuclear contribution   :     -0.28203       3.11900       0.93360
                        -----------------------------------------
Total Dipole Moment    :      0.40401       0.75844       0.10632
                        -----------------------------------------
Magnitude (a.u.)       :      0.86589
Magnitude (Debye)      :      2.20091



--------------------
Rotational spectrum 
--------------------
 
Rotational constants in cm-1:     0.229260     0.055731     0.051164 
Rotational constants in MHz :  6873.051210  1670.763355  1533.860802 

 Dipole components along the rotational axes: 
x,y,z [a.u.] :     0.405094    -0.760620     0.084341 
x,y,z [Debye]:     1.029668    -1.933343     0.214377 

 

Timings for individual modules:

Sum of individual times         ...       91.377 sec (=   1.523 min)
GTO integral calculation        ...        2.450 sec (=   0.041 min)   2.7 %
SCF iterations                  ...       88.927 sec (=   1.482 min)  97.3 %
                             ****ORCA TERMINATED NORMALLY****
TOTAL RUN TIME: 0 days 0 hours 1 minutes 38 seconds 228 msec
