
                                 *****************
                                 * O   R   C   A *
                                 *****************

                                            #,                                       
                                            ###                                      
                                            ####                                     
                                            #####                                    
                                            ######                                   
                                           ########,                                 
                                     ,,################,,,,,                         
                               ,,#################################,,                 
                          ,,##########################################,,             
                       ,#########################################, ''#####,          
                    ,#############################################,,   '####,        
                  ,##################################################,,,,####,       
                ,###########''''           ''''###############################       
              ,#####''   ,,,,##########,,,,          '''####'''          '####       
            ,##' ,,,,###########################,,,                        '##       
           ' ,,###''''                  '''############,,,                           
         ,,##''                                '''############,,,,        ,,,,,,###''
      ,#''                                            '''#######################'''  
     '                                                          ''''####''''         
             ,#######,   #######,   ,#######,      ##                                
            ,#'     '#,  ##    ##  ,#'     '#,    #''#        ######   ,####,        
            ##       ##  ##   ,#'  ##            #'  '#       #        #'  '#        
            ##       ##  #######   ##           ,######,      #####,   #    #        
            '#,     ,#'  ##    ##  '#,     ,#' ,#      #,         ##   #,  ,#        
             '#######'   ##     ##  '#######'  #'      '#     #####' # '####'        



                  #######################################################
                  #                        -***-                        #
                  #          Department of theory and spectroscopy      #
                  #    Directorship and core code : Frank Neese         #
                  #        Max Planck Institute fuer Kohlenforschung    #
                  #                Kaiser Wilhelm Platz 1               #
                  #                 D-45470 Muelheim/Ruhr               #
                  #                      Germany                        #
                  #                                                     #
                  #                  All rights reserved                #
                  #                        -***-                        #
                  #######################################################


                         Program Version 5.0.3 -  RELEASE  -


 With contributions from (in alphabetic order):
   Daniel Aravena         : Magnetic Suceptibility
   Michael Atanasov       : Ab Initio Ligand Field Theory (pilot matlab implementation)
   Alexander A. Auer      : GIAO ZORA, VPT2 properties, NMR spectrum
   Ute Becker             : Parallelization
   Giovanni Bistoni       : ED, misc. LED, open-shell LED, HFLD
   Martin Brehm           : Molecular dynamics
   Dmytro Bykov           : SCF Hessian
   Vijay G. Chilkuri      : MRCI spin determinant printing, contributions to CSF-ICE
   Dipayan Datta          : RHF DLPNO-CCSD density
   Achintya Kumar Dutta   : EOM-CC, STEOM-CC
   Dmitry Ganyushin       : Spin-Orbit,Spin-Spin,Magnetic field MRCI
   Miquel Garcia          : C-PCM and meta-GGA Hessian, CC/C-PCM, Gaussian charge scheme
   Yang Guo               : DLPNO-NEVPT2, F12-NEVPT2, CIM, IAO-localization
   Andreas Hansen         : Spin unrestricted coupled pair/coupled cluster methods
   Benjamin Helmich-Paris : MC-RPA, TRAH-SCF, COSX integrals
   Lee Huntington         : MR-EOM, pCC
   Robert Izsak           : Overlap fitted RIJCOSX, COSX-SCS-MP3, EOM
   Marcus Kettner         : VPT2
   Christian Kollmar      : KDIIS, OOCD, Brueckner-CCSD(T), CCSD density, CASPT2, CASPT2-K
   Simone Kossmann        : Meta GGA functionals, TD-DFT gradient, OOMP2, MP2 Hessian
   Martin Krupicka        : Initial AUTO-CI
   Lucas Lang             : DCDCAS
   Marvin Lechner         : AUTO-CI (C++ implementation), FIC-MRCC
   Dagmar Lenk            : GEPOL surface, SMD
   Dimitrios Liakos       : Extrapolation schemes; Compound Job, initial MDCI parallelization
   Dimitrios Manganas     : Further ROCIS development; embedding schemes
   Dimitrios Pantazis     : SARC Basis sets
   Anastasios Papadopoulos: AUTO-CI, single reference methods and gradients
   Taras Petrenko         : DFT Hessian,TD-DFT gradient, ASA, ECA, R-Raman, ABS, FL, XAS/XES, NRVS
   Peter Pinski           : DLPNO-MP2, DLPNO-MP2 Gradient
   Christoph Reimann      : Effective Core Potentials
   Marius Retegan         : Local ZFS, SOC
   Christoph Riplinger    : Optimizer, TS searches, QM/MM, DLPNO-CCSD(T), (RO)-DLPNO pert. Triples
   Tobias Risthaus        : Range-separated hybrids, TD-DFT gradient, RPA, STAB
   Michael Roemelt        : Original ROCIS implementation
   Masaaki Saitow         : Open-shell DLPNO-CCSD energy and density
   Barbara Sandhoefer     : DKH picture change effects
   Avijit Sen             : IP-ROCIS
   Kantharuban Sivalingam : CASSCF convergence, NEVPT2, FIC-MRCI
   Bernardo de Souza      : ESD, SOC TD-DFT
   Georgi Stoychev        : AutoAux, RI-MP2 NMR, DLPNO-MP2 response
   Willem Van den Heuvel  : Paramagnetic NMR
   Boris Wezisla          : Elementary symmetry handling
   Frank Wennmohs         : Technical directorship


 We gratefully acknowledge several colleagues who have allowed us to
 interface, adapt or use parts of their codes:
   Stefan Grimme, W. Hujo, H. Kruse, P. Pracht,  : VdW corrections, initial TS optimization,
                  C. Bannwarth, S. Ehlert          DFT functionals, gCP, sTDA/sTD-DF
   Ed Valeev, F. Pavosevic, A. Kumar             : LibInt (2-el integral package), F12 methods
   Garnet Chan, S. Sharma, J. Yang, R. Olivares  : DMRG
   Ulf Ekstrom                                   : XCFun DFT Library
   Mihaly Kallay                                 : mrcc  (arbitrary order and MRCC methods)
   Jiri Pittner, Ondrej Demel                    : Mk-CCSD
   Frank Weinhold                                : gennbo (NPA and NBO analysis)
   Christopher J. Cramer and Donald G. Truhlar   : smd solvation model
   Lars Goerigk                                  : TD-DFT with DH, B97 family of functionals
   V. Asgeirsson, H. Jonsson                     : NEB implementation
   FAccTs GmbH                                   : IRC, NEB, NEB-TS, DLPNO-Multilevel, CI-OPT
                                                   MM, QMMM, 2- and 3-layer-ONIOM, Crystal-QMMM,
                                                   LR-CPCM, SF, NACMEs, symmetry and pop. for TD-DFT,
                                                   nearIR, NL-DFT gradient (VV10), updates on ESD,
                                                   ML-optimized integration grids
   S Lehtola, MJT Oliveira, MAL Marques          : LibXC Library
   Liviu Ungur et al                             : ANISO software


 Your calculation uses the libint2 library for the computation of 2-el integrals
 For citations please refer to: http://libint.valeyev.net

 Your ORCA version has been built with support for libXC version: 5.1.0
 For citations please refer to: https://tddft.org/programs/libxc/

 This ORCA versions uses:
   CBLAS   interface :  Fast vector & matrix operations
   LAPACKE interface :  Fast linear algebra routines
   SCALAPACK package :  Parallel linear algebra routines
   Shared memory     :  Shared parallel matrices
   BLAS/LAPACK       :  OpenBLAS 0.3.15  USE64BITINT DYNAMIC_ARCH NO_AFFINITY Haswell SINGLE_THREADED
        Core in use  :  Haswell
   Copyright (c) 2011-2014, The OpenBLAS Project




***************************************
The coordinates will be read from file: nh3_4_ts.xyz
***************************************


Your calculation utilizes the geometrical counterpoise correction gCP
Please cite in your paper:
H.Kruse, S. Grimme J.Chem.Phys., 136, (2012), 154101 
   

Your calculation utilizes the atom-pairwise dispersion correction
with the Becke-Johnson damping scheme (D3BJ)
Cite in your paper:
S.Grimme, S.Ehrlich, L.Goerigk, J Comput Chem, (2011), 32, 1456–1465 
S.Grimme, J.Antony, S.Ehrlich and H.Krieg, J.Chem.Phys., 132, (2010), 154104 
   

Your calculation employs the composite approach PBEh-3c.
Please cite in your paper:
S. Grimme, J. G. Brandenburg, C. Bannwarth, A. Hansen J.Chem.Phys., 143, (2015), 054107 
   

================================================================================

----- Orbital basis set information -----
Your calculation utilizes the basis: def2-mSVP

----- AuxJ basis set information -----
Your calculation utilizes the auxiliary basis: def2/J
   F. Weigend, Phys. Chem. Chem. Phys. 8, 1057 (2006).

================================================================================
                                        WARNINGS
                       Please study these warnings very carefully!
================================================================================


INFO   : the flag for use of the SHARK integral package has been found!

================================================================================
                                       INPUT FILE
================================================================================
NAME = pbeh-3c.inp
|  1> ! PBEh-3c def2/J TightSCF DefGrid3
|  2> 
|  3> %maxcore 60000
|  4> 
|  5> %pal
|  6> nprocs 4
|  7> end
|  8> 
|  9> *xyzfile 0 1 nh3_4_ts.xyz
| 10> 
| 11>                          ****END OF INPUT****
================================================================================

                       ****************************
                       * Single Point Calculation *
                       ****************************

---------------------------------
CARTESIAN COORDINATES (ANGSTROEM)
---------------------------------
  H      1.424320    0.315746    0.000000
  H      0.446026   -1.447322    0.000000
  H     -1.508748    0.121957    0.000000
  H      0.000000    1.458660    0.000000
  H      1.507411    1.878060    0.821411
  H      1.964125   -1.661433   -0.812887
  H     -1.557872   -1.938180    0.802236
  H     -2.045777    1.558489   -0.812895
  N      1.134596    1.413387    0.000000
  N     -1.163704   -1.448618    0.000000
  N      1.542580   -1.223744    0.000000
  N     -1.527382    1.241416    0.000000
  H     -2.045777    1.558489    0.812895
  H     -1.557872   -1.938180   -0.802236
  H      1.964125   -1.661433    0.812887
  H      1.507411    1.878060   -0.821411

----------------------------
CARTESIAN COORDINATES (A.U.)
----------------------------
  NO LB      ZA    FRAG     MASS         X           Y           Z
   0 H     1.0000    0     1.008    2.691575    0.596673    0.000000
   1 H     1.0000    0     1.008    0.842867   -2.735042    0.000000
   2 H     1.0000    0     1.008   -2.851120    0.230465    0.000000
   3 H     1.0000    0     1.008    0.000000    2.756468    0.000000
   4 H     1.0000    0     1.008    2.848594    3.549019    1.552242
   5 H     1.0000    0     1.008    3.711658   -3.139653   -1.536134
   6 H     1.0000    0     1.008   -2.943951   -3.662629    1.516006
   7 H     1.0000    0     1.008   -3.865958    2.945117   -1.536149
   8 N     7.0000    0    14.007    2.144076    2.670914    0.000000
   9 N     7.0000    0    14.007   -2.199082   -2.737491    0.000000
  10 N     7.0000    0    14.007    2.915054   -2.312541    0.000000
  11 N     7.0000    0    14.007   -2.886333    2.345936    0.000000
  12 H     1.0000    0     1.008   -3.865958    2.945117    1.536149
  13 H     1.0000    0     1.008   -2.943951   -3.662629   -1.516006
  14 H     1.0000    0     1.008    3.711658   -3.139653    1.536134
  15 H     1.0000    0     1.008    2.848594    3.549019   -1.552242

--------------------------------
INTERNAL COORDINATES (ANGSTROEM)
--------------------------------
 H      0   0   0     0.000000000000     0.00000000     0.00000000
 H      1   0   0     2.016300417792     0.00000000     0.00000000
 H      2   1   0     2.506746350572    80.26783256     0.00000000
 H      1   2   3     1.826181633997    99.71943978     0.00000000
 H      1   2   3     1.767044058040   142.74160540    50.15910354
 H      2   1   3     1.735296200276    71.54412675   150.40657067
 H      3   2   1     2.211370537329    55.53613915   206.10427173
 H      3   2   1     1.735748301167   139.40887827    46.03578148
 N      5   1   2     1.014705813422    37.01692444   261.03275162
 N      7   3   2     1.019127962190    42.12494874   319.51090300
 N      6   2   1     1.014917218268    37.64903248    42.64055654
 N      8   3   2     1.014922057007    37.65645143   268.94686867
 H     12   8   3     1.014922057007   106.44052811   243.05121539
 H     10   7   3     1.019127962190   103.84527935   237.69744006
 H     11   6   2     1.014917218268   106.43975034   116.94334453
 H      9   5   1     1.014705813422   108.09547633   239.10290689

---------------------------
INTERNAL COORDINATES (A.U.)
---------------------------
 H      0   0   0     0.000000000000     0.00000000     0.00000000
 H      1   0   0     3.810255593338     0.00000000     0.00000000
 H      2   1   0     4.737064089788    80.26783256     0.00000000
 H      1   2   3     3.450983159052    99.71943978     0.00000000
 H      1   2   3     3.339229336268   142.74160540    50.15910354
 H      2   1   3     3.279234579757    71.54412675   150.40657067
 H      3   2   1     4.178884696174    55.53613915   206.10427173
 H      3   2   1     3.280088926625   139.40887827    46.03578148
 N      5   1   2     1.917516093866    37.01692444   261.03275162
 N      7   3   2     1.925872743960    42.12494874   319.51090300
 N      6   2   1     1.917915591128    37.64903248    42.64055654
 N      8   3   2     1.917924735020    37.65645143   268.94686867
 H     12   8   3     1.917924735020   106.44052811   243.05121539
 H     10   7   3     1.925872743960   103.84527935   237.69744006
 H     11   6   2     1.917915591128   106.43975034   116.94334453
 H      9   5   1     1.917516093866   108.09547633   239.10290689

---------------------
BASIS SET INFORMATION
---------------------
There are 2 groups of distinct atoms

 Group   1 Type H   : 4s contracted to 2s pattern {31}
 Group   2 Type N   : 8s4p1d contracted to 4s2p1d pattern {5111/31/1}

Atom   0H    basis set group =>   1
Atom   1H    basis set group =>   1
Atom   2H    basis set group =>   1
Atom   3H    basis set group =>   1
Atom   4H    basis set group =>   1
Atom   5H    basis set group =>   1
Atom   6H    basis set group =>   1
Atom   7H    basis set group =>   1
Atom   8N    basis set group =>   2
Atom   9N    basis set group =>   2
Atom  10N    basis set group =>   2
Atom  11N    basis set group =>   2
Atom  12H    basis set group =>   1
Atom  13H    basis set group =>   1
Atom  14H    basis set group =>   1
Atom  15H    basis set group =>   1
---------------------------------
AUXILIARY/J BASIS SET INFORMATION
---------------------------------
There are 2 groups of distinct atoms

 Group   1 Type H   : 5s2p1d contracted to 3s1p1d pattern {311/2/1}
 Group   2 Type N   : 12s5p4d2f1g contracted to 6s4p3d1f1g pattern {711111/2111/211/2/1}

Atom   0H    basis set group =>   1
Atom   1H    basis set group =>   1
Atom   2H    basis set group =>   1
Atom   3H    basis set group =>   1
Atom   4H    basis set group =>   1
Atom   5H    basis set group =>   1
Atom   6H    basis set group =>   1
Atom   7H    basis set group =>   1
Atom   8N    basis set group =>   2
Atom   9N    basis set group =>   2
Atom  10N    basis set group =>   2
Atom  11N    basis set group =>   2
Atom  12H    basis set group =>   1
Atom  13H    basis set group =>   1
Atom  14H    basis set group =>   1
Atom  15H    basis set group =>   1


           ************************************************************
           *        Program running with 4 parallel MPI-processes     *
           *              working on a common directory               *
           ************************************************************
------------------------------------------------------------------------------
                           ORCA GTO INTEGRAL CALCULATION
                           -- RI-GTO INTEGRALS CHOSEN --
------------------------------------------------------------------------------
------------------------------------------------------------------------------
                   ___                                                        
                  /   \      - P O W E R E D   B Y -                         
                 /     \                                                     
                 |  |  |   _    _      __       _____    __    __             
                 |  |  |  | |  | |    /  \     |  _  \  |  |  /  |          
                  \  \/   | |  | |   /    \    | | | |  |  | /  /          
                 / \  \   | |__| |  /  /\  \   | |_| |  |  |/  /          
                |  |  |   |  __  | /  /__\  \  |    /   |      \           
                |  |  |   | |  | | |   __   |  |    \   |  |\   \          
                \     /   | |  | | |  |  |  |  | |\  \  |  | \   \       
                 \___/    |_|  |_| |__|  |__|  |_| \__\ |__|  \__/        
                                                                              
                      - O R C A' S   B I G   F R I E N D -                    
                                      &                                       
                       - I N T E G R A L  F E E D E R -                       
                                                                              
 v1 FN, 2020, v2 2021                                                         
------------------------------------------------------------------------------


Reading SHARK input file pbeh-3c.SHARKINP.tmp ... ok
----------------------
SHARK INTEGRAL PACKAGE
----------------------

Number of atoms                             ...     16
Number of basis functions                   ...     84
Number of shells                            ...     52
Maximum angular momentum                    ...      2
Integral batch strategy                     ... SHARK/LIBINT Hybrid
RI-J (if used) integral strategy            ... SPLIT-RIJ (Revised 2003 algorithm where possible)
Printlevel                                  ...      1
Contraction scheme used                     ... SEGMENTED contraction
Coulomb Range Separation                    ... NOT USED
Exchange Range Separation                   ... NOT USED
Finite Nucleus Model                        ... NOT USED
Auxiliary Coulomb fitting basis             ... AVAILABLE
   # of basis functions in Aux-J            ...    328
   # of shells in Aux-J                     ...    120
   Maximum angular momentum in Aux-J        ...      4
Auxiliary J/K fitting basis                 ... NOT available
Auxiliary Correlation fitting basis         ... NOT available
Auxiliary 'external' fitting basis          ... NOT available
Integral threshold                          ...     2.500000e-11
Primitive cut-off                           ...     2.500000e-12
Primitive pair pre-selection threshold      ...     2.500000e-12

Calculating pre-screening integrals         ... done (  0.1 sec) Dimension = 52
Organizing shell pair data                  ... done (  0.4 sec)
Shell pair information
Total number of shell pairs                 ...      1378
Shell pairs after pre-screening             ...      1302
Total number of primitive shell pairs       ...      5138
Primitive shell pairs kept                  ...      3525
          la=0 lb=0:    760 shell pairs
          la=1 lb=0:    312 shell pairs
          la=1 lb=1:     36 shell pairs
          la=2 lb=0:    152 shell pairs
          la=2 lb=1:     32 shell pairs
          la=2 lb=2:     10 shell pairs

Calculating one electron integrals          ... done (  0.0 sec)
Calculating RI/J V-Matrix + Cholesky decomp.... done (  0.2 sec)
Calculating Nuclear repulsion               ... done (  0.0 sec) ENN=    150.595872556829 Eh

SHARK setup successfully completed in   1.8 seconds

Maximum memory used throughout the entire GTOINT-calculation: 10.0 MB


           ************************************************************
           *        Program running with 4 parallel MPI-processes     *
           *              working on a common directory               *
           ************************************************************
-------------------------------------------------------------------------------
                                 ORCA SCF
-------------------------------------------------------------------------------

------------
SCF SETTINGS
------------
Hamiltonian:
 Density Functional     Method          .... DFT(GTOs)
 Exchange Functional    Exchange        .... PBE
   PBE kappa parameter   XKappa         ....  1.024500
   PBE mue parameter    XMuePBE         ....  0.123457
 Correlation Functional Correlation     .... PBE
   PBE beta parameter  CBetaPBE         ....  0.030000
 LDA part of GGA corr.  LDAOpt          .... PW91-LDA
 Gradients option       PostSCFGGA      .... off
 Hybrid DFT is turned on
   Fraction HF Exchange ScalHFX         ....  0.420000
   Scaling of DF-GGA-X  ScalDFX         ....  0.580000
   Scaling of DF-GGA-C  ScalDFC         ....  1.000000
   Scaling of DF-LDA-C  ScalLDAC        ....  1.000000
   Perturbative correction              ....  0.000000
   Density functional embedding theory  .... OFF
 RI-approximation to the Coulomb term is turned on
   Number of AuxJ basis functions       .... 328
   RIJ-ON(X) (HFX calculated with O(N)) .... on
   Number of AuxJ basis functions       .... 328
   RIJ-COSX (HFX calculated with COS-X)).... on


General Settings:
 Integral files         IntName         .... pbeh-3c
 Hartree-Fock type      HFTyp           .... RHF
 Total Charge           Charge          ....    0
 Multiplicity           Mult            ....    1
 Number of Electrons    NEL             ....   40
 Basis Dimension        Dim             ....   84
 Nuclear Repulsion      ENuc            ....    150.5958725568 Eh

Convergence Acceleration:
 DIIS                   CNVDIIS         .... on
   Start iteration      DIISMaxIt       ....    12
   Startup error        DIISStart       ....  0.200000
   # of expansion vecs  DIISMaxEq       ....     5
   Bias factor          DIISBfac        ....   1.050
   Max. coefficient     DIISMaxC        ....  10.000
 Trust-Rad. Augm. Hess. CNVTRAH         .... auto
   Auto Start mean grad. ratio tolernc. ....  1.125000
   Auto Start start iteration           ....    20
   Auto Start num. interpolation iter.  ....    10
   Max. Number of Micro iterations      ....    16
   Max. Number of Macro iterations      .... Maxiter - #DIIS iter
   Number of Davidson start vectors     ....     2
   Converg. threshold I  (grad. norm)   ....   1.000e-05
   Converg. threshold II (energy diff.) ....   1.000e-08
   Grad. Scal. Fac. for Micro threshold ....   0.100
   Minimum threshold for Micro iter.    ....   0.010
   NR start threshold (gradient norm)   ....   0.001
   Initial trust radius                 ....   0.400
   Minimum AH scaling param. (alpha)    ....   1.000
   Maximum AH scaling param. (alpha)    .... 1000.000
   Orbital update algorithm             .... Taylor
   White noise on init. David. guess    .... on
   Maximum white noise                  ....   0.010
   Quad. conv. algorithm                .... NR
   COSX micro iterations for RIJONX calc.... off
 SOSCF                  CNVSOSCF        .... on
   Start iteration      SOSCFMaxIt      ....   150
   Startup grad/error   SOSCFStart      ....  0.003300
 Level Shifting         CNVShift        .... on
   Level shift para.    LevelShift      ....    0.2500
   Turn off err/grad.   ShiftErr        ....    0.0010
 Zerner damping         CNVZerner       .... off
 Static damping         CNVDamp         .... on
   Fraction old density DampFac         ....    0.7000
   Max. Damping (<1)    DampMax         ....    0.9800
   Min. Damping (>=0)   DampMin         ....    0.0000
   Turn off err/grad.   DampErr         ....    0.1000
 Fernandez-Rico         CNVRico         .... off

SCF Procedure:
 Maximum # iterations   MaxIter         ....   125
 SCF integral mode      SCFMode         .... Direct
   Integral package                     .... SHARK and LIBINT hybrid scheme
 Reset frequency        DirectResetFreq ....    20
 Integral Threshold     Thresh          ....  2.500e-11 Eh
 Primitive CutOff       TCut            ....  2.500e-12 Eh

Convergence Tolerance:
 Convergence Check Mode ConvCheckMode   .... Total+1el-Energy
 Convergence forced     ConvForced      .... 0
 Energy Change          TolE            ....  1.000e-08 Eh
 1-El. energy change                    ....  1.000e-05 Eh
 Orbital Gradient       TolG            ....  1.000e-05
 Orbital Rotation angle TolX            ....  1.000e-05
 DIIS Error             TolErr          ....  5.000e-07


Diagonalization of the overlap matrix:
Smallest eigenvalue                        ... 1.952e-02
Time for diagonalization                   ...    0.001 sec
Threshold for overlap eigenvalues          ... 1.000e-08
Number of eigenvalues below threshold      ... 0
Time for construction of square roots      ...    0.222 sec
Total time needed                          ...    0.224 sec

--------------------------------
INITIAL GUESS: MINIMAL BASIS EHT
--------------------------------
The minimal basis has 32 functions
EHT matrix was diagonalized
Basis set overlap was calculated now projecting the orbitals
Using GuessMode=FMatrix for the initial guess
C*T matrix was formed
Effective Fockian was calculated
Effective Fockian was diagonalized
Initial density was built
                      ------------------
                      INITIAL GUESS DONE
                      ------------------
-------------------
DFT GRID GENERATION
-------------------

General Integration Accuracy     IntAcc      ... 4.959
Radial Grid Type                 RadialGrid  ... OptM3 with GC (2021)
Angular Grid (max. ang.)         AngularGrid ... 6 (Lebedev-590)
Angular grid pruning method      GridPruning ... 4 (adaptive)
Weight generation scheme         WeightScheme... Becke
Basis function cutoff            BFCut       ... 1.0000e-11
Integration weight cutoff        WCut        ... 1.0000e-14
Angular grids for H and He will be reduced by one unit
Partially contracted basis set               ... off
Rotationally invariant grid construction     ... off

Total number of grid points                  ...   162751
Total number of batches                      ...     2551
Average number of points per batch           ...       63
Average number of grid points per atom       ...    10172
Time for grid setup =    2.598 sec

--------------------
COSX GRID GENERATION
--------------------

GRIDX 1
-------
General Integration Accuracy     IntAcc      ... 4.020
Radial Grid Type                 RadialGrid  ... OptM3 with GC (2021)
Angular Grid (max. ang.)         AngularGrid ... 2 (Lebedev-110)
Angular grid pruning method      GridPruning ... 4 (adaptive)
Weight generation scheme         WeightScheme... Becke
Basis function cutoff            BFCut       ... 1.0000e-11
Integration weight cutoff        WCut        ... 1.0000e-14
Angular grids for H and He will be reduced by one unit
Partially contracted basis set               ... on
Rotationally invariant grid construction     ... off

Total number of grid points                  ...    16557
Total number of batches                      ...      265
Average number of points per batch           ...       62
Average number of grid points per atom       ...     1035
UseSFitting                                  ... on

GRIDX 2
-------
General Integration Accuracy     IntAcc      ... 4.338
Radial Grid Type                 RadialGrid  ... OptM3 with GC (2021)
Angular Grid (max. ang.)         AngularGrid ... 3 (Lebedev-194)
Angular grid pruning method      GridPruning ... 4 (adaptive)
Weight generation scheme         WeightScheme... Becke
Basis function cutoff            BFCut       ... 1.0000e-11
Integration weight cutoff        WCut        ... 1.0000e-14
Angular grids for H and He will be reduced by one unit
Partially contracted basis set               ... on
Rotationally invariant grid construction     ... off

Total number of grid points                  ...    35937
Total number of batches                      ...      569
Average number of points per batch           ...       63
Average number of grid points per atom       ...     2246
UseSFitting                                  ... on

GRIDX 3
-------
General Integration Accuracy     IntAcc      ... 4.871
Radial Grid Type                 RadialGrid  ... OptM3 with GC (2021)
Angular Grid (max. ang.)         AngularGrid ... 4 (Lebedev-302)
Angular grid pruning method      GridPruning ... 4 (adaptive)
Weight generation scheme         WeightScheme... Becke
Basis function cutoff            BFCut       ... 1.0000e-11
Integration weight cutoff        WCut        ... 1.0000e-14
Angular grids for H and He will be reduced by one unit
Partially contracted basis set               ... on
Rotationally invariant grid construction     ... off

Total number of grid points                  ...    73792
Total number of batches                      ...     1162
Average number of points per batch           ...       63
Average number of grid points per atom       ...     4612
UseSFitting                                  ... on

Time for X-Grid setup             =    2.796 sec

--------------
SCF ITERATIONS
--------------
ITER       Energy         Delta-E        Max-DP      RMS-DP      [F,P]     Damp
               ***  Starting incremental Fock matrix formation  ***
  0   -224.9900132155   0.000000000000 0.18718770  0.00715134  0.4810692 0.7000
  1   -225.2440135025  -0.254000286994 0.11234953  0.00485028  0.2372355 0.7000
                               ***Turning on DIIS***
  2   -225.3817367181  -0.137723215575 0.05780534  0.00298238  0.1564079 0.7000
  3   -225.4728277065  -0.091090988421 0.03202148  0.00185173  0.1089639 0.7000
  4   -225.5376769268  -0.064849220327 0.08441190  0.00478504  0.0762093 0.0000
  5   -225.6946944808  -0.157017554017 0.01529393  0.00063982  0.0150233 0.0000
  6   -225.6951566565  -0.000462175630 0.00339075  0.00019040  0.0061832 0.0000
                      *** Initiating the SOSCF procedure ***
                           *** Shutting down DIIS ***
                      *** Re-Reading the Fockian *** 
                      *** Removing any level shift *** 
ITER      Energy       Delta-E        Grad      Rot      Max-DP    RMS-DP
  7   -225.69524426  -0.0000876057  0.000749  0.000749  0.002619  0.000107
               *** Restarting incremental Fock matrix formation ***
  8   -225.69523736   0.0000069021  0.000312  0.000658  0.001671  0.000065
  9   -225.69523925  -0.0000018891  0.000131  0.000320  0.000860  0.000033
 10   -225.69523942  -0.0000001754  0.000098  0.000126  0.000366  0.000014
 11   -225.69523955  -0.0000001275  0.000012  0.000017  0.000036  0.000002
 12   -225.69523955   0.0000000042  0.000014  0.000009  0.000020  0.000001
                  ***Gradient check signals convergence***
              ***Rediagonalizing the Fockian in SOSCF/NRSCF***

               *****************************************************
               *                     SUCCESS                       *
               *           SCF CONVERGED AFTER  13 CYCLES          *
               *****************************************************

Old exchange energy                            =    -12.852872103 Eh
New exchange energy                            =    -12.852886124 Eh
Exchange energy change after final integration =     -0.000014021 Eh
Total energy after final integration           =   -225.695253571 Eh
Final COS-X integration done in                =     2.315 sec

----------------
TOTAL SCF ENERGY
----------------

Total Energy       :         -225.69525357 Eh           -6141.48008 eV

Components:
Nuclear Repulsion  :          150.59587256 Eh            4097.92203 eV
Electronic Energy  :         -376.29112613 Eh          -10239.40210 eV
One Electron Energy:         -605.56820211 Eh          -16478.34852 eV
Two Electron Energy:          229.27707599 Eh            6238.94642 eV
Max COSX asymmetry :            0.00000104 Eh               0.00003 eV

Virial components:
Potential Energy   :         -449.68310121 Eh          -12236.49928 eV
Kinetic Energy     :          223.98784764 Eh            6095.01920 eV
Virial Ratio       :            2.00762276


DFT components:
N(Alpha)           :       19.999992951312 electrons
N(Beta)            :       19.999992951312 electrons
N(Total)           :       39.999985902625 electrons
E(X)               :      -17.100749194316 Eh       
E(C)               :       -1.716599024341 Eh       
E(XC)              :      -18.817348218657 Eh       
DFET-embed. en.    :        0.000000000000 Eh       

---------------
SCF CONVERGENCE
---------------

  Last Energy change         ...   -1.5818e-09  Tolerance :   1.0000e-08
  Last MAX-Density change    ...    1.2212e-15  Tolerance :   1.0000e-07
  Last RMS-Density change    ...    5.0043e-17  Tolerance :   5.0000e-09
  Last Orbital Gradient      ...    6.9617e-07  Tolerance :   1.0000e-05
  Last Orbital Rotation      ...    8.9625e-07  Tolerance :   1.0000e-05

             **** THE GBW FILE WAS UPDATED (pbeh-3c.gbw) ****
             **** DENSITY pbeh-3c.scfp WAS UPDATED ****
             **** ENERGY FILE WAS UPDATED (pbeh-3c.en.tmp) ****
             **** THE GBW FILE WAS UPDATED (pbeh-3c.gbw) ****
             **** DENSITY pbeh-3c.scfp WAS UPDATED ****
----------------
ORBITAL ENERGIES
----------------

  NO   OCC          E(Eh)            E(eV) 
   0   2.0000     -14.658356      -398.8741 
   1   2.0000     -14.571533      -396.5116 
   2   2.0000     -14.571444      -396.5092 
   3   2.0000     -14.476736      -393.9320 
   4   2.0000      -1.002234       -27.2722 
   5   2.0000      -0.901013       -24.5178 
   6   2.0000      -0.900316       -24.4989 
   7   2.0000      -0.780833       -21.2475 
   8   2.0000      -0.575977       -15.6731 
   9   2.0000      -0.565856       -15.3977 
  10   2.0000      -0.541597       -14.7376 
  11   2.0000      -0.491204       -13.3663 
  12   2.0000      -0.490958       -13.3596 
  13   2.0000      -0.466073       -12.6825 
  14   2.0000      -0.462102       -12.5744 
  15   2.0000      -0.392219       -10.6728 
  16   2.0000      -0.311821        -8.4851 
  17   2.0000      -0.296667        -8.0727 
  18   2.0000      -0.239731        -6.5234 
  19   2.0000      -0.168534        -4.5860 
  20   0.0000       0.116462         3.1691 
  21   0.0000       0.174266         4.7420 
  22   0.0000       0.176724         4.8089 
  23   0.0000       0.176814         4.8114 
  24   0.0000       0.235773         6.4157 
  25   0.0000       0.237516         6.4632 
  26   0.0000       0.238631         6.4935 
  27   0.0000       0.303526         8.2594 
  28   0.0000       0.313212         8.5229 
  29   0.0000       0.345764         9.4087 
  30   0.0000       0.393345        10.7035 
  31   0.0000       0.407630        11.0922 
  32   0.0000       0.612367        16.6633 
  33   0.0000       0.683259        18.5924 
  34   0.0000       0.726513        19.7694 
  35   0.0000       0.768696        20.9173 
  36   0.0000       0.785971        21.3874 
  37   0.0000       0.857832        23.3428 
  38   0.0000       0.868555        23.6346 
  39   0.0000       0.878626        23.9086 
  40   0.0000       0.907929        24.7060 
  41   0.0000       0.933295        25.3962 
  42   0.0000       0.951364        25.8879 
  43   0.0000       0.998006        27.1571 
  44   0.0000       1.008034        27.4300 
  45   0.0000       1.037945        28.2439 
  46   0.0000       1.057669        28.7806 
  47   0.0000       1.062743        28.9187 
  48   0.0000       1.086862        29.5750 
  49   0.0000       1.087112        29.5818 
  50   0.0000       1.095666        29.8146 
  51   0.0000       1.147382        31.2218 
  52   0.0000       1.163138        31.6506 
  53   0.0000       1.173131        31.9225 
  54   0.0000       1.210299        32.9339 
  55   0.0000       1.294987        35.2384 
  56   0.0000       1.482369        40.3373 
  57   0.0000       1.642266        44.6883 
  58   0.0000       1.657918        45.1142 
  59   0.0000       1.682389        45.7801 
  60   0.0000       1.691892        46.0387 
  61   0.0000       1.760144        47.8959 
  62   0.0000       1.760533        47.9065 
  63   0.0000       1.764970        48.0273 
  64   0.0000       1.792018        48.7633 
  65   0.0000       1.878540        51.1177 
  66   0.0000       1.887088        51.3503 
  67   0.0000       1.920411        52.2570 
  68   0.0000       2.008934        54.6659 
  69   0.0000       2.217861        60.3511 
  70   0.0000       2.270335        61.7790 
  71   0.0000       2.335462        63.5511 
  72   0.0000       2.416156        65.7470 
  73   0.0000       2.428325        66.0781 
  74   0.0000       2.510424        68.3121 
  75   0.0000       2.518667        68.5364 
  76   0.0000       2.525743        68.7290 
  77   0.0000       2.542320        69.1801 
  78   0.0000       2.558573        69.6223 
  79   0.0000       2.629072        71.5407 
  80   0.0000      19.046512       518.2819 
  81   0.0000      19.202734       522.5330 
  82   0.0000      19.238879       523.5165 
  83   0.0000      19.338845       526.2367 

                    ********************************
                    * MULLIKEN POPULATION ANALYSIS *
                    ********************************

-----------------------
MULLIKEN ATOMIC CHARGES
-----------------------
   0 H :    0.456090
   1 H :    0.412814
   2 H :    0.412748
   3 H :    0.456114
   4 H :    0.361585
   5 H :    0.312820
   6 H :    0.247628
   7 H :    0.312791
   8 N :   -1.026707
   9 N :   -1.071159
  10 N :   -1.054727
  11 N :   -1.054822
  12 H :    0.312791
  13 H :    0.247628
  14 H :    0.312820
  15 H :    0.361585
Sum of atomic charges:   -0.0000000

--------------------------------
MULLIKEN REDUCED ORBITAL CHARGES
--------------------------------
  0 H s       :     0.543910  s :     0.543910
  1 H s       :     0.587186  s :     0.587186
  2 H s       :     0.587252  s :     0.587252
  3 H s       :     0.543886  s :     0.543886
  4 H s       :     0.638415  s :     0.638415
  5 H s       :     0.687180  s :     0.687180
  6 H s       :     0.752372  s :     0.752372
  7 H s       :     0.687209  s :     0.687209
  8 N s       :     3.682472  s :     3.682472
      pz      :     1.277974  p :     4.319757
      px      :     1.541775
      py      :     1.500009
      dz2     :     0.004181  d :     0.024478
      dxz     :     0.004906
      dyz     :     0.007604
      dx2y2   :     0.004233
      dxy     :     0.003554
  9 N s       :     3.699361  s :     3.699361
      pz      :     1.139560  p :     4.349223
      px      :     1.644000
      py      :     1.565663
      dz2     :     0.001120  d :     0.022575
      dxz     :     0.006304
      dyz     :     0.009707
      dx2y2   :     0.001215
      dxy     :     0.004230
 10 N s       :     3.683709  s :     3.683709
      pz      :     1.220887  p :     4.346680
      px      :     1.472022
      py      :     1.653770
      dz2     :     0.003137  d :     0.024339
      dxz     :     0.005503
      dyz     :     0.008545
      dx2y2   :     0.002625
      dxy     :     0.004528
 11 N s       :     3.683727  s :     3.683727
      pz      :     1.220886  p :     4.346776
      px      :     1.589950
      py      :     1.535940
      dz2     :     0.003134  d :     0.024319
      dxz     :     0.011305
      dyz     :     0.002741
      dx2y2   :     0.004783
      dxy     :     0.002356
 12 H s       :     0.687209  s :     0.687209
 13 H s       :     0.752372  s :     0.752372
 14 H s       :     0.687180  s :     0.687180
 15 H s       :     0.638415  s :     0.638415


                     *******************************
                     * LOEWDIN POPULATION ANALYSIS *
                     *******************************

----------------------
LOEWDIN ATOMIC CHARGES
----------------------
   0 H :    0.298596
   1 H :    0.270014
   2 H :    0.270113
   3 H :    0.298656
   4 H :    0.249700
   5 H :    0.214540
   6 H :    0.168506
   7 H :    0.214518
   8 N :   -0.527988
   9 N :   -0.904365
  10 N :   -0.699660
  11 N :   -0.699892
  12 H :    0.214518
  13 H :    0.168506
  14 H :    0.214540
  15 H :    0.249700

-------------------------------
LOEWDIN REDUCED ORBITAL CHARGES
-------------------------------
  0 H s       :     0.701404  s :     0.701404
  1 H s       :     0.729986  s :     0.729986
  2 H s       :     0.729887  s :     0.729887
  3 H s       :     0.701344  s :     0.701344
  4 H s       :     0.750300  s :     0.750300
  5 H s       :     0.785460  s :     0.785460
  6 H s       :     0.831494  s :     0.831494
  7 H s       :     0.785482  s :     0.785482
  8 N s       :     3.276100  s :     3.276100
      pz      :     1.270303  p :     4.213248
      px      :     1.489334
      py      :     1.453610
      dz2     :     0.007545  d :     0.038640
      dxz     :     0.007314
      dyz     :     0.011345
      dx2y2   :     0.007981
      dxy     :     0.004457
  9 N s       :     3.418948  s :     3.418948
      pz      :     1.187784  p :     4.451653
      px      :     1.668083
      py      :     1.595785
      dz2     :     0.003006  d :     0.033765
      dxz     :     0.009415
      dyz     :     0.014506
      dx2y2   :     0.001950
      dxy     :     0.004888
 10 N s       :     3.331957  s :     3.331957
      pz      :     1.235848  p :     4.330806
      px      :     1.440679
      py      :     1.654279
      dz2     :     0.005751  d :     0.036897
      dxz     :     0.008975
      dyz     :     0.011937
      dx2y2   :     0.005028
      dxy     :     0.005205
 11 N s       :     3.332068  s :     3.332068
      pz      :     1.235838  p :     4.330938
      px      :     1.591989
      py      :     1.503111
      dz2     :     0.005750  d :     0.036886
      dxz     :     0.016149
      dyz     :     0.004759
      dx2y2   :     0.007483
      dxy     :     0.002745
 12 H s       :     0.785482  s :     0.785482
 13 H s       :     0.831494  s :     0.831494
 14 H s       :     0.785460  s :     0.785460
 15 H s       :     0.750300  s :     0.750300


                      *****************************
                      * MAYER POPULATION ANALYSIS *
                      *****************************

  NA   - Mulliken gross atomic population
  ZA   - Total nuclear charge
  QA   - Mulliken gross atomic charge
  VA   - Mayer's total valence
  BVA  - Mayer's bonded valence
  FA   - Mayer's free valence

  ATOM       NA         ZA         QA         VA         BVA        FA
  0 H      0.5439     1.0000     0.4561     0.8132     0.8132     0.0000
  1 H      0.5872     1.0000     0.4128     0.8586     0.8586    -0.0000
  2 H      0.5873     1.0000     0.4127     0.8585     0.8585     0.0000
  3 H      0.5439     1.0000     0.4561     0.8131     0.8131     0.0000
  4 H      0.6384     1.0000     0.3616     0.8463     0.8463     0.0000
  5 H      0.6872     1.0000     0.3128     0.8741     0.8741     0.0000
  6 H      0.7524     1.0000     0.2476     0.8988     0.8988    -0.0000
  7 H      0.6872     1.0000     0.3128     0.8741     0.8741    -0.0000
  8 N      8.0267     7.0000    -1.0267     2.7125     2.7125    -0.0000
  9 N      8.0712     7.0000    -1.0712     2.5417     2.5417    -0.0000
 10 N      8.0547     7.0000    -1.0547     2.6275     2.6275    -0.0000
 11 N      8.0548     7.0000    -1.0548     2.6272     2.6272    -0.0000
 12 H      0.6872     1.0000     0.3128     0.8741     0.8741    -0.0000
 13 H      0.7524     1.0000     0.2476     0.8988     0.8988    -0.0000
 14 H      0.6872     1.0000     0.3128     0.8741     0.8741    -0.0000
 15 H      0.6384     1.0000     0.3616     0.8463     0.8463    -0.0000

  Mayer bond orders larger than 0.100000
B(  0-H ,  8-N ) :   0.4931 B(  0-H , 10-N ) :   0.3245 B(  1-H ,  9-N ) :   0.3460 
B(  1-H , 10-N ) :   0.5186 B(  2-H ,  9-N ) :   0.3469 B(  2-H , 11-N ) :   0.5176 
B(  3-H ,  8-N ) :   0.4924 B(  3-H , 11-N ) :   0.3251 B(  4-H ,  8-N ) :   0.8489 
B(  5-H , 10-N ) :   0.8767 B(  6-H ,  9-N ) :   0.9031 B(  7-H , 11-N ) :   0.8767 
B(  8-N , 15-H ) :   0.8489 B(  9-N , 13-H ) :   0.9031 B( 10-N , 14-H ) :   0.8767 
B( 11-N , 12-H ) :   0.8767 

-------
TIMINGS
-------

Total SCF time: 0 days 0 hours 1 min 12 sec 

Total time                  ....      72.035 sec
Sum of individual times     ....      65.273 sec  ( 90.6%)

Fock matrix formation       ....      55.606 sec  ( 77.2%)
  Split-RI-J                ....       5.436 sec  (  9.8% of F)
  Chain of spheres X        ....      13.493 sec  ( 24.3% of F)
  XC integration            ....      20.849 sec  ( 37.5% of F)
    Basis function eval.    ....       2.197 sec  ( 10.5% of XC)
    Density eval.           ....       1.388 sec  (  6.7% of XC)
    XC-Functional eval.     ....       1.341 sec  (  6.4% of XC)
    XC-Potential eval.      ....       0.443 sec  (  2.1% of XC)
Diagonalization             ....       0.631 sec  (  0.9%)
Density matrix formation    ....       0.068 sec  (  0.1%)
Population analysis         ....       1.367 sec  (  1.9%)
Initial guess               ....       0.010 sec  (  0.0%)
Orbital Transformation      ....       0.000 sec  (  0.0%)
Orbital Orthonormalization  ....       0.000 sec  (  0.0%)
DIIS solution               ....       1.367 sec  (  1.9%)
SOSCF solution              ....       0.830 sec  (  1.2%)
Grid generation             ....       5.394 sec  (  7.5%)

Maximum memory used throughout the entire SCF-calculation: 50.8 MB


-------------------------------------------------------------------------------
                          DFT DISPERSION CORRECTION                            
                                                                               
                              DFTD3 V3.1  Rev 1                                
                          USING Becke-Johnson damping                          
-------------------------------------------------------------------------------
The PBEh-3c composite method is recognized
Using three-body term ABC
Active option DFTDOPT                   ...         4   

molecular C6(AA) [au] = 1383.723849 


            DFT-D V3
 parameters
 s6 scaling factor         :     1.0000 
 a1 scaling factor         :     0.4860 
 s8 scaling factor         :     0.0000 
 a2 scaling factor         :     4.5000 
 Damping factor alpha9(ATM):    16.0000 
 ad hoc parameters k1-k3   :    16.0000     1.3333    -4.0000 

 Edisp/kcal,au: -3.512163758293  -0.005596988617 
 E6   /kcal   :  -3.542412657 
 E8   /kcal   :  -0.000000000 
 E6(ABC)      :   0.030248899 
 % E8         :   0.000000000 
 % E6(ABC)    :  -0.861261053 

-------------------------   ----------------
Dispersion correction           -0.005596989
-------------------------   ----------------

------------------   -----------------
gCP correction             0.015639503
------------------   -----------------

-------------------------   --------------------
FINAL SINGLE POINT ENERGY      -225.685211056578
-------------------------   --------------------


                            ***************************************
                            *     ORCA property calculations      *
                            ***************************************

                                    ---------------------
                                    Active property flags
                                    ---------------------
   (+) Dipole Moment


------------------------------------------------------------------------------
                       ORCA ELECTRIC PROPERTIES CALCULATION
------------------------------------------------------------------------------

Dipole Moment Calculation                       ... on
Quadrupole Moment Calculation                   ... off
Polarizability Calculation                      ... off
GBWName                                         ... pbeh-3c.gbw
Electron density                                ... pbeh-3c.scfp
The origin for moment calculation is the CENTER OF MASS  = (-0.002682, -0.003386  0.000000)

-------------
DIPOLE MOMENT
-------------
                                X             Y             Z
Electronic contribution:      1.07392       1.33570       0.00000
Nuclear contribution   :      0.10729       0.13543       0.00000
                        -----------------------------------------
Total Dipole Moment    :      1.18120       1.47112       0.00000
                        -----------------------------------------
Magnitude (a.u.)       :      1.88665
Magnitude (Debye)      :      4.79548



--------------------
Rotational spectrum 
--------------------
 
Rotational constants in cm-1:     0.131763     0.115944     0.064173 
Rotational constants in MHz :  3950.166852  3475.915515  1923.867016 

 Dipole components along the rotational axes: 
x,y,z [a.u.] :    -0.000543     1.886647     0.000000 
x,y,z [Debye]:    -0.001380     4.795477     0.000000 

 

Timings for individual modules:

Sum of individual times         ...       75.274 sec (=   1.255 min)
GTO integral calculation        ...        2.535 sec (=   0.042 min)   3.4 %
SCF iterations                  ...       72.739 sec (=   1.212 min)  96.6 %
                             ****ORCA TERMINATED NORMALLY****
TOTAL RUN TIME: 0 days 0 hours 1 minutes 28 seconds 804 msec
