
                                 *****************
                                 * O   R   C   A *
                                 *****************

                                            #,                                       
                                            ###                                      
                                            ####                                     
                                            #####                                    
                                            ######                                   
                                           ########,                                 
                                     ,,################,,,,,                         
                               ,,#################################,,                 
                          ,,##########################################,,             
                       ,#########################################, ''#####,          
                    ,#############################################,,   '####,        
                  ,##################################################,,,,####,       
                ,###########''''           ''''###############################       
              ,#####''   ,,,,##########,,,,          '''####'''          '####       
            ,##' ,,,,###########################,,,                        '##       
           ' ,,###''''                  '''############,,,                           
         ,,##''                                '''############,,,,        ,,,,,,###''
      ,#''                                            '''#######################'''  
     '                                                          ''''####''''         
             ,#######,   #######,   ,#######,      ##                                
            ,#'     '#,  ##    ##  ,#'     '#,    #''#        ######   ,####,        
            ##       ##  ##   ,#'  ##            #'  '#       #        #'  '#        
            ##       ##  #######   ##           ,######,      #####,   #    #        
            '#,     ,#'  ##    ##  '#,     ,#' ,#      #,         ##   #,  ,#        
             '#######'   ##     ##  '#######'  #'      '#     #####' # '####'        



                  #######################################################
                  #                        -***-                        #
                  #          Department of theory and spectroscopy      #
                  #    Directorship and core code : Frank Neese         #
                  #        Max Planck Institute fuer Kohlenforschung    #
                  #                Kaiser Wilhelm Platz 1               #
                  #                 D-45470 Muelheim/Ruhr               #
                  #                      Germany                        #
                  #                                                     #
                  #                  All rights reserved                #
                  #                        -***-                        #
                  #######################################################


                         Program Version 5.0.3 -  RELEASE  -


 With contributions from (in alphabetic order):
   Daniel Aravena         : Magnetic Suceptibility
   Michael Atanasov       : Ab Initio Ligand Field Theory (pilot matlab implementation)
   Alexander A. Auer      : GIAO ZORA, VPT2 properties, NMR spectrum
   Ute Becker             : Parallelization
   Giovanni Bistoni       : ED, misc. LED, open-shell LED, HFLD
   Martin Brehm           : Molecular dynamics
   Dmytro Bykov           : SCF Hessian
   Vijay G. Chilkuri      : MRCI spin determinant printing, contributions to CSF-ICE
   Dipayan Datta          : RHF DLPNO-CCSD density
   Achintya Kumar Dutta   : EOM-CC, STEOM-CC
   Dmitry Ganyushin       : Spin-Orbit,Spin-Spin,Magnetic field MRCI
   Miquel Garcia          : C-PCM and meta-GGA Hessian, CC/C-PCM, Gaussian charge scheme
   Yang Guo               : DLPNO-NEVPT2, F12-NEVPT2, CIM, IAO-localization
   Andreas Hansen         : Spin unrestricted coupled pair/coupled cluster methods
   Benjamin Helmich-Paris : MC-RPA, TRAH-SCF, COSX integrals
   Lee Huntington         : MR-EOM, pCC
   Robert Izsak           : Overlap fitted RIJCOSX, COSX-SCS-MP3, EOM
   Marcus Kettner         : VPT2
   Christian Kollmar      : KDIIS, OOCD, Brueckner-CCSD(T), CCSD density, CASPT2, CASPT2-K
   Simone Kossmann        : Meta GGA functionals, TD-DFT gradient, OOMP2, MP2 Hessian
   Martin Krupicka        : Initial AUTO-CI
   Lucas Lang             : DCDCAS
   Marvin Lechner         : AUTO-CI (C++ implementation), FIC-MRCC
   Dagmar Lenk            : GEPOL surface, SMD
   Dimitrios Liakos       : Extrapolation schemes; Compound Job, initial MDCI parallelization
   Dimitrios Manganas     : Further ROCIS development; embedding schemes
   Dimitrios Pantazis     : SARC Basis sets
   Anastasios Papadopoulos: AUTO-CI, single reference methods and gradients
   Taras Petrenko         : DFT Hessian,TD-DFT gradient, ASA, ECA, R-Raman, ABS, FL, XAS/XES, NRVS
   Peter Pinski           : DLPNO-MP2, DLPNO-MP2 Gradient
   Christoph Reimann      : Effective Core Potentials
   Marius Retegan         : Local ZFS, SOC
   Christoph Riplinger    : Optimizer, TS searches, QM/MM, DLPNO-CCSD(T), (RO)-DLPNO pert. Triples
   Tobias Risthaus        : Range-separated hybrids, TD-DFT gradient, RPA, STAB
   Michael Roemelt        : Original ROCIS implementation
   Masaaki Saitow         : Open-shell DLPNO-CCSD energy and density
   Barbara Sandhoefer     : DKH picture change effects
   Avijit Sen             : IP-ROCIS
   Kantharuban Sivalingam : CASSCF convergence, NEVPT2, FIC-MRCI
   Bernardo de Souza      : ESD, SOC TD-DFT
   Georgi Stoychev        : AutoAux, RI-MP2 NMR, DLPNO-MP2 response
   Willem Van den Heuvel  : Paramagnetic NMR
   Boris Wezisla          : Elementary symmetry handling
   Frank Wennmohs         : Technical directorship


 We gratefully acknowledge several colleagues who have allowed us to
 interface, adapt or use parts of their codes:
   Stefan Grimme, W. Hujo, H. Kruse, P. Pracht,  : VdW corrections, initial TS optimization,
                  C. Bannwarth, S. Ehlert          DFT functionals, gCP, sTDA/sTD-DF
   Ed Valeev, F. Pavosevic, A. Kumar             : LibInt (2-el integral package), F12 methods
   Garnet Chan, S. Sharma, J. Yang, R. Olivares  : DMRG
   Ulf Ekstrom                                   : XCFun DFT Library
   Mihaly Kallay                                 : mrcc  (arbitrary order and MRCC methods)
   Jiri Pittner, Ondrej Demel                    : Mk-CCSD
   Frank Weinhold                                : gennbo (NPA and NBO analysis)
   Christopher J. Cramer and Donald G. Truhlar   : smd solvation model
   Lars Goerigk                                  : TD-DFT with DH, B97 family of functionals
   V. Asgeirsson, H. Jonsson                     : NEB implementation
   FAccTs GmbH                                   : IRC, NEB, NEB-TS, DLPNO-Multilevel, CI-OPT
                                                   MM, QMMM, 2- and 3-layer-ONIOM, Crystal-QMMM,
                                                   LR-CPCM, SF, NACMEs, symmetry and pop. for TD-DFT,
                                                   nearIR, NL-DFT gradient (VV10), updates on ESD,
                                                   ML-optimized integration grids
   S Lehtola, MJT Oliveira, MAL Marques          : LibXC Library
   Liviu Ungur et al                             : ANISO software


 Your calculation uses the libint2 library for the computation of 2-el integrals
 For citations please refer to: http://libint.valeyev.net

 Your ORCA version has been built with support for libXC version: 5.1.0
 For citations please refer to: https://tddft.org/programs/libxc/

 This ORCA versions uses:
   CBLAS   interface :  Fast vector & matrix operations
   LAPACKE interface :  Fast linear algebra routines
   SCALAPACK package :  Parallel linear algebra routines
   Shared memory     :  Shared parallel matrices
   BLAS/LAPACK       :  OpenBLAS 0.3.15  USE64BITINT DYNAMIC_ARCH NO_AFFINITY Haswell SINGLE_THREADED
        Core in use  :  Haswell
   Copyright (c) 2011-2014, The OpenBLAS Project




***************************************
The coordinates will be read from file: P44.xyz
***************************************


Your calculation utilizes the geometrical counterpoise correction gCP
Please cite in your paper:
H.Kruse, S. Grimme J.Chem.Phys., 136, (2012), 154101 
   

Your calculation utilizes the atom-pairwise dispersion correction
with the Becke-Johnson damping scheme (D3BJ)
Cite in your paper:
S.Grimme, S.Ehrlich, L.Goerigk, J Comput Chem, (2011), 32, 1456–1465 
S.Grimme, J.Antony, S.Ehrlich and H.Krieg, J.Chem.Phys., 132, (2010), 154104 
   

Your calculation employs the composite approach PBEh-3c.
Please cite in your paper:
S. Grimme, J. G. Brandenburg, C. Bannwarth, A. Hansen J.Chem.Phys., 143, (2015), 054107 
   

================================================================================

----- Orbital basis set information -----
Your calculation utilizes the basis: def2-mSVP

----- AuxJ basis set information -----
Your calculation utilizes the auxiliary basis: def2/J
   F. Weigend, Phys. Chem. Chem. Phys. 8, 1057 (2006).

================================================================================
                                        WARNINGS
                       Please study these warnings very carefully!
================================================================================


INFO   : the flag for use of the SHARK integral package has been found!

================================================================================
                                       INPUT FILE
================================================================================
NAME = pbeh-3c.inp
|  1> ! PBEh-3c def2/J TightSCF DefGrid3
|  2> 
|  3> %maxcore 60000
|  4> 
|  5> %pal
|  6> nprocs 4
|  7> end
|  8> 
|  9> *xyzfile 0 1 P44.xyz
| 10> 
| 11>                          ****END OF INPUT****
================================================================================

                       ****************************
                       * Single Point Calculation *
                       ****************************

---------------------------------
CARTESIAN COORDINATES (ANGSTROEM)
---------------------------------
  C     -0.043527   -0.011039    0.431388
  C      1.061961    1.052454    0.050602
  C      1.029463   -1.041669    0.096056
  C      1.956398   -0.137313   -0.221003
  C     -1.268353   -0.016356   -0.416443
  C     -2.513646   -0.013758    0.042065
  H     -0.314946    0.020910    1.488672
  H      1.360202    1.704625    0.873090
  H      0.809268    1.669229   -0.812993
  H      1.009421   -2.122907    0.112833
  H      2.984226   -0.210686   -0.549059
  H     -1.093249   -0.030005   -1.488982
  H     -3.365283   -0.019919   -0.624500
  H     -2.723419   -0.005159    1.104954

----------------------------
CARTESIAN COORDINATES (A.U.)
----------------------------
  NO LB      ZA    FRAG     MASS         X           Y           Z
   0 C     6.0000    0    12.011   -0.082254   -0.020861    0.815205
   1 C     6.0000    0    12.011    2.006815    1.988850    0.095624
   2 C     6.0000    0    12.011    1.945403   -1.968469    0.181520
   3 C     6.0000    0    12.011    3.697056   -0.259484   -0.417635
   4 C     6.0000    0    12.011   -2.396840   -0.030908   -0.786963
   5 C     6.0000    0    12.011   -4.750102   -0.025999    0.079491
   6 H     1.0000    0     1.008   -0.595162    0.039514    2.813182
   7 H     1.0000    0     1.008    2.570409    3.221274    1.649901
   8 H     1.0000    0     1.008    1.529295    3.154385   -1.536334
   9 H     1.0000    0     1.008    1.907529   -4.011712    0.213223
  10 H     1.0000    0     1.008    5.639369   -0.398139   -1.037571
  11 H     1.0000    0     1.008   -2.065941   -0.056701   -2.813768
  12 H     1.0000    0     1.008   -6.359463   -0.037641   -1.180134
  13 H     1.0000    0     1.008   -5.146516   -0.009749    2.088060

--------------------------------
INTERNAL COORDINATES (ANGSTROEM)
--------------------------------
 C      0   0   0     0.000000000000     0.00000000     0.00000000
 C      1   0   0     1.580543774526     0.00000000     0.00000000
 C      1   2   0     1.525107493425    84.81599714     0.00000000
 C      3   1   2     1.333264601484    94.76345369     0.09971341
 C      1   2   3     1.489645649261   116.12785453   242.62520950
 C      5   1   2     1.327023263722   125.09464040   228.67256662
 H      1   2   3     1.092034000094   112.79340934   113.93633917
 H      2   1   3     1.091219983765   114.31245658   242.82393344
 H      2   1   3     1.090899309827   114.15033676   116.67395828
 H      3   1   2     1.081553764678   131.23354783   180.51951765
 H      4   3   1     1.081403961655   133.38612671   179.50807373
 H      5   1   2     1.086824455940   115.41933768    49.09127994
 H      6   5   1     1.081495463197   121.73544110   180.12439220
 H      6   5   1     1.083425801831   121.37770419     0.13547464

---------------------------
INTERNAL COORDINATES (A.U.)
---------------------------
 C      0   0   0     0.000000000000     0.00000000     0.00000000
 C      1   0   0     2.986794876528     0.00000000     0.00000000
 C      1   2   0     2.882035487364    84.81599714     0.00000000
 C      3   1   2     2.519504960857    94.76345369     0.09971341
 C      1   2   3     2.815022313690   116.12785453   242.62520950
 C      5   1   2     2.507710541776   125.09464040   228.67256662
 H      1   2   3     2.063645189108   112.79340934   113.93633917
 H      2   1   3     2.062106921178   114.31245658   242.82393344
 H      2   1   3     2.061500935256   114.15033676   116.67395828
 H      3   1   2     2.043840414353   131.23354783   180.51951765
 H      4   3   1     2.043557327666   133.38612671   179.50807373
 H      5   1   2     2.053800577375   115.41933768    49.09127994
 H      6   5   1     2.043730240520   121.73544110   180.12439220
 H      6   5   1     2.047378051885   121.37770419     0.13547464

---------------------
BASIS SET INFORMATION
---------------------
There are 2 groups of distinct atoms

 Group   1 Type C   : 8s4p1d contracted to 4s2p1d pattern {5111/31/1}
 Group   2 Type H   : 4s contracted to 2s pattern {31}

Atom   0C    basis set group =>   1
Atom   1C    basis set group =>   1
Atom   2C    basis set group =>   1
Atom   3C    basis set group =>   1
Atom   4C    basis set group =>   1
Atom   5C    basis set group =>   1
Atom   6H    basis set group =>   2
Atom   7H    basis set group =>   2
Atom   8H    basis set group =>   2
Atom   9H    basis set group =>   2
Atom  10H    basis set group =>   2
Atom  11H    basis set group =>   2
Atom  12H    basis set group =>   2
Atom  13H    basis set group =>   2
---------------------------------
AUXILIARY/J BASIS SET INFORMATION
---------------------------------
There are 2 groups of distinct atoms

 Group   1 Type C   : 12s5p4d2f1g contracted to 6s4p3d1f1g pattern {711111/2111/211/2/1}
 Group   2 Type H   : 5s2p1d contracted to 3s1p1d pattern {311/2/1}

Atom   0C    basis set group =>   1
Atom   1C    basis set group =>   1
Atom   2C    basis set group =>   1
Atom   3C    basis set group =>   1
Atom   4C    basis set group =>   1
Atom   5C    basis set group =>   1
Atom   6H    basis set group =>   2
Atom   7H    basis set group =>   2
Atom   8H    basis set group =>   2
Atom   9H    basis set group =>   2
Atom  10H    basis set group =>   2
Atom  11H    basis set group =>   2
Atom  12H    basis set group =>   2
Atom  13H    basis set group =>   2


           ************************************************************
           *        Program running with 4 parallel MPI-processes     *
           *              working on a common directory               *
           ************************************************************
------------------------------------------------------------------------------
                           ORCA GTO INTEGRAL CALCULATION
                           -- RI-GTO INTEGRALS CHOSEN --
------------------------------------------------------------------------------
------------------------------------------------------------------------------
                   ___                                                        
                  /   \      - P O W E R E D   B Y -                         
                 /     \                                                     
                 |  |  |   _    _      __       _____    __    __             
                 |  |  |  | |  | |    /  \     |  _  \  |  |  /  |          
                  \  \/   | |  | |   /    \    | | | |  |  | /  /          
                 / \  \   | |__| |  /  /\  \   | |_| |  |  |/  /          
                |  |  |   |  __  | /  /__\  \  |    /   |      \           
                |  |  |   | |  | | |   __   |  |    \   |  |\   \          
                \     /   | |  | | |  |  |  |  | |\  \  |  | \   \       
                 \___/    |_|  |_| |__|  |__|  |_| \__\ |__|  \__/        
                                                                              
                      - O R C A' S   B I G   F R I E N D -                    
                                      &                                       
                       - I N T E G R A L  F E E D E R -                       
                                                                              
 v1 FN, 2020, v2 2021                                                         
------------------------------------------------------------------------------


Reading SHARK input file pbeh-3c.SHARKINP.tmp ... ok
----------------------
SHARK INTEGRAL PACKAGE
----------------------

Number of atoms                             ...     14
Number of basis functions                   ...    106
Number of shells                            ...     58
Maximum angular momentum                    ...      2
Integral batch strategy                     ... SHARK/LIBINT Hybrid
RI-J (if used) integral strategy            ... SPLIT-RIJ (Revised 2003 algorithm where possible)
Printlevel                                  ...      1
Contraction scheme used                     ... SEGMENTED contraction
Coulomb Range Separation                    ... NOT USED
Exchange Range Separation                   ... NOT USED
Finite Nucleus Model                        ... NOT USED
Auxiliary Coulomb fitting basis             ... AVAILABLE
   # of basis functions in Aux-J            ...    382
   # of shells in Aux-J                     ...    130
   Maximum angular momentum in Aux-J        ...      4
Auxiliary J/K fitting basis                 ... NOT available
Auxiliary Correlation fitting basis         ... NOT available
Auxiliary 'external' fitting basis          ... NOT available
Integral threshold                          ...     2.500000e-11
Primitive cut-off                           ...     2.500000e-12
Primitive pair pre-selection threshold      ...     2.500000e-12

Calculating pre-screening integrals         ... done (  0.1 sec) Dimension = 58
Organizing shell pair data                  ... done (  0.0 sec)
Shell pair information
Total number of shell pairs                 ...      1711
Shell pairs after pre-screening             ...      1611
Total number of primitive shell pairs       ...      6207
Primitive shell pairs kept                  ...      4352
          la=0 lb=0:    741 shell pairs
          la=1 lb=0:    474 shell pairs
          la=1 lb=1:     78 shell pairs
          la=2 lb=0:    225 shell pairs
          la=2 lb=1:     72 shell pairs
          la=2 lb=2:     21 shell pairs

Calculating one electron integrals          ... done (  0.0 sec)
Calculating RI/J V-Matrix + Cholesky decomp.... done (  0.0 sec)
Calculating Nuclear repulsion               ... done (  0.0 sec) ENN=    211.654192491866 Eh

SHARK setup successfully completed in   0.4 seconds

Maximum memory used throughout the entire GTOINT-calculation: 10.3 MB


           ************************************************************
           *        Program running with 4 parallel MPI-processes     *
           *              working on a common directory               *
           ************************************************************
-------------------------------------------------------------------------------
                                 ORCA SCF
-------------------------------------------------------------------------------

------------
SCF SETTINGS
------------
Hamiltonian:
 Density Functional     Method          .... DFT(GTOs)
 Exchange Functional    Exchange        .... PBE
   PBE kappa parameter   XKappa         ....  1.024500
   PBE mue parameter    XMuePBE         ....  0.123457
 Correlation Functional Correlation     .... PBE
   PBE beta parameter  CBetaPBE         ....  0.030000
 LDA part of GGA corr.  LDAOpt          .... PW91-LDA
 Gradients option       PostSCFGGA      .... off
 Hybrid DFT is turned on
   Fraction HF Exchange ScalHFX         ....  0.420000
   Scaling of DF-GGA-X  ScalDFX         ....  0.580000
   Scaling of DF-GGA-C  ScalDFC         ....  1.000000
   Scaling of DF-LDA-C  ScalLDAC        ....  1.000000
   Perturbative correction              ....  0.000000
   Density functional embedding theory  .... OFF
 RI-approximation to the Coulomb term is turned on
   Number of AuxJ basis functions       .... 382
   RIJ-ON(X) (HFX calculated with O(N)) .... on
   Number of AuxJ basis functions       .... 382
   RIJ-COSX (HFX calculated with COS-X)).... on


General Settings:
 Integral files         IntName         .... pbeh-3c
 Hartree-Fock type      HFTyp           .... RHF
 Total Charge           Charge          ....    0
 Multiplicity           Mult            ....    1
 Number of Electrons    NEL             ....   44
 Basis Dimension        Dim             ....  106
 Nuclear Repulsion      ENuc            ....    211.6541924919 Eh

Convergence Acceleration:
 DIIS                   CNVDIIS         .... on
   Start iteration      DIISMaxIt       ....    12
   Startup error        DIISStart       ....  0.200000
   # of expansion vecs  DIISMaxEq       ....     5
   Bias factor          DIISBfac        ....   1.050
   Max. coefficient     DIISMaxC        ....  10.000
 Trust-Rad. Augm. Hess. CNVTRAH         .... auto
   Auto Start mean grad. ratio tolernc. ....  1.125000
   Auto Start start iteration           ....    20
   Auto Start num. interpolation iter.  ....    10
   Max. Number of Micro iterations      ....    16
   Max. Number of Macro iterations      .... Maxiter - #DIIS iter
   Number of Davidson start vectors     ....     2
   Converg. threshold I  (grad. norm)   ....   1.000e-05
   Converg. threshold II (energy diff.) ....   1.000e-08
   Grad. Scal. Fac. for Micro threshold ....   0.100
   Minimum threshold for Micro iter.    ....   0.010
   NR start threshold (gradient norm)   ....   0.001
   Initial trust radius                 ....   0.400
   Minimum AH scaling param. (alpha)    ....   1.000
   Maximum AH scaling param. (alpha)    .... 1000.000
   Orbital update algorithm             .... Taylor
   White noise on init. David. guess    .... on
   Maximum white noise                  ....   0.010
   Quad. conv. algorithm                .... NR
   COSX micro iterations for RIJONX calc.... off
 SOSCF                  CNVSOSCF        .... on
   Start iteration      SOSCFMaxIt      ....   150
   Startup grad/error   SOSCFStart      ....  0.003300
 Level Shifting         CNVShift        .... on
   Level shift para.    LevelShift      ....    0.2500
   Turn off err/grad.   ShiftErr        ....    0.0010
 Zerner damping         CNVZerner       .... off
 Static damping         CNVDamp         .... on
   Fraction old density DampFac         ....    0.7000
   Max. Damping (<1)    DampMax         ....    0.9800
   Min. Damping (>=0)   DampMin         ....    0.0000
   Turn off err/grad.   DampErr         ....    0.1000
 Fernandez-Rico         CNVRico         .... off

SCF Procedure:
 Maximum # iterations   MaxIter         ....   125
 SCF integral mode      SCFMode         .... Direct
   Integral package                     .... SHARK and LIBINT hybrid scheme
 Reset frequency        DirectResetFreq ....    20
 Integral Threshold     Thresh          ....  2.500e-11 Eh
 Primitive CutOff       TCut            ....  2.500e-12 Eh

Convergence Tolerance:
 Convergence Check Mode ConvCheckMode   .... Total+1el-Energy
 Convergence forced     ConvForced      .... 0
 Energy Change          TolE            ....  1.000e-08 Eh
 1-El. energy change                    ....  1.000e-05 Eh
 Orbital Gradient       TolG            ....  1.000e-05
 Orbital Rotation angle TolX            ....  1.000e-05
 DIIS Error             TolErr          ....  5.000e-07


Diagonalization of the overlap matrix:
Smallest eigenvalue                        ... 1.343e-03
Time for diagonalization                   ...    0.003 sec
Threshold for overlap eigenvalues          ... 1.000e-08
Number of eigenvalues below threshold      ... 0
Time for construction of square roots      ...    0.016 sec
Total time needed                          ...    0.019 sec

--------------------------------
INITIAL GUESS: MINIMAL BASIS EHT
--------------------------------
The minimal basis has 38 functions
EHT matrix was diagonalized
Basis set overlap was calculated now projecting the orbitals
Using GuessMode=FMatrix for the initial guess
C*T matrix was formed
Effective Fockian was calculated
Effective Fockian was diagonalized
Initial density was built
                      ------------------
                      INITIAL GUESS DONE
                      ------------------
-------------------
DFT GRID GENERATION
-------------------

General Integration Accuracy     IntAcc      ... 4.959
Radial Grid Type                 RadialGrid  ... OptM3 with GC (2021)
Angular Grid (max. ang.)         AngularGrid ... 6 (Lebedev-590)
Angular grid pruning method      GridPruning ... 4 (adaptive)
Weight generation scheme         WeightScheme... Becke
Basis function cutoff            BFCut       ... 1.0000e-11
Integration weight cutoff        WCut        ... 1.0000e-14
Angular grids for H and He will be reduced by one unit
Partially contracted basis set               ... off
Rotationally invariant grid construction     ... off

Total number of grid points                  ...   155985
Total number of batches                      ...     2443
Average number of points per batch           ...       63
Average number of grid points per atom       ...    11142
Time for grid setup =    2.153 sec

--------------------
COSX GRID GENERATION
--------------------

GRIDX 1
-------
General Integration Accuracy     IntAcc      ... 4.020
Radial Grid Type                 RadialGrid  ... OptM3 with GC (2021)
Angular Grid (max. ang.)         AngularGrid ... 2 (Lebedev-110)
Angular grid pruning method      GridPruning ... 4 (adaptive)
Weight generation scheme         WeightScheme... Becke
Basis function cutoff            BFCut       ... 1.0000e-11
Integration weight cutoff        WCut        ... 1.0000e-14
Angular grids for H and He will be reduced by one unit
Partially contracted basis set               ... on
Rotationally invariant grid construction     ... off

Total number of grid points                  ...    16994
Total number of batches                      ...      272
Average number of points per batch           ...       62
Average number of grid points per atom       ...     1214
UseSFitting                                  ... on

GRIDX 2
-------
General Integration Accuracy     IntAcc      ... 4.338
Radial Grid Type                 RadialGrid  ... OptM3 with GC (2021)
Angular Grid (max. ang.)         AngularGrid ... 3 (Lebedev-194)
Angular grid pruning method      GridPruning ... 4 (adaptive)
Weight generation scheme         WeightScheme... Becke
Basis function cutoff            BFCut       ... 1.0000e-11
Integration weight cutoff        WCut        ... 1.0000e-14
Angular grids for H and He will be reduced by one unit
Partially contracted basis set               ... on
Rotationally invariant grid construction     ... off

Total number of grid points                  ...    37298
Total number of batches                      ...      590
Average number of points per batch           ...       63
Average number of grid points per atom       ...     2664
UseSFitting                                  ... on

GRIDX 3
-------
General Integration Accuracy     IntAcc      ... 4.871
Radial Grid Type                 RadialGrid  ... OptM3 with GC (2021)
Angular Grid (max. ang.)         AngularGrid ... 4 (Lebedev-302)
Angular grid pruning method      GridPruning ... 4 (adaptive)
Weight generation scheme         WeightScheme... Becke
Basis function cutoff            BFCut       ... 1.0000e-11
Integration weight cutoff        WCut        ... 1.0000e-14
Angular grids for H and He will be reduced by one unit
Partially contracted basis set               ... on
Rotationally invariant grid construction     ... off

Total number of grid points                  ...    72576
Total number of batches                      ...     1142
Average number of points per batch           ...       63
Average number of grid points per atom       ...     5184
UseSFitting                                  ... on

Time for X-Grid setup             =    1.255 sec

--------------
SCF ITERATIONS
--------------
ITER       Energy         Delta-E        Max-DP      RMS-DP      [F,P]     Damp
               ***  Starting incremental Fock matrix formation  ***
  0   -232.2796598389   0.000000000000 0.08398508  0.00403963  0.4100696 0.7000
  1   -232.4455574292  -0.165897590284 0.06076568  0.00303660  0.2873808 0.7000
  2   -232.5645728633  -0.119015434083 0.04223730  0.00228635  0.2014770 0.7000
                               ***Turning on DIIS***
  3   -232.6495156272  -0.084942763863 0.02967057  0.00171897  0.1416552 0.7000
  4   -232.7100316527  -0.060516025567 0.07581519  0.00457207  0.0994495 0.0000
  5   -232.8557043261  -0.145672673392 0.00811408  0.00033232  0.0071808 0.0000
                      *** Initiating the SOSCF procedure ***
                           *** Shutting down DIIS ***
                      *** Re-Reading the Fockian *** 
                      *** Removing any level shift *** 
ITER      Energy       Delta-E        Grad      Rot      Max-DP    RMS-DP
  6   -232.85598731  -0.0002829824  0.001515  0.001515  0.002994  0.000139
               *** Restarting incremental Fock matrix formation ***
  7   -232.85602515  -0.0000378421  0.000563  0.001661  0.002907  0.000090
  8   -232.85602870  -0.0000035524  0.000604  0.000768  0.001309  0.000044
  9   -232.85603571  -0.0000070048  0.000052  0.000107  0.000168  0.000009
 10   -232.85603572  -0.0000000134  0.000032  0.000047  0.000080  0.000004
 11   -232.85603579  -0.0000000644  0.000007  0.000019  0.000027  0.000001
 12   -232.85603579   0.0000000003  0.000007  0.000009  0.000010  0.000000
                  ***Gradient check signals convergence***
              ***Rediagonalizing the Fockian in SOSCF/NRSCF***

               *****************************************************
               *                     SUCCESS                       *
               *           SCF CONVERGED AFTER  13 CYCLES          *
               *****************************************************

Old exchange energy                            =    -14.233046237 Eh
New exchange energy                            =    -14.233043261 Eh
Exchange energy change after final integration =      0.000002976 Eh
Total energy after final integration           =   -232.856032810 Eh
Final COS-X integration done in                =     2.810 sec

----------------
TOTAL SCF ENERGY
----------------

Total Energy       :         -232.85603281 Eh           -6336.33479 eV

Components:
Nuclear Repulsion  :          211.65419249 Eh            5759.40338 eV
Electronic Energy  :         -444.51022530 Eh          -12095.73817 eV
One Electron Energy:         -731.56790516 Eh          -19906.97475 eV
Two Electron Energy:          287.05767986 Eh            7811.23658 eV
Max COSX asymmetry :            0.00000094 Eh               0.00003 eV

Virial components:
Potential Energy   :         -463.81273391 Eh          -12620.98613 eV
Kinetic Energy     :          230.95670110 Eh            6284.65134 eV
Virial Ratio       :            2.00822376


DFT components:
N(Alpha)           :       21.999999762319 electrons
N(Beta)            :       21.999999762319 electrons
N(Total)           :       43.999999524639 electrons
E(X)               :      -18.880879546108 Eh       
E(C)               :       -1.873411545357 Eh       
E(XC)              :      -20.754291091465 Eh       
DFET-embed. en.    :        0.000000000000 Eh       

---------------
SCF CONVERGENCE
---------------

  Last Energy change         ...   -8.0726e-10  Tolerance :   1.0000e-08
  Last MAX-Density change    ...    7.7716e-16  Tolerance :   1.0000e-07
  Last RMS-Density change    ...    4.0991e-17  Tolerance :   5.0000e-09
  Last Orbital Gradient      ...    2.4140e-07  Tolerance :   1.0000e-05
  Last Orbital Rotation      ...    5.0500e-07  Tolerance :   1.0000e-05

             **** THE GBW FILE WAS UPDATED (pbeh-3c.gbw) ****
             **** DENSITY pbeh-3c.scfp WAS UPDATED ****
             **** ENERGY FILE WAS UPDATED (pbeh-3c.en.tmp) ****
             **** THE GBW FILE WAS UPDATED (pbeh-3c.gbw) ****
             **** DENSITY pbeh-3c.scfp WAS UPDATED ****
----------------
ORBITAL ENERGIES
----------------

  NO   OCC          E(Eh)            E(eV) 
   0   2.0000     -10.451854      -284.4094 
   1   2.0000     -10.445168      -284.2275 
   2   2.0000     -10.443646      -284.1861 
   3   2.0000     -10.443328      -284.1774 
   4   2.0000     -10.442472      -284.1541 
   5   2.0000     -10.431279      -283.8495 
   6   2.0000      -0.963241       -26.2111 
   7   2.0000      -0.859446       -23.3867 
   8   2.0000      -0.740453       -20.1487 
   9   2.0000      -0.727571       -19.7982 
  10   2.0000      -0.632536       -17.2122 
  11   2.0000      -0.587082       -15.9753 
  12   2.0000      -0.568138       -15.4598 
  13   2.0000      -0.516332       -14.0501 
  14   2.0000      -0.496687       -13.5155 
  15   2.0000      -0.447832       -12.1861 
  16   2.0000      -0.445456       -12.1215 
  17   2.0000      -0.394591       -10.7374 
  18   2.0000      -0.389399       -10.5961 
  19   2.0000      -0.367655       -10.0044 
  20   2.0000      -0.304679        -8.2907 
  21   2.0000      -0.289948        -7.8899 
  22   0.0000       0.034095         0.9278 
  23   0.0000       0.057307         1.5594 
  24   0.0000       0.161351         4.3906 
  25   0.0000       0.174208         4.7405 
  26   0.0000       0.178629         4.8607 
  27   0.0000       0.185365         5.0440 
  28   0.0000       0.196805         5.3553 
  29   0.0000       0.218583         5.9479 
  30   0.0000       0.227854         6.2002 
  31   0.0000       0.232662         6.3310 
  32   0.0000       0.257813         7.0154 
  33   0.0000       0.276577         7.5260 
  34   0.0000       0.320732         8.7276 
  35   0.0000       0.346088         9.4175 
  36   0.0000       0.372700        10.1417 
  37   0.0000       0.418431        11.3861 
  38   0.0000       0.480535        13.0760 
  39   0.0000       0.503532        13.7018 
  40   0.0000       0.524637        14.2761 
  41   0.0000       0.552673        15.0390 
  42   0.0000       0.564928        15.3725 
  43   0.0000       0.591243        16.0885 
  44   0.0000       0.607473        16.5302 
  45   0.0000       0.628634        17.1060 
  46   0.0000       0.645734        17.5713 
  47   0.0000       0.659372        17.9424 
  48   0.0000       0.689744        18.7689 
  49   0.0000       0.702601        19.1187 
  50   0.0000       0.741011        20.1639 
  51   0.0000       0.771831        21.0026 
  52   0.0000       0.810242        22.0478 
  53   0.0000       0.845507        23.0074 
  54   0.0000       0.874698        23.8017 
  55   0.0000       0.934825        25.4379 
  56   0.0000       0.942948        25.6589 
  57   0.0000       0.986372        26.8405 
  58   0.0000       1.009297        27.4644 
  59   0.0000       1.010383        27.4939 
  60   0.0000       1.028115        27.9764 
  61   0.0000       1.051795        28.6208 
  62   0.0000       1.077363        29.3165 
  63   0.0000       1.096267        29.8309 
  64   0.0000       1.140085        31.0233 
  65   0.0000       1.171354        31.8742 
  66   0.0000       1.188614        32.3438 
  67   0.0000       1.230311        33.4785 
  68   0.0000       1.343685        36.5635 
  69   0.0000       1.379093        37.5270 
  70   0.0000       1.526253        41.5315 
  71   0.0000       1.560832        42.4724 
  72   0.0000       1.583303        43.0839 
  73   0.0000       1.603314        43.6284 
  74   0.0000       1.677944        45.6592 
  75   0.0000       1.751293        47.6551 
  76   0.0000       1.849379        50.3242 
  77   0.0000       1.887887        51.3720 
  78   0.0000       1.972007        53.6610 
  79   0.0000       2.012031        54.7501 
  80   0.0000       2.034400        55.3588 
  81   0.0000       2.045005        55.6474 
  82   0.0000       2.115703        57.5712 
  83   0.0000       2.141785        58.2809 
  84   0.0000       2.190847        59.6160 
  85   0.0000       2.263927        61.6046 
  86   0.0000       2.281295        62.0772 
  87   0.0000       2.305444        62.7343 
  88   0.0000       2.346709        63.8572 
  89   0.0000       2.431034        66.1518 
  90   0.0000       2.482370        67.5487 
  91   0.0000       2.501781        68.0769 
  92   0.0000       2.535359        68.9906 
  93   0.0000       2.592369        70.5419 
  94   0.0000       2.641662        71.8833 
  95   0.0000       2.675828        72.8130 
  96   0.0000       2.872822        78.1734 
  97   0.0000       2.952456        80.3404 
  98   0.0000       2.977360        81.0181 
  99   0.0000       3.042017        82.7775 
 100   0.0000      13.357062       363.4641 
 101   0.0000      13.518007       367.8437 
 102   0.0000      13.822052       376.1171 
 103   0.0000      13.974586       380.2678 
 104   0.0000      14.171282       385.6202 
 105   0.0000      14.337432       390.1414 

                    ********************************
                    * MULLIKEN POPULATION ANALYSIS *
                    ********************************

-----------------------
MULLIKEN ATOMIC CHARGES
-----------------------
   0 C :   -0.354830
   1 C :   -0.430403
   2 C :   -0.152187
   3 C :   -0.209395
   4 C :   -0.090288
   5 C :   -0.498474
   6 H :    0.228834
   7 H :    0.229251
   8 H :    0.227412
   9 H :    0.206440
  10 H :    0.203664
  11 H :    0.215186
  12 H :    0.215302
  13 H :    0.209488
Sum of atomic charges:    0.0000000

--------------------------------
MULLIKEN REDUCED ORBITAL CHARGES
--------------------------------
  0 C s       :     3.333671  s :     3.333671
      pz      :     1.122977  p :     2.968972
      px      :     0.915669
      py      :     0.930326
      dz2     :     0.013104  d :     0.052187
      dxz     :     0.011600
      dyz     :     0.004578
      dx2y2   :     0.008649
      dxy     :     0.014256
  1 C s       :     3.329226  s :     3.329226
      pz      :     1.134307  p :     3.056214
      px      :     0.945858
      py      :     0.976050
      dz2     :     0.005942  d :     0.044963
      dxz     :     0.004951
      dyz     :     0.015437
      dx2y2   :     0.006576
      dxy     :     0.012057
  2 C s       :     3.262706  s :     3.262706
      pz      :     0.970838  p :     2.846804
      px      :     0.914343
      py      :     0.961622
      dz2     :     0.004854  d :     0.042677
      dxz     :     0.004606
      dyz     :     0.005058
      dx2y2   :     0.016070
      dxy     :     0.012089
  3 C s       :     3.283604  s :     3.283604
      pz      :     0.972699  p :     2.882559
      px      :     0.990926
      py      :     0.918934
      dz2     :     0.003753  d :     0.043232
      dxz     :     0.006485
      dyz     :     0.005702
      dx2y2   :     0.015115
      dxy     :     0.012177
  4 C s       :     3.202485  s :     3.202485
      pz      :     1.018014  p :     2.847062
      px      :     0.866243
      py      :     0.962805
      dz2     :     0.013258  d :     0.040741
      dxz     :     0.011723
      dyz     :     0.001268
      dx2y2   :     0.005843
      dxy     :     0.008649
  5 C s       :     3.327916  s :     3.327916
      pz      :     1.087305  p :     3.137722
      px      :     1.019166
      py      :     1.031251
      dz2     :     0.009670  d :     0.032836
      dxz     :     0.012034
      dyz     :     0.000661
      dx2y2   :     0.005555
      dxy     :     0.004917
  6 H s       :     0.771166  s :     0.771166
  7 H s       :     0.770749  s :     0.770749
  8 H s       :     0.772588  s :     0.772588
  9 H s       :     0.793560  s :     0.793560
 10 H s       :     0.796336  s :     0.796336
 11 H s       :     0.784814  s :     0.784814
 12 H s       :     0.784698  s :     0.784698
 13 H s       :     0.790512  s :     0.790512


                     *******************************
                     * LOEWDIN POPULATION ANALYSIS *
                     *******************************

----------------------
LOEWDIN ATOMIC CHARGES
----------------------
   0 C :   -0.130773
   1 C :   -0.217053
   2 C :   -0.135022
   3 C :   -0.137062
   4 C :   -0.134157
   5 C :   -0.274912
   6 H :    0.130165
   7 H :    0.129805
   8 H :    0.128949
   9 H :    0.126233
  10 H :    0.123792
  11 H :    0.130346
  12 H :    0.131825
  13 H :    0.127863

-------------------------------
LOEWDIN REDUCED ORBITAL CHARGES
-------------------------------
  0 C s       :     2.877645  s :     2.877645
      pz      :     1.093210  p :     3.143195
      px      :     1.014436
      py      :     1.035549
      dz2     :     0.024955  d :     0.109933
      dxz     :     0.024971
      dyz     :     0.009005
      dx2y2   :     0.017180
      dxy     :     0.033822
  1 C s       :     2.925079  s :     2.925079
      pz      :     1.115529  p :     3.203546
      px      :     1.041455
      py      :     1.046563
      dz2     :     0.010791  d :     0.088428
      dxz     :     0.009223
      dyz     :     0.028316
      dx2y2   :     0.012833
      dxy     :     0.027265
  2 C s       :     2.929548  s :     2.929548
      pz      :     0.990549  p :     3.113595
      px      :     1.049692
      py      :     1.073353
      dz2     :     0.009153  d :     0.091879
      dxz     :     0.009502
      dyz     :     0.008963
      dx2y2   :     0.033177
      dxy     :     0.031083
  3 C s       :     2.925761  s :     2.925761
      pz      :     0.980974  p :     3.117758
      px      :     1.068671
      py      :     1.068113
      dz2     :     0.006311  d :     0.093543
      dxz     :     0.010972
      dyz     :     0.012425
      dx2y2   :     0.032289
      dxy     :     0.031547
  4 C s       :     2.911714  s :     2.911714
      pz      :     1.086751  p :     3.130933
      px      :     1.093851
      py      :     0.950331
      dz2     :     0.026738  d :     0.091510
      dxz     :     0.030001
      dyz     :     0.002327
      dx2y2   :     0.015418
      dxy     :     0.017027
  5 C s       :     2.961800  s :     2.961800
      pz      :     1.101732  p :     3.245895
      px      :     1.113118
      py      :     1.031044
      dz2     :     0.018909  d :     0.067217
      dxz     :     0.026602
      dyz     :     0.001139
      dx2y2   :     0.012184
      dxy     :     0.008384
  6 H s       :     0.869835  s :     0.869835
  7 H s       :     0.870195  s :     0.870195
  8 H s       :     0.871051  s :     0.871051
  9 H s       :     0.873767  s :     0.873767
 10 H s       :     0.876208  s :     0.876208
 11 H s       :     0.869654  s :     0.869654
 12 H s       :     0.868175  s :     0.868175
 13 H s       :     0.872137  s :     0.872137


                      *****************************
                      * MAYER POPULATION ANALYSIS *
                      *****************************

  NA   - Mulliken gross atomic population
  ZA   - Total nuclear charge
  QA   - Mulliken gross atomic charge
  VA   - Mayer's total valence
  BVA  - Mayer's bonded valence
  FA   - Mayer's free valence

  ATOM       NA         ZA         QA         VA         BVA        FA
  0 C      6.3548     6.0000    -0.3548     3.7730     3.7730    -0.0000
  1 C      6.4304     6.0000    -0.4304     3.7044     3.7044     0.0000
  2 C      6.1522     6.0000    -0.1522     3.7199     3.7199     0.0000
  3 C      6.2094     6.0000    -0.2094     3.7677     3.7677     0.0000
  4 C      6.0903     6.0000    -0.0903     3.7390     3.7390    -0.0000
  5 C      6.4985     6.0000    -0.4985     3.8145     3.8145    -0.0000
  6 H      0.7712     1.0000     0.2288     0.9096     0.9096    -0.0000
  7 H      0.7707     1.0000     0.2293     0.9071     0.9071     0.0000
  8 H      0.7726     1.0000     0.2274     0.9084     0.9084     0.0000
  9 H      0.7936     1.0000     0.2064     0.9262     0.9262     0.0000
 10 H      0.7963     1.0000     0.2037     0.9285     0.9285     0.0000
 11 H      0.7848     1.0000     0.2152     0.9141     0.9141    -0.0000
 12 H      0.7847     1.0000     0.2153     0.9238     0.9238    -0.0000
 13 H      0.7905     1.0000     0.2095     0.9244     0.9244     0.0000

  Mayer bond orders larger than 0.100000
B(  0-C ,  1-C ) :   0.9403 B(  0-C ,  2-C ) :   0.9985 B(  0-C ,  4-C ) :   0.9799 
B(  0-C ,  6-H ) :   0.9062 B(  1-C ,  3-C ) :   1.0104 B(  1-C ,  7-H ) :   0.9095 
B(  1-C ,  8-H ) :   0.9118 B(  2-C ,  3-C ) :   1.8572 B(  2-C ,  9-H ) :   0.9272 
B(  3-C , 10-H ) :   0.9285 B(  4-C ,  5-C ) :   1.9187 B(  4-C , 11-H ) :   0.9165 
B(  5-C , 12-H ) :   0.9296 B(  5-C , 13-H ) :   0.9303 

-------
TIMINGS
-------

Total SCF time: 0 days 0 hours 0 min 44 sec 

Total time                  ....      44.102 sec
Sum of individual times     ....      41.716 sec  ( 94.6%)

Fock matrix formation       ....      35.502 sec  ( 80.5%)
  Split-RI-J                ....       2.959 sec  (  8.3% of F)
  Chain of spheres X        ....      16.593 sec  ( 46.7% of F)
  XC integration            ....      10.004 sec  ( 28.2% of F)
    Basis function eval.    ....       2.255 sec  ( 22.5% of XC)
    Density eval.           ....       1.392 sec  ( 13.9% of XC)
    XC-Functional eval.     ....       1.257 sec  ( 12.6% of XC)
    XC-Potential eval.      ....       0.826 sec  (  8.3% of XC)
Diagonalization             ....       0.799 sec  (  1.8%)
Density matrix formation    ....       0.083 sec  (  0.2%)
Population analysis         ....       0.056 sec  (  0.1%)
Initial guess               ....       0.012 sec  (  0.0%)
Orbital Transformation      ....       0.000 sec  (  0.0%)
Orbital Orthonormalization  ....       0.000 sec  (  0.0%)
DIIS solution               ....       0.427 sec  (  1.0%)
SOSCF solution              ....       1.429 sec  (  3.2%)
Grid generation             ....       3.407 sec  (  7.7%)

Maximum memory used throughout the entire SCF-calculation: 51.8 MB


-------------------------------------------------------------------------------
                          DFT DISPERSION CORRECTION                            
                                                                               
                              DFTD3 V3.1  Rev 1                                
                          USING Becke-Johnson damping                          
-------------------------------------------------------------------------------
The PBEh-3c composite method is recognized
Using three-body term ABC
Active option DFTDOPT                   ...         4   

molecular C6(AA) [au] = 1802.363354 


            DFT-D V3
 parameters
 s6 scaling factor         :     1.0000 
 a1 scaling factor         :     0.4860 
 s8 scaling factor         :     0.0000 
 a2 scaling factor         :     4.5000 
 Damping factor alpha9(ATM):    16.0000 
 ad hoc parameters k1-k3   :    16.0000     1.3333    -4.0000 

 Edisp/kcal,au: -3.926842270708  -0.006257820820 
 E6   /kcal   :  -3.936801618 
 E8   /kcal   :  -0.000000000 
 E6(ABC)      :   0.009959347 
 % E8         :   0.000000000 
 % E6(ABC)    :  -0.253622283 

-------------------------   ----------------
Dispersion correction           -0.006257821
-------------------------   ----------------

------------------   -----------------
gCP correction             0.017855524
------------------   -----------------

-------------------------   --------------------
FINAL SINGLE POINT ENERGY      -232.844435107256
-------------------------   --------------------


                            ***************************************
                            *     ORCA property calculations      *
                            ***************************************

                                    ---------------------
                                    Active property flags
                                    ---------------------
   (+) Dipole Moment


------------------------------------------------------------------------------
                       ORCA ELECTRIC PROPERTIES CALCULATION
------------------------------------------------------------------------------

Dipole Moment Calculation                       ... on
Quadrupole Moment Calculation                   ... off
Polarizability Calculation                      ... off
GBWName                                         ... pbeh-3c.gbw
Electron density                                ... pbeh-3c.scfp
The origin for moment calculation is the CENTER OF MASS  = ( 0.031261, -0.023580 -0.002438)

-------------
DIPOLE MOMENT
-------------
                                X             Y             Z
Electronic contribution:      1.48127      -0.99118      -0.10503
Nuclear contribution   :     -1.37548       1.03754       0.10727
                        -----------------------------------------
Total Dipole Moment    :      0.10579       0.04636       0.00223
                        -----------------------------------------
Magnitude (a.u.)       :      0.11552
Magnitude (Debye)      :      0.29364



--------------------
Rotational spectrum 
--------------------
 
Rotational constants in cm-1:     0.338593     0.079106     0.071107 
Rotational constants in MHz : 10150.771389  2371.524672  2131.735102 

 Dipole components along the rotational axes: 
x,y,z [a.u.] :    -0.105514     0.046994     0.001983 
x,y,z [Debye]:    -0.268196     0.119448     0.005041 

 

Timings for individual modules:

Sum of individual times         ...       45.258 sec (=   0.754 min)
GTO integral calculation        ...        0.850 sec (=   0.014 min)   1.9 %
SCF iterations                  ...       44.408 sec (=   0.740 min)  98.1 %
                             ****ORCA TERMINATED NORMALLY****
TOTAL RUN TIME: 0 days 0 hours 0 minutes 47 seconds 260 msec
