
                                 *****************
                                 * O   R   C   A *
                                 *****************

                                            #,                                       
                                            ###                                      
                                            ####                                     
                                            #####                                    
                                            ######                                   
                                           ########,                                 
                                     ,,################,,,,,                         
                               ,,#################################,,                 
                          ,,##########################################,,             
                       ,#########################################, ''#####,          
                    ,#############################################,,   '####,        
                  ,##################################################,,,,####,       
                ,###########''''           ''''###############################       
              ,#####''   ,,,,##########,,,,          '''####'''          '####       
            ,##' ,,,,###########################,,,                        '##       
           ' ,,###''''                  '''############,,,                           
         ,,##''                                '''############,,,,        ,,,,,,###''
      ,#''                                            '''#######################'''  
     '                                                          ''''####''''         
             ,#######,   #######,   ,#######,      ##                                
            ,#'     '#,  ##    ##  ,#'     '#,    #''#        ######   ,####,        
            ##       ##  ##   ,#'  ##            #'  '#       #        #'  '#        
            ##       ##  #######   ##           ,######,      #####,   #    #        
            '#,     ,#'  ##    ##  '#,     ,#' ,#      #,         ##   #,  ,#        
             '#######'   ##     ##  '#######'  #'      '#     #####' # '####'        



                  #######################################################
                  #                        -***-                        #
                  #          Department of theory and spectroscopy      #
                  #    Directorship and core code : Frank Neese         #
                  #        Max Planck Institute fuer Kohlenforschung    #
                  #                Kaiser Wilhelm Platz 1               #
                  #                 D-45470 Muelheim/Ruhr               #
                  #                      Germany                        #
                  #                                                     #
                  #                  All rights reserved                #
                  #                        -***-                        #
                  #######################################################


                         Program Version 5.0.3 -  RELEASE  -


 With contributions from (in alphabetic order):
   Daniel Aravena         : Magnetic Suceptibility
   Michael Atanasov       : Ab Initio Ligand Field Theory (pilot matlab implementation)
   Alexander A. Auer      : GIAO ZORA, VPT2 properties, NMR spectrum
   Ute Becker             : Parallelization
   Giovanni Bistoni       : ED, misc. LED, open-shell LED, HFLD
   Martin Brehm           : Molecular dynamics
   Dmytro Bykov           : SCF Hessian
   Vijay G. Chilkuri      : MRCI spin determinant printing, contributions to CSF-ICE
   Dipayan Datta          : RHF DLPNO-CCSD density
   Achintya Kumar Dutta   : EOM-CC, STEOM-CC
   Dmitry Ganyushin       : Spin-Orbit,Spin-Spin,Magnetic field MRCI
   Miquel Garcia          : C-PCM and meta-GGA Hessian, CC/C-PCM, Gaussian charge scheme
   Yang Guo               : DLPNO-NEVPT2, F12-NEVPT2, CIM, IAO-localization
   Andreas Hansen         : Spin unrestricted coupled pair/coupled cluster methods
   Benjamin Helmich-Paris : MC-RPA, TRAH-SCF, COSX integrals
   Lee Huntington         : MR-EOM, pCC
   Robert Izsak           : Overlap fitted RIJCOSX, COSX-SCS-MP3, EOM
   Marcus Kettner         : VPT2
   Christian Kollmar      : KDIIS, OOCD, Brueckner-CCSD(T), CCSD density, CASPT2, CASPT2-K
   Simone Kossmann        : Meta GGA functionals, TD-DFT gradient, OOMP2, MP2 Hessian
   Martin Krupicka        : Initial AUTO-CI
   Lucas Lang             : DCDCAS
   Marvin Lechner         : AUTO-CI (C++ implementation), FIC-MRCC
   Dagmar Lenk            : GEPOL surface, SMD
   Dimitrios Liakos       : Extrapolation schemes; Compound Job, initial MDCI parallelization
   Dimitrios Manganas     : Further ROCIS development; embedding schemes
   Dimitrios Pantazis     : SARC Basis sets
   Anastasios Papadopoulos: AUTO-CI, single reference methods and gradients
   Taras Petrenko         : DFT Hessian,TD-DFT gradient, ASA, ECA, R-Raman, ABS, FL, XAS/XES, NRVS
   Peter Pinski           : DLPNO-MP2, DLPNO-MP2 Gradient
   Christoph Reimann      : Effective Core Potentials
   Marius Retegan         : Local ZFS, SOC
   Christoph Riplinger    : Optimizer, TS searches, QM/MM, DLPNO-CCSD(T), (RO)-DLPNO pert. Triples
   Tobias Risthaus        : Range-separated hybrids, TD-DFT gradient, RPA, STAB
   Michael Roemelt        : Original ROCIS implementation
   Masaaki Saitow         : Open-shell DLPNO-CCSD energy and density
   Barbara Sandhoefer     : DKH picture change effects
   Avijit Sen             : IP-ROCIS
   Kantharuban Sivalingam : CASSCF convergence, NEVPT2, FIC-MRCI
   Bernardo de Souza      : ESD, SOC TD-DFT
   Georgi Stoychev        : AutoAux, RI-MP2 NMR, DLPNO-MP2 response
   Willem Van den Heuvel  : Paramagnetic NMR
   Boris Wezisla          : Elementary symmetry handling
   Frank Wennmohs         : Technical directorship


 We gratefully acknowledge several colleagues who have allowed us to
 interface, adapt or use parts of their codes:
   Stefan Grimme, W. Hujo, H. Kruse, P. Pracht,  : VdW corrections, initial TS optimization,
                  C. Bannwarth, S. Ehlert          DFT functionals, gCP, sTDA/sTD-DF
   Ed Valeev, F. Pavosevic, A. Kumar             : LibInt (2-el integral package), F12 methods
   Garnet Chan, S. Sharma, J. Yang, R. Olivares  : DMRG
   Ulf Ekstrom                                   : XCFun DFT Library
   Mihaly Kallay                                 : mrcc  (arbitrary order and MRCC methods)
   Jiri Pittner, Ondrej Demel                    : Mk-CCSD
   Frank Weinhold                                : gennbo (NPA and NBO analysis)
   Christopher J. Cramer and Donald G. Truhlar   : smd solvation model
   Lars Goerigk                                  : TD-DFT with DH, B97 family of functionals
   V. Asgeirsson, H. Jonsson                     : NEB implementation
   FAccTs GmbH                                   : IRC, NEB, NEB-TS, DLPNO-Multilevel, CI-OPT
                                                   MM, QMMM, 2- and 3-layer-ONIOM, Crystal-QMMM,
                                                   LR-CPCM, SF, NACMEs, symmetry and pop. for TD-DFT,
                                                   nearIR, NL-DFT gradient (VV10), updates on ESD,
                                                   ML-optimized integration grids
   S Lehtola, MJT Oliveira, MAL Marques          : LibXC Library
   Liviu Ungur et al                             : ANISO software


 Your calculation uses the libint2 library for the computation of 2-el integrals
 For citations please refer to: http://libint.valeyev.net

 Your ORCA version has been built with support for libXC version: 5.1.0
 For citations please refer to: https://tddft.org/programs/libxc/

 This ORCA versions uses:
   CBLAS   interface :  Fast vector & matrix operations
   LAPACKE interface :  Fast linear algebra routines
   SCALAPACK package :  Parallel linear algebra routines
   Shared memory     :  Shared parallel matrices
   BLAS/LAPACK       :  OpenBLAS 0.3.15  USE64BITINT DYNAMIC_ARCH NO_AFFINITY Haswell SINGLE_THREADED
        Core in use  :  Haswell
   Copyright (c) 2011-2014, The OpenBLAS Project




***************************************
The coordinates will be read from file: pentadiene.xyz
***************************************


Your calculation utilizes the geometrical counterpoise correction gCP
Please cite in your paper:
H.Kruse, S. Grimme J.Chem.Phys., 136, (2012), 154101 
   

Your calculation utilizes the atom-pairwise dispersion correction
with the Becke-Johnson damping scheme (D3BJ)
Cite in your paper:
S.Grimme, S.Ehrlich, L.Goerigk, J Comput Chem, (2011), 32, 1456–1465 
S.Grimme, J.Antony, S.Ehrlich and H.Krieg, J.Chem.Phys., 132, (2010), 154104 
   

Your calculation employs the composite approach PBEh-3c.
Please cite in your paper:
S. Grimme, J. G. Brandenburg, C. Bannwarth, A. Hansen J.Chem.Phys., 143, (2015), 054107 
   

================================================================================

----- Orbital basis set information -----
Your calculation utilizes the basis: def2-mSVP

----- AuxJ basis set information -----
Your calculation utilizes the auxiliary basis: def2/J
   F. Weigend, Phys. Chem. Chem. Phys. 8, 1057 (2006).

================================================================================
                                        WARNINGS
                       Please study these warnings very carefully!
================================================================================


INFO   : the flag for use of the SHARK integral package has been found!

================================================================================
                                       INPUT FILE
================================================================================
NAME = pbeh-3c.inp
|  1> ! PBEh-3c def2/J TightSCF DefGrid3
|  2> 
|  3> %maxcore 60000
|  4> 
|  5> %pal
|  6> nprocs 4
|  7> end
|  8> 
|  9> *xyzfile 0 1 pentadiene.xyz
| 10> 
| 11>                          ****END OF INPUT****
================================================================================

                       ****************************
                       * Single Point Calculation *
                       ****************************

---------------------------------
CARTESIAN COORDINATES (ANGSTROEM)
---------------------------------
  C     -1.736135   -0.778479   -1.361921
  H     -1.191624   -1.713149   -1.553747
  H     -1.942816   -0.296088   -2.331683
  H     -2.718070   -1.034945   -0.930967
  C     -0.969065    0.132043   -0.457882
  H     -1.442544    1.090117   -0.211949
  C      0.243009   -0.132618    0.068039
  H      0.729278   -1.086619   -0.169546
  C      0.970292    0.768610    0.941154
  H      0.475887    1.717842    1.176699
  C      2.184097    0.517049    1.463724
  H      2.686286    1.232435    2.114376
  H      2.711405   -0.416199    1.253702

----------------------------
CARTESIAN COORDINATES (A.U.)
----------------------------
  NO LB      ZA    FRAG     MASS         X           Y           Z
   0 C     6.0000    0    12.011   -3.280820   -1.471112   -2.573657
   1 H     1.0000    0     1.008   -2.251843   -3.237383   -2.936157
   2 H     1.0000    0     1.008   -3.671390   -0.559525   -4.406242
   3 H     1.0000    0     1.008   -5.136408   -1.955762   -1.759272
   4 C     6.0000    0    12.011   -1.831267    0.249525   -0.865271
   5 H     1.0000    0     1.008   -2.726013    2.060023   -0.400526
   6 C     6.0000    0    12.011    0.459221   -0.250612    0.128575
   7 H     1.0000    0     1.008    1.378137   -2.053412   -0.320395
   8 C     6.0000    0    12.011    1.833586    1.452463    1.778523
   9 H     1.0000    0     1.008    0.899296    3.246251    2.223638
  10 C     6.0000    0    12.011    4.127344    0.977080    2.766038
  11 H     1.0000    0     1.008    5.076345    2.328964    3.995591
  12 H     1.0000    0     1.008    5.123812   -0.786502    2.369154

--------------------------------
INTERNAL COORDINATES (ANGSTROEM)
--------------------------------
 C      0   0   0     0.000000000000     0.00000000     0.00000000
 H      1   0   0     1.098589287555     0.00000000     0.00000000
 H      1   2   0     1.102658764900   108.15210193     0.00000000
 H      1   2   3     1.102584365527   108.16536952   114.59015244
 C      1   2   3     1.494902641659   111.68307342   237.32668976
 H      5   1   2     1.096618112742   116.50078936   180.11623637
 C      5   1   2     1.347502345181   125.30665673     0.18570836
 H      7   5   1     1.096822915243   119.01755783   359.96879933
 C      7   5   1     1.450338951928   124.33088209   179.84287306
 H      9   7   5     1.095882422534   116.19320349     0.35164545
 C      9   7   5     1.345245378991   124.75817926   180.46183863
 H     11   9   7     1.089641710664   121.67024786   179.91192216
 H     11   9   7     1.092297392172   121.37678241   359.92207962

---------------------------
INTERNAL COORDINATES (A.U.)
---------------------------
 C      0   0   0     0.000000000000     0.00000000     0.00000000
 H      1   0   0     2.076032887138     0.00000000     0.00000000
 H      1   2   0     2.083723084830   108.15210193     0.00000000
 H      1   2   3     2.083582490389   108.16536952   114.59015244
 C      1   2   3     2.824956589611   111.68307342   237.32668976
 H      5   1   2     2.072307906580   116.50078936   180.11623637
 C      5   1   2     2.546410397209   125.30665673     0.18570836
 H      7   5   1     2.072694927218   119.01755783   359.96879933
 C      7   5   1     2.740743420503   124.33088209   179.84287306
 H      9   7   5     2.070917653567   116.19320349     0.35164545
 C      9   7   5     2.542145349215   124.75817926   180.46183863
 H     11   9   7     2.059124417253   121.67024786   179.91192216
 H     11   9   7     2.064142928002   121.37678241   359.92207962

---------------------
BASIS SET INFORMATION
---------------------
There are 2 groups of distinct atoms

 Group   1 Type C   : 8s4p1d contracted to 4s2p1d pattern {5111/31/1}
 Group   2 Type H   : 4s contracted to 2s pattern {31}

Atom   0C    basis set group =>   1
Atom   1H    basis set group =>   2
Atom   2H    basis set group =>   2
Atom   3H    basis set group =>   2
Atom   4C    basis set group =>   1
Atom   5H    basis set group =>   2
Atom   6C    basis set group =>   1
Atom   7H    basis set group =>   2
Atom   8C    basis set group =>   1
Atom   9H    basis set group =>   2
Atom  10C    basis set group =>   1
Atom  11H    basis set group =>   2
Atom  12H    basis set group =>   2
---------------------------------
AUXILIARY/J BASIS SET INFORMATION
---------------------------------
There are 2 groups of distinct atoms

 Group   1 Type C   : 12s5p4d2f1g contracted to 6s4p3d1f1g pattern {711111/2111/211/2/1}
 Group   2 Type H   : 5s2p1d contracted to 3s1p1d pattern {311/2/1}

Atom   0C    basis set group =>   1
Atom   1H    basis set group =>   2
Atom   2H    basis set group =>   2
Atom   3H    basis set group =>   2
Atom   4C    basis set group =>   1
Atom   5H    basis set group =>   2
Atom   6C    basis set group =>   1
Atom   7H    basis set group =>   2
Atom   8C    basis set group =>   1
Atom   9H    basis set group =>   2
Atom  10C    basis set group =>   1
Atom  11H    basis set group =>   2
Atom  12H    basis set group =>   2


           ************************************************************
           *        Program running with 4 parallel MPI-processes     *
           *              working on a common directory               *
           ************************************************************
------------------------------------------------------------------------------
                           ORCA GTO INTEGRAL CALCULATION
                           -- RI-GTO INTEGRALS CHOSEN --
------------------------------------------------------------------------------
------------------------------------------------------------------------------
                   ___                                                        
                  /   \      - P O W E R E D   B Y -                         
                 /     \                                                     
                 |  |  |   _    _      __       _____    __    __             
                 |  |  |  | |  | |    /  \     |  _  \  |  |  /  |          
                  \  \/   | |  | |   /    \    | | | |  |  | /  /          
                 / \  \   | |__| |  /  /\  \   | |_| |  |  |/  /          
                |  |  |   |  __  | /  /__\  \  |    /   |      \           
                |  |  |   | |  | | |   __   |  |    \   |  |\   \          
                \     /   | |  | | |  |  |  |  | |\  \  |  | \   \       
                 \___/    |_|  |_| |__|  |__|  |_| \__\ |__|  \__/        
                                                                              
                      - O R C A' S   B I G   F R I E N D -                    
                                      &                                       
                       - I N T E G R A L  F E E D E R -                       
                                                                              
 v1 FN, 2020, v2 2021                                                         
------------------------------------------------------------------------------


Reading SHARK input file pbeh-3c.SHARKINP.tmp ... ok
----------------------
SHARK INTEGRAL PACKAGE
----------------------

Number of atoms                             ...     13
Number of basis functions                   ...     91
Number of shells                            ...     51
Maximum angular momentum                    ...      2
Integral batch strategy                     ... SHARK/LIBINT Hybrid
RI-J (if used) integral strategy            ... SPLIT-RIJ (Revised 2003 algorithm where possible)
Printlevel                                  ...      1
Contraction scheme used                     ... SEGMENTED contraction
Coulomb Range Separation                    ... NOT USED
Exchange Range Separation                   ... NOT USED
Finite Nucleus Model                        ... NOT USED
Auxiliary Coulomb fitting basis             ... AVAILABLE
   # of basis functions in Aux-J            ...    333
   # of shells in Aux-J                     ...    115
   Maximum angular momentum in Aux-J        ...      4
Auxiliary J/K fitting basis                 ... NOT available
Auxiliary Correlation fitting basis         ... NOT available
Auxiliary 'external' fitting basis          ... NOT available
Integral threshold                          ...     2.500000e-11
Primitive cut-off                           ...     2.500000e-12
Primitive pair pre-selection threshold      ...     2.500000e-12

Calculating pre-screening integrals         ... done (  0.1 sec) Dimension = 51
Organizing shell pair data                  ... done (  0.3 sec)
Shell pair information
Total number of shell pairs                 ...      1326
Shell pairs after pre-screening             ...      1222
Total number of primitive shell pairs       ...      4842
Primitive shell pairs kept                  ...      3323
          la=0 lb=0:    592 shell pairs
          la=1 lb=0:    350 shell pairs
          la=1 lb=1:     55 shell pairs
          la=2 lb=0:    161 shell pairs
          la=2 lb=1:     50 shell pairs
          la=2 lb=2:     14 shell pairs

Calculating one electron integrals          ... done (  0.0 sec)
Calculating RI/J V-Matrix + Cholesky decomp.... done (  0.5 sec)
Calculating Nuclear repulsion               ... done (  0.0 sec) ENN=    153.028072927914 Eh

SHARK setup successfully completed in   1.9 seconds

Maximum memory used throughout the entire GTOINT-calculation: 9.9 MB


           ************************************************************
           *        Program running with 4 parallel MPI-processes     *
           *              working on a common directory               *
           ************************************************************
-------------------------------------------------------------------------------
                                 ORCA SCF
-------------------------------------------------------------------------------

------------
SCF SETTINGS
------------
Hamiltonian:
 Density Functional     Method          .... DFT(GTOs)
 Exchange Functional    Exchange        .... PBE
   PBE kappa parameter   XKappa         ....  1.024500
   PBE mue parameter    XMuePBE         ....  0.123457
 Correlation Functional Correlation     .... PBE
   PBE beta parameter  CBetaPBE         ....  0.030000
 LDA part of GGA corr.  LDAOpt          .... PW91-LDA
 Gradients option       PostSCFGGA      .... off
 Hybrid DFT is turned on
   Fraction HF Exchange ScalHFX         ....  0.420000
   Scaling of DF-GGA-X  ScalDFX         ....  0.580000
   Scaling of DF-GGA-C  ScalDFC         ....  1.000000
   Scaling of DF-LDA-C  ScalLDAC        ....  1.000000
   Perturbative correction              ....  0.000000
   Density functional embedding theory  .... OFF
 RI-approximation to the Coulomb term is turned on
   Number of AuxJ basis functions       .... 333
   RIJ-ON(X) (HFX calculated with O(N)) .... on
   Number of AuxJ basis functions       .... 333
   RIJ-COSX (HFX calculated with COS-X)).... on


General Settings:
 Integral files         IntName         .... pbeh-3c
 Hartree-Fock type      HFTyp           .... RHF
 Total Charge           Charge          ....    0
 Multiplicity           Mult            ....    1
 Number of Electrons    NEL             ....   38
 Basis Dimension        Dim             ....   91
 Nuclear Repulsion      ENuc            ....    153.0280729279 Eh

Convergence Acceleration:
 DIIS                   CNVDIIS         .... on
   Start iteration      DIISMaxIt       ....    12
   Startup error        DIISStart       ....  0.200000
   # of expansion vecs  DIISMaxEq       ....     5
   Bias factor          DIISBfac        ....   1.050
   Max. coefficient     DIISMaxC        ....  10.000
 Trust-Rad. Augm. Hess. CNVTRAH         .... auto
   Auto Start mean grad. ratio tolernc. ....  1.125000
   Auto Start start iteration           ....    20
   Auto Start num. interpolation iter.  ....    10
   Max. Number of Micro iterations      ....    16
   Max. Number of Macro iterations      .... Maxiter - #DIIS iter
   Number of Davidson start vectors     ....     2
   Converg. threshold I  (grad. norm)   ....   1.000e-05
   Converg. threshold II (energy diff.) ....   1.000e-08
   Grad. Scal. Fac. for Micro threshold ....   0.100
   Minimum threshold for Micro iter.    ....   0.010
   NR start threshold (gradient norm)   ....   0.001
   Initial trust radius                 ....   0.400
   Minimum AH scaling param. (alpha)    ....   1.000
   Maximum AH scaling param. (alpha)    .... 1000.000
   Orbital update algorithm             .... Taylor
   White noise on init. David. guess    .... on
   Maximum white noise                  ....   0.010
   Quad. conv. algorithm                .... NR
   COSX micro iterations for RIJONX calc.... off
 SOSCF                  CNVSOSCF        .... on
   Start iteration      SOSCFMaxIt      ....   150
   Startup grad/error   SOSCFStart      ....  0.003300
 Level Shifting         CNVShift        .... on
   Level shift para.    LevelShift      ....    0.2500
   Turn off err/grad.   ShiftErr        ....    0.0010
 Zerner damping         CNVZerner       .... off
 Static damping         CNVDamp         .... on
   Fraction old density DampFac         ....    0.7000
   Max. Damping (<1)    DampMax         ....    0.9800
   Min. Damping (>=0)   DampMin         ....    0.0000
   Turn off err/grad.   DampErr         ....    0.1000
 Fernandez-Rico         CNVRico         .... off

SCF Procedure:
 Maximum # iterations   MaxIter         ....   125
 SCF integral mode      SCFMode         .... Direct
   Integral package                     .... SHARK and LIBINT hybrid scheme
 Reset frequency        DirectResetFreq ....    20
 Integral Threshold     Thresh          ....  2.500e-11 Eh
 Primitive CutOff       TCut            ....  2.500e-12 Eh

Convergence Tolerance:
 Convergence Check Mode ConvCheckMode   .... Total+1el-Energy
 Convergence forced     ConvForced      .... 0
 Energy Change          TolE            ....  1.000e-08 Eh
 1-El. energy change                    ....  1.000e-05 Eh
 Orbital Gradient       TolG            ....  1.000e-05
 Orbital Rotation angle TolX            ....  1.000e-05
 DIIS Error             TolErr          ....  5.000e-07


Diagonalization of the overlap matrix:
Smallest eigenvalue                        ... 2.880e-03
Time for diagonalization                   ...    0.002 sec
Threshold for overlap eigenvalues          ... 1.000e-08
Number of eigenvalues below threshold      ... 0
Time for construction of square roots      ...    0.409 sec
Total time needed                          ...    0.715 sec

--------------------------------
INITIAL GUESS: MINIMAL BASIS EHT
--------------------------------
The minimal basis has 33 functions
EHT matrix was diagonalized
Basis set overlap was calculated now projecting the orbitals
Using GuessMode=FMatrix for the initial guess
C*T matrix was formed
Effective Fockian was calculated
Effective Fockian was diagonalized
Initial density was built
                      ------------------
                      INITIAL GUESS DONE
                      ------------------
-------------------
DFT GRID GENERATION
-------------------

General Integration Accuracy     IntAcc      ... 4.959
Radial Grid Type                 RadialGrid  ... OptM3 with GC (2021)
Angular Grid (max. ang.)         AngularGrid ... 6 (Lebedev-590)
Angular grid pruning method      GridPruning ... 4 (adaptive)
Weight generation scheme         WeightScheme... Becke
Basis function cutoff            BFCut       ... 1.0000e-11
Integration weight cutoff        WCut        ... 1.0000e-14
Angular grids for H and He will be reduced by one unit
Partially contracted basis set               ... off
Rotationally invariant grid construction     ... off

Total number of grid points                  ...   142721
Total number of batches                      ...     2237
Average number of points per batch           ...       63
Average number of grid points per atom       ...    10979
Time for grid setup =    3.062 sec

--------------------
COSX GRID GENERATION
--------------------

GRIDX 1
-------
General Integration Accuracy     IntAcc      ... 4.020
Radial Grid Type                 RadialGrid  ... OptM3 with GC (2021)
Angular Grid (max. ang.)         AngularGrid ... 2 (Lebedev-110)
Angular grid pruning method      GridPruning ... 4 (adaptive)
Weight generation scheme         WeightScheme... Becke
Basis function cutoff            BFCut       ... 1.0000e-11
Integration weight cutoff        WCut        ... 1.0000e-14
Angular grids for H and He will be reduced by one unit
Partially contracted basis set               ... on
Rotationally invariant grid construction     ... off

Total number of grid points                  ...    15375
Total number of batches                      ...      246
Average number of points per batch           ...       62
Average number of grid points per atom       ...     1183
UseSFitting                                  ... on

GRIDX 2
-------
General Integration Accuracy     IntAcc      ... 4.338
Radial Grid Type                 RadialGrid  ... OptM3 with GC (2021)
Angular Grid (max. ang.)         AngularGrid ... 3 (Lebedev-194)
Angular grid pruning method      GridPruning ... 4 (adaptive)
Weight generation scheme         WeightScheme... Becke
Basis function cutoff            BFCut       ... 1.0000e-11
Integration weight cutoff        WCut        ... 1.0000e-14
Angular grids for H and He will be reduced by one unit
Partially contracted basis set               ... on
Rotationally invariant grid construction     ... off

Total number of grid points                  ...    33738
Total number of batches                      ...      535
Average number of points per batch           ...       63
Average number of grid points per atom       ...     2595
UseSFitting                                  ... on

GRIDX 3
-------
General Integration Accuracy     IntAcc      ... 4.871
Radial Grid Type                 RadialGrid  ... OptM3 with GC (2021)
Angular Grid (max. ang.)         AngularGrid ... 4 (Lebedev-302)
Angular grid pruning method      GridPruning ... 4 (adaptive)
Weight generation scheme         WeightScheme... Becke
Basis function cutoff            BFCut       ... 1.0000e-11
Integration weight cutoff        WCut        ... 1.0000e-14
Angular grids for H and He will be reduced by one unit
Partially contracted basis set               ... on
Rotationally invariant grid construction     ... off

Total number of grid points                  ...    66570
Total number of batches                      ...     1048
Average number of points per batch           ...       63
Average number of grid points per atom       ...     5121
UseSFitting                                  ... on

Time for X-Grid setup             =    4.919 sec

--------------
SCF ITERATIONS
--------------
ITER       Energy         Delta-E        Max-DP      RMS-DP      [F,P]     Damp
               ***  Starting incremental Fock matrix formation  ***
  0   -194.4186079894   0.000000000000 0.05392061  0.00388689  0.4049988 0.7000
  1   -194.5503179273  -0.131709937885 0.04131685  0.00288606  0.2851373 0.7000
  2   -194.6451546343  -0.094836706991 0.03102664  0.00213168  0.2001082 0.7000
                               ***Turning on DIIS***
  3   -194.7129123813  -0.067757747048 0.02301386  0.00157379  0.1412163 0.7000
  4   -194.7611528969  -0.048240515616 0.06040603  0.00410904  0.0995011 0.0000
  5   -194.8770095517  -0.115856654807 0.00378280  0.00026783  0.0034991 0.0000
                      *** Initiating the SOSCF procedure ***
                           *** Shutting down DIIS ***
                      *** Re-Reading the Fockian *** 
                      *** Removing any level shift *** 
ITER      Energy       Delta-E        Grad      Rot      Max-DP    RMS-DP
  6   -194.87718401  -0.0001744585  0.001281  0.001281  0.001474  0.000090
               *** Restarting incremental Fock matrix formation ***
  7   -194.87719728  -0.0000132692  0.000408  0.001549  0.001481  0.000059
  8   -194.87719786  -0.0000005789  0.000663  0.001082  0.000735  0.000032
  9   -194.87720163  -0.0000037715  0.000024  0.000043  0.000076  0.000004
 10   -194.87720164  -0.0000000056  0.000020  0.000014  0.000037  0.000001
                  ***Gradient check signals convergence***
              ***Rediagonalizing the Fockian in SOSCF/NRSCF***

               *****************************************************
               *                     SUCCESS                       *
               *           SCF CONVERGED AFTER  11 CYCLES          *
               *****************************************************

Old exchange energy                            =    -12.034243506 Eh
New exchange energy                            =    -12.034232839 Eh
Exchange energy change after final integration =      0.000010667 Eh
Total energy after final integration           =   -194.877190978 Eh
Final COS-X integration done in                =     1.525 sec

----------------
TOTAL SCF ENERGY
----------------

Total Energy       :         -194.87719098 Eh           -5302.87796 eV

Components:
Nuclear Repulsion  :          153.02807293 Eh            4164.10556 eV
Electronic Energy  :         -347.90526391 Eh           -9466.98352 eV
One Electron Energy:         -563.69397029 Eh          -15338.89275 eV
Two Electron Energy:          215.78870639 Eh            5871.90922 eV
Max COSX asymmetry :            0.00000052 Eh               0.00001 eV

Virial components:
Potential Energy   :         -387.98112213 Eh          -10557.50307 eV
Kinetic Energy     :          193.10393115 Eh            5254.62511 eV
Virial Ratio       :            2.00918293


DFT components:
N(Alpha)           :       19.000001947736 electrons
N(Beta)            :       19.000001947736 electrons
N(Total)           :       38.000003895473 electrons
E(X)               :      -15.961149313499 Eh       
E(C)               :       -1.597382075460 Eh       
E(XC)              :      -17.558531388959 Eh       
DFET-embed. en.    :        0.000000000000 Eh       

---------------
SCF CONVERGENCE
---------------

  Last Energy change         ...   -9.4772e-09  Tolerance :   1.0000e-08
  Last MAX-Density change    ...    9.9920e-16  Tolerance :   1.0000e-07
  Last RMS-Density change    ...    3.2623e-17  Tolerance :   5.0000e-09
  Last Orbital Gradient      ...    2.2948e-06  Tolerance :   1.0000e-05
  Last Orbital Rotation      ...    6.0148e-06  Tolerance :   1.0000e-05

             **** THE GBW FILE WAS UPDATED (pbeh-3c.gbw) ****
             **** DENSITY pbeh-3c.scfp WAS UPDATED ****
             **** ENERGY FILE WAS UPDATED (pbeh-3c.en.tmp) ****
             **** THE GBW FILE WAS UPDATED (pbeh-3c.gbw) ****
             **** DENSITY pbeh-3c.scfp WAS UPDATED ****
----------------
ORBITAL ENERGIES
----------------

  NO   OCC          E(Eh)            E(eV) 
   0   2.0000     -10.452270      -284.4207 
   1   2.0000     -10.449714      -284.3512 
   2   2.0000     -10.444856      -284.2190 
   3   2.0000     -10.438276      -284.0399 
   4   2.0000     -10.437924      -284.0304 
   5   2.0000      -0.903576       -24.5876 
   6   2.0000      -0.846410       -23.0320 
   7   2.0000      -0.764733       -20.8094 
   8   2.0000      -0.650584       -17.7033 
   9   2.0000      -0.619207       -16.8495 
  10   2.0000      -0.533492       -14.5171 
  11   2.0000      -0.507213       -13.8020 
  12   2.0000      -0.468803       -12.7568 
  13   2.0000      -0.463632       -12.6161 
  14   2.0000      -0.436136       -11.8679 
  15   2.0000      -0.415017       -11.2932 
  16   2.0000      -0.394164       -10.7257 
  17   2.0000      -0.363870        -9.9014 
  18   2.0000      -0.260453        -7.0873 
  19   0.0000       0.001585         0.0431 
  20   0.0000       0.111941         3.0461 
  21   0.0000       0.159427         4.3382 
  22   0.0000       0.163357         4.4452 
  23   0.0000       0.179086         4.8732 
  24   0.0000       0.199491         5.4284 
  25   0.0000       0.212536         5.7834 
  26   0.0000       0.213540         5.8107 
  27   0.0000       0.225821         6.1449 
  28   0.0000       0.251299         6.8382 
  29   0.0000       0.290157         7.8956 
  30   0.0000       0.337035         9.1712 
  31   0.0000       0.392361        10.6767 
  32   0.0000       0.425716        11.5843 
  33   0.0000       0.472304        12.8520 
  34   0.0000       0.511830        13.9276 
  35   0.0000       0.519661        14.1407 
  36   0.0000       0.544812        14.8251 
  37   0.0000       0.592307        16.1175 
  38   0.0000       0.604076        16.4377 
  39   0.0000       0.621193        16.9035 
  40   0.0000       0.658350        17.9146 
  41   0.0000       0.677905        18.4467 
  42   0.0000       0.688700        18.7405 
  43   0.0000       0.694528        18.8991 
  44   0.0000       0.720315        19.6008 
  45   0.0000       0.799099        21.7446 
  46   0.0000       0.920969        25.0608 
  47   0.0000       0.936253        25.4767 
  48   0.0000       0.969011        26.3681 
  49   0.0000       0.996705        27.1217 
  50   0.0000       0.999057        27.1857 
  51   0.0000       1.018961        27.7273 
  52   0.0000       1.033748        28.1297 
  53   0.0000       1.056905        28.7598 
  54   0.0000       1.063611        28.9423 
  55   0.0000       1.079087        29.3634 
  56   0.0000       1.120758        30.4974 
  57   0.0000       1.157707        31.5028 
  58   0.0000       1.225837        33.3567 
  59   0.0000       1.309018        35.6202 
  60   0.0000       1.382404        37.6171 
  61   0.0000       1.393966        37.9317 
  62   0.0000       1.449645        39.4468 
  63   0.0000       1.550213        42.1835 
  64   0.0000       1.678003        45.6608 
  65   0.0000       1.796224        48.8777 
  66   0.0000       1.804435        49.1012 
  67   0.0000       1.879367        51.1402 
  68   0.0000       1.934065        52.6286 
  69   0.0000       1.988255        54.1032 
  70   0.0000       1.988952        54.1221 
  71   0.0000       2.074729        56.4562 
  72   0.0000       2.157244        58.7016 
  73   0.0000       2.191314        59.6287 
  74   0.0000       2.212601        60.2079 
  75   0.0000       2.342081        63.7313 
  76   0.0000       2.354586        64.0715 
  77   0.0000       2.383090        64.8472 
  78   0.0000       2.410914        65.6043 
  79   0.0000       2.507568        68.2344 
  80   0.0000       2.558051        69.6081 
  81   0.0000       2.625412        71.4411 
  82   0.0000       2.719900        74.0122 
  83   0.0000       2.827234        76.9330 
  84   0.0000       3.035485        82.5997 
  85   0.0000       3.083313        83.9012 
  86   0.0000      13.310197       362.1889 
  87   0.0000      13.575943       369.4202 
  88   0.0000      13.831430       376.3724 
  89   0.0000      14.072066       382.9204 
  90   0.0000      14.242902       387.5691 

                    ********************************
                    * MULLIKEN POPULATION ANALYSIS *
                    ********************************

-----------------------
MULLIKEN ATOMIC CHARGES
-----------------------
   0 C :   -0.684380
   1 H :    0.224556
   2 H :    0.226950
   3 H :    0.226890
   4 C :   -0.199920
   5 H :    0.211095
   6 C :   -0.196950
   7 H :    0.205788
   8 C :   -0.153912
   9 H :    0.211630
  10 C :   -0.502285
  11 H :    0.217960
  12 H :    0.212578
Sum of atomic charges:    0.0000000

--------------------------------
MULLIKEN REDUCED ORBITAL CHARGES
--------------------------------
  0 C s       :     3.400355  s :     3.400355
      pz      :     1.069657  p :     3.247034
      px      :     1.102483
      py      :     1.074895
      dz2     :     0.008134  d :     0.036991
      dxz     :     0.006365
      dyz     :     0.007686
      dx2y2   :     0.006556
      dxy     :     0.008249
  1 H s       :     0.775444  s :     0.775444
  2 H s       :     0.773050  s :     0.773050
  3 H s       :     0.773110  s :     0.773110
  4 C s       :     3.251404  s :     3.251404
      pz      :     0.952821  p :     2.909039
      px      :     0.946515
      py      :     1.009703
      dz2     :     0.006549  d :     0.039476
      dxz     :     0.007640
      dyz     :     0.004956
      dx2y2   :     0.009439
      dxy     :     0.010892
  5 H s       :     0.788905  s :     0.788905
  6 C s       :     3.227734  s :     3.227734
      pz      :     0.973156  p :     2.929200
      px      :     0.949979
      py      :     1.006065
      dz2     :     0.006609  d :     0.040015
      dxz     :     0.007644
      dyz     :     0.005267
      dx2y2   :     0.009003
      dxy     :     0.011492
  7 H s       :     0.794212  s :     0.794212
  8 C s       :     3.218166  s :     3.218166
      pz      :     0.948364  p :     2.894692
      px      :     0.949575
      py      :     0.996753
      dz2     :     0.007135  d :     0.041054
      dxz     :     0.007817
      dyz     :     0.005180
      dx2y2   :     0.008789
      dxy     :     0.012134
  9 H s       :     0.788370  s :     0.788370
 10 C s       :     3.337911  s :     3.337911
      pz      :     1.044904  p :     3.132518
      px      :     0.998264
      py      :     1.089349
      dz2     :     0.003817  d :     0.031857
      dxz     :     0.006381
      dyz     :     0.004865
      dx2y2   :     0.006346
      dxy     :     0.010448
 11 H s       :     0.782040  s :     0.782040
 12 H s       :     0.787422  s :     0.787422


                     *******************************
                     * LOEWDIN POPULATION ANALYSIS *
                     *******************************

----------------------
LOEWDIN ATOMIC CHARGES
----------------------
   0 C :   -0.357287
   1 H :    0.133270
   2 H :    0.136675
   3 H :    0.136605
   4 C :   -0.139878
   5 H :    0.128328
   6 C :   -0.154944
   7 H :    0.130099
   8 C :   -0.137387
   9 H :    0.131641
  10 C :   -0.271014
  11 H :    0.133947
  12 H :    0.129944

-------------------------------
LOEWDIN REDUCED ORBITAL CHARGES
-------------------------------
  0 C s       :     2.949578  s :     2.949578
      pz      :     1.109317  p :     3.338022
      px      :     1.114640
      py      :     1.114065
      dz2     :     0.015064  d :     0.069687
      dxz     :     0.011921
      dyz     :     0.014825
      dx2y2   :     0.012216
      dxy     :     0.015661
  1 H s       :     0.866730  s :     0.866730
  2 H s       :     0.863325  s :     0.863325
  3 H s       :     0.863395  s :     0.863395
  4 C s       :     2.914201  s :     2.914201
      pz      :     1.004177  p :     3.139044
      px      :     1.074757
      py      :     1.060110
      dz2     :     0.013014  d :     0.086633
      dxz     :     0.017449
      dyz     :     0.010229
      dx2y2   :     0.021074
      dxy     :     0.024868
  5 H s       :     0.871672  s :     0.871672
  6 C s       :     2.902590  s :     2.902590
      pz      :     1.022486  p :     3.162446
      px      :     1.073333
      py      :     1.066627
      dz2     :     0.013363  d :     0.089908
      dxz     :     0.017738
      dyz     :     0.011233
      dx2y2   :     0.021296
      dxy     :     0.026277
  7 H s       :     0.869901  s :     0.869901
  8 C s       :     2.906082  s :     2.906082
      pz      :     1.000512  p :     3.139493
      px      :     1.079139
      py      :     1.059841
      dz2     :     0.014388  d :     0.091812
      dxz     :     0.018169
      dyz     :     0.011030
      dx2y2   :     0.020922
      dxy     :     0.027303
  9 H s       :     0.868359  s :     0.868359
 10 C s       :     2.968919  s :     2.968919
      pz      :     1.054655  p :     3.237977
      px      :     1.095594
      py      :     1.087728
      dz2     :     0.006914  d :     0.064118
      dxz     :     0.013260
      dyz     :     0.007721
      dx2y2   :     0.014284
      dxy     :     0.021938
 11 H s       :     0.866053  s :     0.866053
 12 H s       :     0.870056  s :     0.870056


                      *****************************
                      * MAYER POPULATION ANALYSIS *
                      *****************************

  NA   - Mulliken gross atomic population
  ZA   - Total nuclear charge
  QA   - Mulliken gross atomic charge
  VA   - Mayer's total valence
  BVA  - Mayer's bonded valence
  FA   - Mayer's free valence

  ATOM       NA         ZA         QA         VA         BVA        FA
  0 C      6.6844     6.0000    -0.6844     3.7405     3.7405     0.0000
  1 H      0.7754     1.0000     0.2246     0.9149     0.9149    -0.0000
  2 H      0.7730     1.0000     0.2270     0.9048     0.9048     0.0000
  3 H      0.7731     1.0000     0.2269     0.9048     0.9048    -0.0000
  4 C      6.1999     6.0000    -0.1999     3.7706     3.7706    -0.0000
  5 H      0.7889     1.0000     0.2111     0.9185     0.9185     0.0000
  6 C      6.1969     6.0000    -0.1969     3.8190     3.8190     0.0000
  7 H      0.7942     1.0000     0.2058     0.9229     0.9229    -0.0000
  8 C      6.1539     6.0000    -0.1539     3.8239     3.8239     0.0000
  9 H      0.7884     1.0000     0.2116     0.9176     0.9176     0.0000
 10 C      6.5023     6.0000    -0.5023     3.7987     3.7987    -0.0000
 11 H      0.7820     1.0000     0.2180     0.9236     0.9236    -0.0000
 12 H      0.7874     1.0000     0.2126     0.9235     0.9235     0.0000

  Mayer bond orders larger than 0.100000
B(  0-C ,  1-H ) :   0.9298 B(  0-C ,  2-H ) :   0.9138 B(  0-C ,  3-H ) :   0.9139 
B(  0-C ,  4-C ) :   0.9945 B(  4-C ,  5-H ) :   0.9216 B(  4-C ,  6-C ) :   1.8014 
B(  4-C , 10-C ) :   0.1147 B(  6-C ,  7-H ) :   0.9208 B(  6-C ,  8-C ) :   1.1039 
B(  8-C ,  9-H ) :   0.9207 B(  8-C , 10-C ) :   1.8347 B( 10-C , 11-H ) :   0.9290 
B( 10-C , 12-H ) :   0.9304 

-------
TIMINGS
-------

Total SCF time: 0 days 0 hours 1 min 5 sec 

Total time                  ....      65.372 sec
Sum of individual times     ....      58.071 sec  ( 88.8%)

Fock matrix formation       ....      46.296 sec  ( 70.8%)
  Split-RI-J                ....       6.299 sec  ( 13.6% of F)
  Chain of spheres X        ....      14.166 sec  ( 30.6% of F)
  XC integration            ....      12.843 sec  ( 27.7% of F)
    Basis function eval.    ....       2.179 sec  ( 17.0% of XC)
    Density eval.           ....       1.310 sec  ( 10.2% of XC)
    XC-Functional eval.     ....       1.405 sec  ( 10.9% of XC)
    XC-Potential eval.      ....       0.713 sec  (  5.6% of XC)
Diagonalization             ....       1.216 sec  (  1.9%)
Density matrix formation    ....       0.114 sec  (  0.2%)
Population analysis         ....       0.200 sec  (  0.3%)
Initial guess               ....       0.061 sec  (  0.1%)
Orbital Transformation      ....       0.000 sec  (  0.0%)
Orbital Orthonormalization  ....       0.000 sec  (  0.0%)
DIIS solution               ....       1.638 sec  (  2.5%)
SOSCF solution              ....       0.565 sec  (  0.9%)
Grid generation             ....       7.981 sec  ( 12.2%)

Maximum memory used throughout the entire SCF-calculation: 50.2 MB


-------------------------------------------------------------------------------
                          DFT DISPERSION CORRECTION                            
                                                                               
                              DFTD3 V3.1  Rev 1                                
                          USING Becke-Johnson damping                          
-------------------------------------------------------------------------------
The PBEh-3c composite method is recognized
Using three-body term ABC
Active option DFTDOPT                   ...         4   

molecular C6(AA) [au] = 1484.781450 


            DFT-D V3
 parameters
 s6 scaling factor         :     1.0000 
 a1 scaling factor         :     0.4860 
 s8 scaling factor         :     0.0000 
 a2 scaling factor         :     4.5000 
 Damping factor alpha9(ATM):    16.0000 
 ad hoc parameters k1-k3   :    16.0000     1.3333    -4.0000 

 Edisp/kcal,au: -3.139300297697  -0.005002792934 
 E6   /kcal   :  -3.136517483 
 E8   /kcal   :  -0.000000000 
 E6(ABC)      :  -0.002782815 
 % E8         :   0.000000000 
 % E6(ABC)    :   0.088644419 

-------------------------   ----------------
Dispersion correction           -0.005002793
-------------------------   ----------------

------------------   -----------------
gCP correction             0.014636049
------------------   -----------------

-------------------------   --------------------
FINAL SINGLE POINT ENERGY      -194.867557722154
-------------------------   --------------------


                            ***************************************
                            *     ORCA property calculations      *
                            ***************************************

                                    ---------------------
                                    Active property flags
                                    ---------------------
   (+) Dipole Moment


------------------------------------------------------------------------------
                       ORCA ELECTRIC PROPERTIES CALCULATION
------------------------------------------------------------------------------

Dipole Moment Calculation                       ... on
Quadrupole Moment Calculation                   ... off
Polarizability Calculation                      ... off
GBWName                                         ... pbeh-3c.gbw
Electron density                                ... pbeh-3c.scfp
The origin for moment calculation is the CENTER OF MASS  = ( 0.211287,  0.154636  0.199357)

-------------
DIPOLE MOMENT
-------------
                                X             Y             Z
Electronic contribution:      1.28620       1.05235       1.27211
Nuclear contribution   :     -1.48857      -1.08945      -1.40452
                        -----------------------------------------
Total Dipole Moment    :     -0.20237      -0.03711      -0.13241
                        -----------------------------------------
Magnitude (a.u.)       :      0.24467
Magnitude (Debye)      :      0.62191



--------------------
Rotational spectrum 
--------------------
 
Rotational constants in cm-1:     0.953891     0.071544     0.067386 
Rotational constants in MHz : 28596.929722  2144.822878  2020.182093 

 Dipole components along the rotational axes: 
x,y,z [a.u.] :    -0.242774     0.030363    -0.001829 
x,y,z [Debye]:    -0.617083     0.077176    -0.004648 

 

Timings for individual modules:

Sum of individual times         ...       69.481 sec (=   1.158 min)
GTO integral calculation        ...        3.276 sec (=   0.055 min)   4.7 %
SCF iterations                  ...       66.205 sec (=   1.103 min)  95.3 %
                             ****ORCA TERMINATED NORMALLY****
TOTAL RUN TIME: 0 days 0 hours 1 minutes 12 seconds 51 msec
