
                                 *****************
                                 * O   R   C   A *
                                 *****************

                                            #,                                       
                                            ###                                      
                                            ####                                     
                                            #####                                    
                                            ######                                   
                                           ########,                                 
                                     ,,################,,,,,                         
                               ,,#################################,,                 
                          ,,##########################################,,             
                       ,#########################################, ''#####,          
                    ,#############################################,,   '####,        
                  ,##################################################,,,,####,       
                ,###########''''           ''''###############################       
              ,#####''   ,,,,##########,,,,          '''####'''          '####       
            ,##' ,,,,###########################,,,                        '##       
           ' ,,###''''                  '''############,,,                           
         ,,##''                                '''############,,,,        ,,,,,,###''
      ,#''                                            '''#######################'''  
     '                                                          ''''####''''         
             ,#######,   #######,   ,#######,      ##                                
            ,#'     '#,  ##    ##  ,#'     '#,    #''#        ######   ,####,        
            ##       ##  ##   ,#'  ##            #'  '#       #        #'  '#        
            ##       ##  #######   ##           ,######,      #####,   #    #        
            '#,     ,#'  ##    ##  '#,     ,#' ,#      #,         ##   #,  ,#        
             '#######'   ##     ##  '#######'  #'      '#     #####' # '####'        



                  #######################################################
                  #                        -***-                        #
                  #          Department of theory and spectroscopy      #
                  #    Directorship and core code : Frank Neese         #
                  #        Max Planck Institute fuer Kohlenforschung    #
                  #                Kaiser Wilhelm Platz 1               #
                  #                 D-45470 Muelheim/Ruhr               #
                  #                      Germany                        #
                  #                                                     #
                  #                  All rights reserved                #
                  #                        -***-                        #
                  #######################################################


                         Program Version 5.0.3 -  RELEASE  -


 With contributions from (in alphabetic order):
   Daniel Aravena         : Magnetic Suceptibility
   Michael Atanasov       : Ab Initio Ligand Field Theory (pilot matlab implementation)
   Alexander A. Auer      : GIAO ZORA, VPT2 properties, NMR spectrum
   Ute Becker             : Parallelization
   Giovanni Bistoni       : ED, misc. LED, open-shell LED, HFLD
   Martin Brehm           : Molecular dynamics
   Dmytro Bykov           : SCF Hessian
   Vijay G. Chilkuri      : MRCI spin determinant printing, contributions to CSF-ICE
   Dipayan Datta          : RHF DLPNO-CCSD density
   Achintya Kumar Dutta   : EOM-CC, STEOM-CC
   Dmitry Ganyushin       : Spin-Orbit,Spin-Spin,Magnetic field MRCI
   Miquel Garcia          : C-PCM and meta-GGA Hessian, CC/C-PCM, Gaussian charge scheme
   Yang Guo               : DLPNO-NEVPT2, F12-NEVPT2, CIM, IAO-localization
   Andreas Hansen         : Spin unrestricted coupled pair/coupled cluster methods
   Benjamin Helmich-Paris : MC-RPA, TRAH-SCF, COSX integrals
   Lee Huntington         : MR-EOM, pCC
   Robert Izsak           : Overlap fitted RIJCOSX, COSX-SCS-MP3, EOM
   Marcus Kettner         : VPT2
   Christian Kollmar      : KDIIS, OOCD, Brueckner-CCSD(T), CCSD density, CASPT2, CASPT2-K
   Simone Kossmann        : Meta GGA functionals, TD-DFT gradient, OOMP2, MP2 Hessian
   Martin Krupicka        : Initial AUTO-CI
   Lucas Lang             : DCDCAS
   Marvin Lechner         : AUTO-CI (C++ implementation), FIC-MRCC
   Dagmar Lenk            : GEPOL surface, SMD
   Dimitrios Liakos       : Extrapolation schemes; Compound Job, initial MDCI parallelization
   Dimitrios Manganas     : Further ROCIS development; embedding schemes
   Dimitrios Pantazis     : SARC Basis sets
   Anastasios Papadopoulos: AUTO-CI, single reference methods and gradients
   Taras Petrenko         : DFT Hessian,TD-DFT gradient, ASA, ECA, R-Raman, ABS, FL, XAS/XES, NRVS
   Peter Pinski           : DLPNO-MP2, DLPNO-MP2 Gradient
   Christoph Reimann      : Effective Core Potentials
   Marius Retegan         : Local ZFS, SOC
   Christoph Riplinger    : Optimizer, TS searches, QM/MM, DLPNO-CCSD(T), (RO)-DLPNO pert. Triples
   Tobias Risthaus        : Range-separated hybrids, TD-DFT gradient, RPA, STAB
   Michael Roemelt        : Original ROCIS implementation
   Masaaki Saitow         : Open-shell DLPNO-CCSD energy and density
   Barbara Sandhoefer     : DKH picture change effects
   Avijit Sen             : IP-ROCIS
   Kantharuban Sivalingam : CASSCF convergence, NEVPT2, FIC-MRCI
   Bernardo de Souza      : ESD, SOC TD-DFT
   Georgi Stoychev        : AutoAux, RI-MP2 NMR, DLPNO-MP2 response
   Willem Van den Heuvel  : Paramagnetic NMR
   Boris Wezisla          : Elementary symmetry handling
   Frank Wennmohs         : Technical directorship


 We gratefully acknowledge several colleagues who have allowed us to
 interface, adapt or use parts of their codes:
   Stefan Grimme, W. Hujo, H. Kruse, P. Pracht,  : VdW corrections, initial TS optimization,
                  C. Bannwarth, S. Ehlert          DFT functionals, gCP, sTDA/sTD-DF
   Ed Valeev, F. Pavosevic, A. Kumar             : LibInt (2-el integral package), F12 methods
   Garnet Chan, S. Sharma, J. Yang, R. Olivares  : DMRG
   Ulf Ekstrom                                   : XCFun DFT Library
   Mihaly Kallay                                 : mrcc  (arbitrary order and MRCC methods)
   Jiri Pittner, Ondrej Demel                    : Mk-CCSD
   Frank Weinhold                                : gennbo (NPA and NBO analysis)
   Christopher J. Cramer and Donald G. Truhlar   : smd solvation model
   Lars Goerigk                                  : TD-DFT with DH, B97 family of functionals
   V. Asgeirsson, H. Jonsson                     : NEB implementation
   FAccTs GmbH                                   : IRC, NEB, NEB-TS, DLPNO-Multilevel, CI-OPT
                                                   MM, QMMM, 2- and 3-layer-ONIOM, Crystal-QMMM,
                                                   LR-CPCM, SF, NACMEs, symmetry and pop. for TD-DFT,
                                                   nearIR, NL-DFT gradient (VV10), updates on ESD,
                                                   ML-optimized integration grids
   S Lehtola, MJT Oliveira, MAL Marques          : LibXC Library
   Liviu Ungur et al                             : ANISO software


 Your calculation uses the libint2 library for the computation of 2-el integrals
 For citations please refer to: http://libint.valeyev.net

 Your ORCA version has been built with support for libXC version: 5.1.0
 For citations please refer to: https://tddft.org/programs/libxc/

 This ORCA versions uses:
   CBLAS   interface :  Fast vector & matrix operations
   LAPACKE interface :  Fast linear algebra routines
   SCALAPACK package :  Parallel linear algebra routines
   Shared memory     :  Shared parallel matrices
   BLAS/LAPACK       :  OpenBLAS 0.3.15  USE64BITINT DYNAMIC_ARCH NO_AFFINITY Haswell SINGLE_THREADED
        Core in use  :  Haswell
   Copyright (c) 2011-2014, The OpenBLAS Project




***************************************
The coordinates will be read from file: H_x+g-x+.xyz
***************************************


Your calculation utilizes the geometrical counterpoise correction gCP
Please cite in your paper:
H.Kruse, S. Grimme J.Chem.Phys., 136, (2012), 154101 
   

Your calculation utilizes the atom-pairwise dispersion correction
with the Becke-Johnson damping scheme (D3BJ)
Cite in your paper:
S.Grimme, S.Ehrlich, L.Goerigk, J Comput Chem, (2011), 32, 1456–1465 
S.Grimme, J.Antony, S.Ehrlich and H.Krieg, J.Chem.Phys., 132, (2010), 154104 
   

Your calculation employs the composite approach PBEh-3c.
Please cite in your paper:
S. Grimme, J. G. Brandenburg, C. Bannwarth, A. Hansen J.Chem.Phys., 143, (2015), 054107 
   

================================================================================

----- Orbital basis set information -----
Your calculation utilizes the basis: def2-mSVP

----- AuxJ basis set information -----
Your calculation utilizes the auxiliary basis: def2/J
   F. Weigend, Phys. Chem. Chem. Phys. 8, 1057 (2006).

================================================================================
                                        WARNINGS
                       Please study these warnings very carefully!
================================================================================


INFO   : the flag for use of the SHARK integral package has been found!

================================================================================
                                       INPUT FILE
================================================================================
NAME = pbeh-3c.inp
|  1> ! PBEh-3c def2/J TightSCF DefGrid3
|  2> 
|  3> %maxcore 60000
|  4> 
|  5> %pal
|  6> nprocs 4
|  7> end
|  8> 
|  9> *xyzfile 0 1 H_x+g-x+.xyz
| 10> 
| 11>                          ****END OF INPUT****
================================================================================

                       ****************************
                       * Single Point Calculation *
                       ****************************

---------------------------------
CARTESIAN COORDINATES (ANGSTROEM)
---------------------------------
  C     -0.068237    1.752413   -1.074007
  C      0.823552    1.387344    0.109128
  C      0.068237    0.762076    1.288078
  C     -0.068237   -0.762076    1.288078
  C     -0.823552   -1.387344    0.109128
  C      0.068237   -1.752413   -1.074007
  H     -0.811694    2.488953   -0.768953
  H     -0.603606    0.891079   -1.466481
  H      0.511921    2.184269   -1.888884
  H      1.316256    2.298796    0.451468
  H      1.623776    0.715855   -0.209372
  H     -0.929225    1.208343    1.343329
  H      0.573188    1.038849    2.215695
  H     -0.573188   -1.038849    2.215695
  H      0.929225   -1.208343    1.343329
  H     -1.623776   -0.715855   -0.209372
  H     -1.316256   -2.298796    0.451468
  H     -0.511921   -2.184269   -1.888884
  H      0.811694   -2.488953   -0.768953
  H      0.603606   -0.891079   -1.466481

----------------------------
CARTESIAN COORDINATES (A.U.)
----------------------------
  NO LB      ZA    FRAG     MASS         X           Y           Z
   0 C     6.0000    0    12.011   -0.128949    3.311580   -2.029580
   1 C     6.0000    0    12.011    1.556288    2.621700    0.206221
   2 C     6.0000    0    12.011    0.128949    1.440115    2.434116
   3 C     6.0000    0    12.011   -0.128949   -1.440115    2.434116
   4 C     6.0000    0    12.011   -1.556288   -2.621700    0.206221
   5 C     6.0000    0    12.011    0.128949   -3.311580   -2.029580
   6 H     1.0000    0     1.008   -1.533879    4.703439   -1.453111
   7 H     1.0000    0     1.008   -1.140650    1.683895   -2.771248
   8 H     1.0000    0     1.008    0.967390    4.127670   -3.569474
   9 H     1.0000    0     1.008    2.487363    4.344094    0.853150
  10 H     1.0000    0     1.008    3.068492    1.352770   -0.395656
  11 H     1.0000    0     1.008   -1.755981    2.283437    2.538525
  12 H     1.0000    0     1.008    1.083168    1.963140    4.187058
  13 H     1.0000    0     1.008   -1.083168   -1.963140    4.187058
  14 H     1.0000    0     1.008    1.755981   -2.283437    2.538525
  15 H     1.0000    0     1.008   -3.068492   -1.352770   -0.395656
  16 H     1.0000    0     1.008   -2.487363   -4.344094    0.853150
  17 H     1.0000    0     1.008   -0.967390   -4.127670   -3.569474
  18 H     1.0000    0     1.008    1.533879   -4.703439   -1.453111
  19 H     1.0000    0     1.008    1.140650   -1.683895   -2.771248

--------------------------------
INTERNAL COORDINATES (ANGSTROEM)
--------------------------------
 C      0   0   0     0.000000000000     0.00000000     0.00000000
 C      1   0   0     1.525900065051     0.00000000     0.00000000
 C      2   1   0     1.533422934026   113.94210709     0.00000000
 C      3   2   1     1.530249607783   116.74779256    90.24785680
 C      4   3   2     1.533422934026   116.74779256   298.84959434
 C      5   4   3     1.525900065051   113.94210709    90.24785680
 H      1   2   3     1.090081248974   110.07602688    61.09807030
 H      1   2   3     1.087452098436   112.21387119   301.44569362
 H      1   2   3     1.089544560107   111.31738115   180.49095251
 H      2   1   3     1.091191309180   107.89695275   239.11061801
 H      2   1   3     1.092107218773   110.43909302   123.77771603
 H      3   2   1     1.094137628565   108.75707739   326.50687409
 H      3   2   1     1.091811301964   108.78628121   211.50505080
 H      4   3   2     1.091811301964   107.08172713   176.69924873
 H      4   3   2     1.094137628565   108.96204123    62.48555078
 H      5   4   3     1.092107218773   109.53784724   325.98449426
 H      5   4   3     1.091191309180   108.77152600   210.64805101
 H      6   5   4     1.089544560107   111.31738115   180.49095251
 H      6   5   4     1.090081248974   110.07602688    61.09807030
 H      6   5   4     1.087452098436   112.21387119   301.44569362

---------------------------
INTERNAL COORDINATES (A.U.)
---------------------------
 C      0   0   0     0.000000000000     0.00000000     0.00000000
 C      1   0   0     2.883533230679     0.00000000     0.00000000
 C      2   1   0     2.897749392783   113.94210709     0.00000000
 C      3   2   1     2.891752675250   116.74779256    90.24785680
 C      4   3   2     2.897749392783   116.74779256   298.84959434
 C      5   4   3     2.883533230679   113.94210709    90.24785680
 H      1   2   3     2.059955024284   110.07602688    61.09807030
 H      1   2   3     2.054986649802   112.21387119   301.44569362
 H      1   2   3     2.058940829305   111.31738115   180.49095251
 H      2   1   3     2.062052734065   107.89695275   239.11061801
 H      2   1   3     2.063783552360   110.43909302   123.77771603
 H      3   2   1     2.067620470806   108.75707739   326.50687409
 H      3   2   1     2.063224350631   108.78628121   211.50505080
 H      4   3   2     2.063224350631   107.08172713   176.69924873
 H      4   3   2     2.067620470806   108.96204123    62.48555078
 H      5   4   3     2.063783552360   109.53784724   325.98449426
 H      5   4   3     2.062052734065   108.77152600   210.64805101
 H      6   5   4     2.058940829305   111.31738115   180.49095251
 H      6   5   4     2.059955024284   110.07602688    61.09807030
 H      6   5   4     2.054986649802   112.21387119   301.44569362

---------------------
BASIS SET INFORMATION
---------------------
There are 2 groups of distinct atoms

 Group   1 Type C   : 8s4p1d contracted to 4s2p1d pattern {5111/31/1}
 Group   2 Type H   : 4s contracted to 2s pattern {31}

Atom   0C    basis set group =>   1
Atom   1C    basis set group =>   1
Atom   2C    basis set group =>   1
Atom   3C    basis set group =>   1
Atom   4C    basis set group =>   1
Atom   5C    basis set group =>   1
Atom   6H    basis set group =>   2
Atom   7H    basis set group =>   2
Atom   8H    basis set group =>   2
Atom   9H    basis set group =>   2
Atom  10H    basis set group =>   2
Atom  11H    basis set group =>   2
Atom  12H    basis set group =>   2
Atom  13H    basis set group =>   2
Atom  14H    basis set group =>   2
Atom  15H    basis set group =>   2
Atom  16H    basis set group =>   2
Atom  17H    basis set group =>   2
Atom  18H    basis set group =>   2
Atom  19H    basis set group =>   2
---------------------------------
AUXILIARY/J BASIS SET INFORMATION
---------------------------------
There are 2 groups of distinct atoms

 Group   1 Type C   : 12s5p4d2f1g contracted to 6s4p3d1f1g pattern {711111/2111/211/2/1}
 Group   2 Type H   : 5s2p1d contracted to 3s1p1d pattern {311/2/1}

Atom   0C    basis set group =>   1
Atom   1C    basis set group =>   1
Atom   2C    basis set group =>   1
Atom   3C    basis set group =>   1
Atom   4C    basis set group =>   1
Atom   5C    basis set group =>   1
Atom   6H    basis set group =>   2
Atom   7H    basis set group =>   2
Atom   8H    basis set group =>   2
Atom   9H    basis set group =>   2
Atom  10H    basis set group =>   2
Atom  11H    basis set group =>   2
Atom  12H    basis set group =>   2
Atom  13H    basis set group =>   2
Atom  14H    basis set group =>   2
Atom  15H    basis set group =>   2
Atom  16H    basis set group =>   2
Atom  17H    basis set group =>   2
Atom  18H    basis set group =>   2
Atom  19H    basis set group =>   2


           ************************************************************
           *        Program running with 4 parallel MPI-processes     *
           *              working on a common directory               *
           ************************************************************
------------------------------------------------------------------------------
                           ORCA GTO INTEGRAL CALCULATION
                           -- RI-GTO INTEGRALS CHOSEN --
------------------------------------------------------------------------------
------------------------------------------------------------------------------
                   ___                                                        
                  /   \      - P O W E R E D   B Y -                         
                 /     \                                                     
                 |  |  |   _    _      __       _____    __    __             
                 |  |  |  | |  | |    /  \     |  _  \  |  |  /  |          
                  \  \/   | |  | |   /    \    | | | |  |  | /  /          
                 / \  \   | |__| |  /  /\  \   | |_| |  |  |/  /          
                |  |  |   |  __  | /  /__\  \  |    /   |      \           
                |  |  |   | |  | | |   __   |  |    \   |  |\   \          
                \     /   | |  | | |  |  |  |  | |\  \  |  | \   \       
                 \___/    |_|  |_| |__|  |__|  |_| \__\ |__|  \__/        
                                                                              
                      - O R C A' S   B I G   F R I E N D -                    
                                      &                                       
                       - I N T E G R A L  F E E D E R -                       
                                                                              
 v1 FN, 2020, v2 2021                                                         
------------------------------------------------------------------------------


Reading SHARK input file pbeh-3c.SHARKINP.tmp ... ok
----------------------
SHARK INTEGRAL PACKAGE
----------------------

Number of atoms                             ...     20
Number of basis functions                   ...    118
Number of shells                            ...     70
Maximum angular momentum                    ...      2
Integral batch strategy                     ... SHARK/LIBINT Hybrid
RI-J (if used) integral strategy            ... SPLIT-RIJ (Revised 2003 algorithm where possible)
Printlevel                                  ...      1
Contraction scheme used                     ... SEGMENTED contraction
Coulomb Range Separation                    ... NOT USED
Exchange Range Separation                   ... NOT USED
Finite Nucleus Model                        ... NOT USED
Auxiliary Coulomb fitting basis             ... AVAILABLE
   # of basis functions in Aux-J            ...    448
   # of shells in Aux-J                     ...    160
   Maximum angular momentum in Aux-J        ...      4
Auxiliary J/K fitting basis                 ... NOT available
Auxiliary Correlation fitting basis         ... NOT available
Auxiliary 'external' fitting basis          ... NOT available
Integral threshold                          ...     2.500000e-11
Primitive cut-off                           ...     2.500000e-12
Primitive pair pre-selection threshold      ...     2.500000e-12

Calculating pre-screening integrals         ... done (  0.0 sec) Dimension = 70
Organizing shell pair data                  ... done (  0.7 sec)
Shell pair information
Total number of shell pairs                 ...      2485
Shell pairs after pre-screening             ...      2374
Total number of primitive shell pairs       ...      9165
Primitive shell pairs kept                  ...      6326
          la=0 lb=0:   1277 shell pairs
          la=1 lb=0:    624 shell pairs
          la=1 lb=1:     78 shell pairs
          la=2 lb=0:    302 shell pairs
          la=2 lb=1:     72 shell pairs
          la=2 lb=2:     21 shell pairs

Calculating one electron integrals          ... done (  0.0 sec)
Calculating RI/J V-Matrix + Cholesky decomp.... done (  1.0 sec)
Calculating Nuclear repulsion               ... done (  0.3 sec) ENN=    258.800485439238 Eh

SHARK setup successfully completed in   3.5 seconds

Maximum memory used throughout the entire GTOINT-calculation: 11.0 MB


           ************************************************************
           *        Program running with 4 parallel MPI-processes     *
           *              working on a common directory               *
           ************************************************************
-------------------------------------------------------------------------------
                                 ORCA SCF
-------------------------------------------------------------------------------

------------
SCF SETTINGS
------------
Hamiltonian:
 Density Functional     Method          .... DFT(GTOs)
 Exchange Functional    Exchange        .... PBE
   PBE kappa parameter   XKappa         ....  1.024500
   PBE mue parameter    XMuePBE         ....  0.123457
 Correlation Functional Correlation     .... PBE
   PBE beta parameter  CBetaPBE         ....  0.030000
 LDA part of GGA corr.  LDAOpt          .... PW91-LDA
 Gradients option       PostSCFGGA      .... off
 Hybrid DFT is turned on
   Fraction HF Exchange ScalHFX         ....  0.420000
   Scaling of DF-GGA-X  ScalDFX         ....  0.580000
   Scaling of DF-GGA-C  ScalDFC         ....  1.000000
   Scaling of DF-LDA-C  ScalLDAC        ....  1.000000
   Perturbative correction              ....  0.000000
   Density functional embedding theory  .... OFF
 RI-approximation to the Coulomb term is turned on
   Number of AuxJ basis functions       .... 448
   RIJ-ON(X) (HFX calculated with O(N)) .... on
   Number of AuxJ basis functions       .... 448
   RIJ-COSX (HFX calculated with COS-X)).... on


General Settings:
 Integral files         IntName         .... pbeh-3c
 Hartree-Fock type      HFTyp           .... RHF
 Total Charge           Charge          ....    0
 Multiplicity           Mult            ....    1
 Number of Electrons    NEL             ....   50
 Basis Dimension        Dim             ....  118
 Nuclear Repulsion      ENuc            ....    258.8004854392 Eh

Convergence Acceleration:
 DIIS                   CNVDIIS         .... on
   Start iteration      DIISMaxIt       ....    12
   Startup error        DIISStart       ....  0.200000
   # of expansion vecs  DIISMaxEq       ....     5
   Bias factor          DIISBfac        ....   1.050
   Max. coefficient     DIISMaxC        ....  10.000
 Trust-Rad. Augm. Hess. CNVTRAH         .... auto
   Auto Start mean grad. ratio tolernc. ....  1.125000
   Auto Start start iteration           ....    20
   Auto Start num. interpolation iter.  ....    10
   Max. Number of Micro iterations      ....    16
   Max. Number of Macro iterations      .... Maxiter - #DIIS iter
   Number of Davidson start vectors     ....     2
   Converg. threshold I  (grad. norm)   ....   1.000e-05
   Converg. threshold II (energy diff.) ....   1.000e-08
   Grad. Scal. Fac. for Micro threshold ....   0.100
   Minimum threshold for Micro iter.    ....   0.010
   NR start threshold (gradient norm)   ....   0.001
   Initial trust radius                 ....   0.400
   Minimum AH scaling param. (alpha)    ....   1.000
   Maximum AH scaling param. (alpha)    .... 1000.000
   Orbital update algorithm             .... Taylor
   White noise on init. David. guess    .... on
   Maximum white noise                  ....   0.010
   Quad. conv. algorithm                .... NR
   COSX micro iterations for RIJONX calc.... off
 SOSCF                  CNVSOSCF        .... on
   Start iteration      SOSCFMaxIt      ....   150
   Startup grad/error   SOSCFStart      ....  0.003300
 Level Shifting         CNVShift        .... on
   Level shift para.    LevelShift      ....    0.2500
   Turn off err/grad.   ShiftErr        ....    0.0010
 Zerner damping         CNVZerner       .... off
 Static damping         CNVDamp         .... on
   Fraction old density DampFac         ....    0.7000
   Max. Damping (<1)    DampMax         ....    0.9800
   Min. Damping (>=0)   DampMin         ....    0.0000
   Turn off err/grad.   DampErr         ....    0.1000
 Fernandez-Rico         CNVRico         .... off

SCF Procedure:
 Maximum # iterations   MaxIter         ....   125
 SCF integral mode      SCFMode         .... Direct
   Integral package                     .... SHARK and LIBINT hybrid scheme
 Reset frequency        DirectResetFreq ....    20
 Integral Threshold     Thresh          ....  2.500e-11 Eh
 Primitive CutOff       TCut            ....  2.500e-12 Eh

Convergence Tolerance:
 Convergence Check Mode ConvCheckMode   .... Total+1el-Energy
 Convergence forced     ConvForced      .... 0
 Energy Change          TolE            ....  1.000e-08 Eh
 1-El. energy change                    ....  1.000e-05 Eh
 Orbital Gradient       TolG            ....  1.000e-05
 Orbital Rotation angle TolX            ....  1.000e-05
 DIIS Error             TolErr          ....  5.000e-07


Diagonalization of the overlap matrix:
Smallest eigenvalue                        ... 6.438e-03
Time for diagonalization                   ...    0.004 sec
Threshold for overlap eigenvalues          ... 1.000e-08
Number of eigenvalues below threshold      ... 0
Time for construction of square roots      ...    0.275 sec
Total time needed                          ...    0.301 sec

--------------------------------
INITIAL GUESS: MINIMAL BASIS EHT
--------------------------------
The minimal basis has 44 functions
EHT matrix was diagonalized
Basis set overlap was calculated now projecting the orbitals
Using GuessMode=FMatrix for the initial guess
C*T matrix was formed
Effective Fockian was calculated
Effective Fockian was diagonalized
Initial density was built
                      ------------------
                      INITIAL GUESS DONE
                      ------------------
-------------------
DFT GRID GENERATION
-------------------

General Integration Accuracy     IntAcc      ... 4.959
Radial Grid Type                 RadialGrid  ... OptM3 with GC (2021)
Angular Grid (max. ang.)         AngularGrid ... 6 (Lebedev-590)
Angular grid pruning method      GridPruning ... 4 (adaptive)
Weight generation scheme         WeightScheme... Becke
Basis function cutoff            BFCut       ... 1.0000e-11
Integration weight cutoff        WCut        ... 1.0000e-14
Angular grids for H and He will be reduced by one unit
Partially contracted basis set               ... off
Rotationally invariant grid construction     ... off

Total number of grid points                  ...   206004
Total number of batches                      ...     3226
Average number of points per batch           ...       63
Average number of grid points per atom       ...    10300
Time for grid setup =    4.645 sec

--------------------
COSX GRID GENERATION
--------------------

GRIDX 1
-------
General Integration Accuracy     IntAcc      ... 4.020
Radial Grid Type                 RadialGrid  ... OptM3 with GC (2021)
Angular Grid (max. ang.)         AngularGrid ... 2 (Lebedev-110)
Angular grid pruning method      GridPruning ... 4 (adaptive)
Weight generation scheme         WeightScheme... Becke
Basis function cutoff            BFCut       ... 1.0000e-11
Integration weight cutoff        WCut        ... 1.0000e-14
Angular grids for H and He will be reduced by one unit
Partially contracted basis set               ... on
Rotationally invariant grid construction     ... off

Total number of grid points                  ...    21226
Total number of batches                      ...      344
Average number of points per batch           ...       61
Average number of grid points per atom       ...     1061
UseSFitting                                  ... on

GRIDX 2
-------
General Integration Accuracy     IntAcc      ... 4.338
Radial Grid Type                 RadialGrid  ... OptM3 with GC (2021)
Angular Grid (max. ang.)         AngularGrid ... 3 (Lebedev-194)
Angular grid pruning method      GridPruning ... 4 (adaptive)
Weight generation scheme         WeightScheme... Becke
Basis function cutoff            BFCut       ... 1.0000e-11
Integration weight cutoff        WCut        ... 1.0000e-14
Angular grids for H and He will be reduced by one unit
Partially contracted basis set               ... on
Rotationally invariant grid construction     ... off

Total number of grid points                  ...    46102
Total number of batches                      ...      732
Average number of points per batch           ...       62
Average number of grid points per atom       ...     2305
UseSFitting                                  ... on

GRIDX 3
-------
General Integration Accuracy     IntAcc      ... 4.871
Radial Grid Type                 RadialGrid  ... OptM3 with GC (2021)
Angular Grid (max. ang.)         AngularGrid ... 4 (Lebedev-302)
Angular grid pruning method      GridPruning ... 4 (adaptive)
Weight generation scheme         WeightScheme... Becke
Basis function cutoff            BFCut       ... 1.0000e-11
Integration weight cutoff        WCut        ... 1.0000e-14
Angular grids for H and He will be reduced by one unit
Partially contracted basis set               ... on
Rotationally invariant grid construction     ... off

Total number of grid points                  ...    92682
Total number of batches                      ...     1456
Average number of points per batch           ...       63
Average number of grid points per atom       ...     4634
UseSFitting                                  ... on

Time for X-Grid setup             =    6.360 sec

--------------
SCF ITERATIONS
--------------
ITER       Energy         Delta-E        Max-DP      RMS-DP      [F,P]     Damp
               ***  Starting incremental Fock matrix formation  ***
  0   -236.1303909869   0.000000000000 0.02332130  0.00201426  0.4033687 0.7000
  1   -236.2591081577  -0.128717170766 0.01709362  0.00153333  0.2857425 0.7000
  2   -236.3511948530  -0.092086695344 0.01206596  0.00113796  0.2014754 0.7000
                               ***Turning on DIIS***
  3   -236.4164558408  -0.065260987772 0.00847075  0.00083717  0.1419567 0.7000
  4   -236.4625836928  -0.046127851996 0.02015292  0.00214011  0.0999358 0.0000
                      *** Initiating the SOSCF procedure ***
                           *** Shutting down DIIS ***
                      *** Re-Reading the Fockian *** 
                      *** Removing any level shift *** 
ITER      Energy       Delta-E        Grad      Rot      Max-DP    RMS-DP
  5   -236.57191774  -0.1093340495  0.001461  0.001461  0.001567  0.000147
               *** Restarting incremental Fock matrix formation ***
  6   -236.57197958  -0.0000618335  0.000541  0.001085  0.001012  0.000087
  7   -236.57198625  -0.0000066721  0.000115  0.000296  0.000297  0.000026
  8   -236.57198656  -0.0000003106  0.000079  0.000105  0.000116  0.000010
  9   -236.57198682  -0.0000002579  0.000003  0.000003  0.000009  0.000000
                  ***Gradient check signals convergence***
              ***Rediagonalizing the Fockian in SOSCF/NRSCF***

               *****************************************************
               *                     SUCCESS                       *
               *           SCF CONVERGED AFTER  10 CYCLES          *
               *****************************************************

Old exchange energy                            =    -15.165555039 Eh
New exchange energy                            =    -15.165549523 Eh
Exchange energy change after final integration =      0.000005516 Eh
Total energy after final integration           =   -236.571981302 Eh
Final COS-X integration done in                =     4.215 sec

----------------
TOTAL SCF ENERGY
----------------

Total Energy       :         -236.57198130 Eh           -6437.45088 eV

Components:
Nuclear Repulsion  :          258.80048544 Eh            7042.31923 eV
Electronic Energy  :         -495.37246674 Eh          -13479.77012 eV
One Electron Energy:         -829.72394169 Eh          -22577.93629 eV
Two Electron Energy:          334.35147495 Eh            9098.16618 eV
Max COSX asymmetry :            0.00000066 Eh               0.00002 eV

Virial components:
Potential Energy   :         -471.15011924 Eh          -12820.64653 eV
Kinetic Energy     :          234.57813794 Eh            6383.19565 eV
Virial Ratio       :            2.00849970


DFT components:
N(Alpha)           :       25.000000532971 electrons
N(Beta)            :       25.000000532971 electrons
N(Total)           :       50.000001065941 electrons
E(X)               :      -20.079934908551 Eh       
E(C)               :       -2.105742241073 Eh       
E(XC)              :      -22.185677149624 Eh       
DFET-embed. en.    :        0.000000000000 Eh       

---------------
SCF CONVERGENCE
---------------

  Last Energy change         ...   -1.6065e-09  Tolerance :   1.0000e-08
  Last MAX-Density change    ...    8.4936e-16  Tolerance :   1.0000e-07
  Last RMS-Density change    ...    3.5615e-17  Tolerance :   5.0000e-09
  Last Orbital Gradient      ...    1.9624e-06  Tolerance :   1.0000e-05
  Last Orbital Rotation      ...    1.0772e-06  Tolerance :   1.0000e-05

             **** THE GBW FILE WAS UPDATED (pbeh-3c.gbw) ****
             **** DENSITY pbeh-3c.scfp WAS UPDATED ****
             **** ENERGY FILE WAS UPDATED (pbeh-3c.en.tmp) ****
             **** THE GBW FILE WAS UPDATED (pbeh-3c.gbw) ****
             **** DENSITY pbeh-3c.scfp WAS UPDATED ****
----------------
ORBITAL ENERGIES
----------------

  NO   OCC          E(Eh)            E(eV) 
   0   2.0000     -10.426927      -283.7311 
   1   2.0000     -10.426898      -283.7303 
   2   2.0000     -10.425542      -283.6934 
   3   2.0000     -10.425327      -283.6876 
   4   2.0000     -10.418063      -283.4899 
   5   2.0000     -10.418045      -283.4894 
   6   2.0000      -0.896444       -24.3935 
   7   2.0000      -0.847938       -23.0736 
   8   2.0000      -0.793738       -21.5987 
   9   2.0000      -0.721037       -19.6204 
  10   2.0000      -0.662980       -18.0406 
  11   2.0000      -0.628082       -17.0910 
  12   2.0000      -0.533463       -14.5163 
  13   2.0000      -0.500215       -13.6115 
  14   2.0000      -0.498122       -13.5546 
  15   2.0000      -0.471066       -12.8184 
  16   2.0000      -0.462475       -12.5846 
  17   2.0000      -0.442487       -12.0407 
  18   2.0000      -0.422018       -11.4837 
  19   2.0000      -0.399802       -10.8792 
  20   2.0000      -0.392226       -10.6730 
  21   2.0000      -0.386682       -10.5222 
  22   2.0000      -0.365559        -9.9474 
  23   2.0000      -0.353569        -9.6211 
  24   2.0000      -0.348330        -9.4785 
  25   0.0000       0.132935         3.6173 
  26   0.0000       0.159528         4.3410 
  27   0.0000       0.159639         4.3440 
  28   0.0000       0.172390         4.6910 
  29   0.0000       0.185099         5.0368 
  30   0.0000       0.197302         5.3689 
  31   0.0000       0.207503         5.6464 
  32   0.0000       0.221145         6.0177 
  33   0.0000       0.223114         6.0712 
  34   0.0000       0.225813         6.1447 
  35   0.0000       0.235192         6.3999 
  36   0.0000       0.245633         6.6840 
  37   0.0000       0.248243         6.7550 
  38   0.0000       0.270888         7.3713 
  39   0.0000       0.270900         7.3716 
  40   0.0000       0.300863         8.1869 
  41   0.0000       0.305606         8.3160 
  42   0.0000       0.321902         8.7594 
  43   0.0000       0.351310         9.5596 
  44   0.0000       0.507173        13.8009 
  45   0.0000       0.512596        13.9484 
  46   0.0000       0.513315        13.9680 
  47   0.0000       0.527720        14.3600 
  48   0.0000       0.544894        14.8273 
  49   0.0000       0.550619        14.9831 
  50   0.0000       0.564652        15.3650 
  51   0.0000       0.621637        16.9156 
  52   0.0000       0.649065        17.6619 
  53   0.0000       0.663164        18.0456 
  54   0.0000       0.665954        18.1215 
  55   0.0000       0.690614        18.7925 
  56   0.0000       0.718351        19.5473 
  57   0.0000       0.739773        20.1302 
  58   0.0000       0.758173        20.6309 
  59   0.0000       0.780200        21.2303 
  60   0.0000       0.870077        23.6760 
  61   0.0000       0.936867        25.4934 
  62   0.0000       0.973804        26.4986 
  63   0.0000       0.996350        27.1120 
  64   0.0000       1.008863        27.4526 
  65   0.0000       1.031785        28.0763 
  66   0.0000       1.041007        28.3272 
  67   0.0000       1.052510        28.6402 
  68   0.0000       1.054226        28.6870 
  69   0.0000       1.067135        29.0382 
  70   0.0000       1.075529        29.2666 
  71   0.0000       1.084848        29.5202 
  72   0.0000       1.087649        29.5964 
  73   0.0000       1.099450        29.9176 
  74   0.0000       1.113500        30.2999 
  75   0.0000       1.127385        30.6777 
  76   0.0000       1.185688        32.2642 
  77   0.0000       1.207237        32.8506 
  78   0.0000       1.328254        36.1436 
  79   0.0000       1.480963        40.2990 
  80   0.0000       1.512234        41.1500 
  81   0.0000       1.518074        41.3089 
  82   0.0000       1.569747        42.7150 
  83   0.0000       1.588579        43.2274 
  84   0.0000       1.669859        45.4392 
  85   0.0000       1.679512        45.7018 
  86   0.0000       1.769645        48.1545 
  87   0.0000       1.809720        49.2450 
  88   0.0000       1.935041        52.6551 
  89   0.0000       1.954429        53.1827 
  90   0.0000       1.963373        53.4261 
  91   0.0000       1.977532        53.8114 
  92   0.0000       2.036729        55.4222 
  93   0.0000       2.042283        55.5734 
  94   0.0000       2.102676        57.2167 
  95   0.0000       2.132347        58.0241 
  96   0.0000       2.148608        58.4666 
  97   0.0000       2.244736        61.0824 
  98   0.0000       2.278825        62.0100 
  99   0.0000       2.323510        63.2259 
 100   0.0000       2.346528        63.8523 
 101   0.0000       2.414096        65.6909 
 102   0.0000       2.428905        66.0939 
 103   0.0000       2.444465        66.5173 
 104   0.0000       2.466635        67.1205 
 105   0.0000       2.527762        68.7839 
 106   0.0000       2.530384        68.8552 
 107   0.0000       2.667337        72.5819 
 108   0.0000       2.671379        72.6919 
 109   0.0000       2.715433        73.8907 
 110   0.0000       2.750713        74.8507 
 111   0.0000       2.775918        75.5366 
 112   0.0000      13.555067       368.8521 
 113   0.0000      13.663466       371.8018 
 114   0.0000      13.837737       376.5440 
 115   0.0000      13.994531       380.8106 
 116   0.0000      14.056322       382.4920 
 117   0.0000      14.078512       383.0958 

                    ********************************
                    * MULLIKEN POPULATION ANALYSIS *
                    ********************************

-----------------------
MULLIKEN ATOMIC CHARGES
-----------------------
   0 C :   -0.654811
   1 C :   -0.427612
   2 C :   -0.416115
   3 C :   -0.416115
   4 C :   -0.427612
   5 C :   -0.654811
   6 H :    0.212869
   7 H :    0.222127
   8 H :    0.217817
   9 H :    0.218016
  10 H :    0.208389
  11 H :    0.203625
  12 H :    0.215696
  13 H :    0.215696
  14 H :    0.203625
  15 H :    0.208389
  16 H :    0.218016
  17 H :    0.217817
  18 H :    0.212869
  19 H :    0.222127
Sum of atomic charges:   -0.0000000

--------------------------------
MULLIKEN REDUCED ORBITAL CHARGES
--------------------------------
  0 C s       :     3.379016  s :     3.379016
      pz      :     1.038980  p :     3.238451
      px      :     1.080206
      py      :     1.119265
      dz2     :     0.006027  d :     0.037344
      dxz     :     0.010014
      dyz     :     0.007376
      dx2y2   :     0.001809
      dxy     :     0.012118
  1 C s       :     3.322738  s :     3.322738
      pz      :     0.940982  p :     3.061273
      px      :     1.024605
      py      :     1.095685
      dz2     :     0.009115  d :     0.043602
      dxz     :     0.010274
      dyz     :     0.007870
      dx2y2   :     0.003796
      dxy     :     0.012546
  2 C s       :     3.320462  s :     3.320462
      pz      :     1.030694  p :     3.052108
      px      :     1.075658
      py      :     0.945757
      dz2     :     0.010234  d :     0.043545
      dxz     :     0.008021
      dyz     :     0.007080
      dx2y2   :     0.009183
      dxy     :     0.009027
  3 C s       :     3.320462  s :     3.320462
      pz      :     1.030694  p :     3.052108
      px      :     1.075658
      py      :     0.945757
      dz2     :     0.010234  d :     0.043545
      dxz     :     0.008021
      dyz     :     0.007080
      dx2y2   :     0.009183
      dxy     :     0.009027
  4 C s       :     3.322738  s :     3.322738
      pz      :     0.940982  p :     3.061272
      px      :     1.024605
      py      :     1.095685
      dz2     :     0.009115  d :     0.043602
      dxz     :     0.010274
      dyz     :     0.007870
      dx2y2   :     0.003796
      dxy     :     0.012546
  5 C s       :     3.379016  s :     3.379016
      pz      :     1.038980  p :     3.238451
      px      :     1.080206
      py      :     1.119265
      dz2     :     0.006027  d :     0.037344
      dxz     :     0.010014
      dyz     :     0.007376
      dx2y2   :     0.001809
      dxy     :     0.012118
  6 H s       :     0.787131  s :     0.787131
  7 H s       :     0.777873  s :     0.777873
  8 H s       :     0.782183  s :     0.782183
  9 H s       :     0.781984  s :     0.781984
 10 H s       :     0.791611  s :     0.791611
 11 H s       :     0.796375  s :     0.796375
 12 H s       :     0.784304  s :     0.784304
 13 H s       :     0.784304  s :     0.784304
 14 H s       :     0.796375  s :     0.796375
 15 H s       :     0.791611  s :     0.791611
 16 H s       :     0.781984  s :     0.781984
 17 H s       :     0.782183  s :     0.782183
 18 H s       :     0.787131  s :     0.787131
 19 H s       :     0.777873  s :     0.777873


                     *******************************
                     * LOEWDIN POPULATION ANALYSIS *
                     *******************************

----------------------
LOEWDIN ATOMIC CHARGES
----------------------
   0 C :   -0.366512
   1 C :   -0.250337
   2 C :   -0.240752
   3 C :   -0.240752
   4 C :   -0.250337
   5 C :   -0.366512
   6 H :    0.123358
   7 H :    0.124563
   8 H :    0.125347
   9 H :    0.123198
  10 H :    0.118828
  11 H :    0.118619
  12 H :    0.123688
  13 H :    0.123688
  14 H :    0.118619
  15 H :    0.118828
  16 H :    0.123198
  17 H :    0.125347
  18 H :    0.123358
  19 H :    0.124563

-------------------------------
LOEWDIN REDUCED ORBITAL CHARGES
-------------------------------
  0 C s       :     2.951721  s :     2.951721
      pz      :     1.097737  p :     3.345175
      px      :     1.119092
      py      :     1.128346
      dz2     :     0.012009  d :     0.069616
      dxz     :     0.019527
      dyz     :     0.013618
      dx2y2   :     0.003434
      dxy     :     0.021029
  1 C s       :     2.910544  s :     2.910544
      pz      :     1.063991  p :     3.251348
      px      :     1.088133
      py      :     1.099225
      dz2     :     0.018999  d :     0.088445
      dxz     :     0.023123
      dyz     :     0.016065
      dx2y2   :     0.007052
      dxy     :     0.023205
  2 C s       :     2.912067  s :     2.912067
      pz      :     1.079270  p :     3.240023
      px      :     1.098070
      py      :     1.062683
      dz2     :     0.020446  d :     0.088662
      dxz     :     0.015573
      dyz     :     0.015540
      dx2y2   :     0.019522
      dxy     :     0.017582
  3 C s       :     2.912067  s :     2.912067
      pz      :     1.079270  p :     3.240023
      px      :     1.098070
      py      :     1.062683
      dz2     :     0.020446  d :     0.088662
      dxz     :     0.015573
      dyz     :     0.015540
      dx2y2   :     0.019522
      dxy     :     0.017582
  4 C s       :     2.910544  s :     2.910544
      pz      :     1.063991  p :     3.251348
      px      :     1.088133
      py      :     1.099225
      dz2     :     0.018999  d :     0.088445
      dxz     :     0.023123
      dyz     :     0.016065
      dx2y2   :     0.007052
      dxy     :     0.023205
  5 C s       :     2.951721  s :     2.951721
      pz      :     1.097737  p :     3.345175
      px      :     1.119092
      py      :     1.128346
      dz2     :     0.012009  d :     0.069616
      dxz     :     0.019527
      dyz     :     0.013618
      dx2y2   :     0.003434
      dxy     :     0.021029
  6 H s       :     0.876642  s :     0.876642
  7 H s       :     0.875437  s :     0.875437
  8 H s       :     0.874653  s :     0.874653
  9 H s       :     0.876802  s :     0.876802
 10 H s       :     0.881172  s :     0.881172
 11 H s       :     0.881381  s :     0.881381
 12 H s       :     0.876312  s :     0.876312
 13 H s       :     0.876312  s :     0.876312
 14 H s       :     0.881381  s :     0.881381
 15 H s       :     0.881172  s :     0.881172
 16 H s       :     0.876802  s :     0.876802
 17 H s       :     0.874653  s :     0.874653
 18 H s       :     0.876642  s :     0.876642
 19 H s       :     0.875437  s :     0.875437


                      *****************************
                      * MAYER POPULATION ANALYSIS *
                      *****************************

  NA   - Mulliken gross atomic population
  ZA   - Total nuclear charge
  QA   - Mulliken gross atomic charge
  VA   - Mayer's total valence
  BVA  - Mayer's bonded valence
  FA   - Mayer's free valence

  ATOM       NA         ZA         QA         VA         BVA        FA
  0 C      6.6548     6.0000    -0.6548     3.7390     3.7390    -0.0000
  1 C      6.4276     6.0000    -0.4276     3.7317     3.7317    -0.0000
  2 C      6.4161     6.0000    -0.4161     3.7349     3.7349     0.0000
  3 C      6.4161     6.0000    -0.4161     3.7349     3.7349    -0.0000
  4 C      6.4276     6.0000    -0.4276     3.7317     3.7317     0.0000
  5 C      6.6548     6.0000    -0.6548     3.7390     3.7390    -0.0000
  6 H      0.7871     1.0000     0.2129     0.9132     0.9132    -0.0000
  7 H      0.7779     1.0000     0.2221     0.9085     0.9085    -0.0000
  8 H      0.7822     1.0000     0.2178     0.9131     0.9131     0.0000
  9 H      0.7820     1.0000     0.2180     0.9044     0.9044    -0.0000
 10 H      0.7916     1.0000     0.2084     0.9111     0.9111     0.0000
 11 H      0.7964     1.0000     0.2036     0.9105     0.9105     0.0000
 12 H      0.7843     1.0000     0.2157     0.9074     0.9074     0.0000
 13 H      0.7843     1.0000     0.2157     0.9074     0.9074     0.0000
 14 H      0.7964     1.0000     0.2036     0.9105     0.9105     0.0000
 15 H      0.7916     1.0000     0.2084     0.9111     0.9111     0.0000
 16 H      0.7820     1.0000     0.2180     0.9044     0.9044     0.0000
 17 H      0.7822     1.0000     0.2178     0.9131     0.9131    -0.0000
 18 H      0.7871     1.0000     0.2129     0.9132     0.9132    -0.0000
 19 H      0.7779     1.0000     0.2221     0.9085     0.9085    -0.0000

  Mayer bond orders larger than 0.100000
B(  0-C ,  1-C ) :   0.9924 B(  0-C ,  6-H ) :   0.9281 B(  0-C ,  7-H ) :   0.9178 
B(  0-C ,  8-H ) :   0.9311 B(  1-C ,  2-C ) :   0.9633 B(  1-C ,  9-H ) :   0.9269 
B(  1-C , 10-H ) :   0.9206 B(  2-C ,  3-C ) :   1.0012 B(  2-C , 11-H ) :   0.9208 
B(  2-C , 12-H ) :   0.9277 B(  3-C ,  4-C ) :   0.9633 B(  3-C , 13-H ) :   0.9277 
B(  3-C , 14-H ) :   0.9208 B(  4-C ,  5-C ) :   0.9924 B(  4-C , 15-H ) :   0.9206 
B(  4-C , 16-H ) :   0.9269 B(  5-C , 17-H ) :   0.9311 B(  5-C , 18-H ) :   0.9281 
B(  5-C , 19-H ) :   0.9178 

-------
TIMINGS
-------

Total SCF time: 0 days 0 hours 1 min 33 sec 

Total time                  ....      93.801 sec
Sum of individual times     ....      86.384 sec  ( 92.1%)

Fock matrix formation       ....      69.553 sec  ( 74.1%)
  Split-RI-J                ....       6.257 sec  (  9.0% of F)
  Chain of spheres X        ....      25.605 sec  ( 36.8% of F)
  XC integration            ....      22.353 sec  ( 32.1% of F)
    Basis function eval.    ....       3.377 sec  ( 15.1% of XC)
    Density eval.           ....       1.992 sec  (  8.9% of XC)
    XC-Functional eval.     ....       1.429 sec  (  6.4% of XC)
    XC-Potential eval.      ....       1.190 sec  (  5.3% of XC)
Diagonalization             ....       1.788 sec  (  1.9%)
Density matrix formation    ....       0.065 sec  (  0.1%)
Population analysis         ....       0.893 sec  (  1.0%)
Initial guess               ....       0.083 sec  (  0.1%)
Orbital Transformation      ....       0.000 sec  (  0.0%)
Orbital Orthonormalization  ....       0.000 sec  (  0.0%)
DIIS solution               ....       2.128 sec  (  2.3%)
SOSCF solution              ....       0.868 sec  (  0.9%)
Grid generation             ....      11.005 sec  ( 11.7%)

Maximum memory used throughout the entire SCF-calculation: 55.3 MB


-------------------------------------------------------------------------------
                          DFT DISPERSION CORRECTION                            
                                                                               
                              DFTD3 V3.1  Rev 1                                
                          USING Becke-Johnson damping                          
-------------------------------------------------------------------------------
The PBEh-3c composite method is recognized
Using three-body term ABC
Active option DFTDOPT                   ...         4   

molecular C6(AA) [au] = 2518.012429 


            DFT-D V3
 parameters
 s6 scaling factor         :     1.0000 
 a1 scaling factor         :     0.4860 
 s8 scaling factor         :     0.0000 
 a2 scaling factor         :     4.5000 
 Damping factor alpha9(ATM):    16.0000 
 ad hoc parameters k1-k3   :    16.0000     1.3333    -4.0000 

 Edisp/kcal,au: -5.982713671331  -0.009534060091 
 E6   /kcal   :  -6.040028177 
 E8   /kcal   :  -0.000000000 
 E6(ABC)      :   0.057314506 
 % E8         :   0.000000000 
 % E6(ABC)    :  -0.958001817 

-------------------------   ----------------
Dispersion correction           -0.009534060
-------------------------   ----------------

------------------   -----------------
gCP correction             0.027590994
------------------   -----------------

-------------------------   --------------------
FINAL SINGLE POINT ENERGY      -236.553924368471
-------------------------   --------------------


                            ***************************************
                            *     ORCA property calculations      *
                            ***************************************

                                    ---------------------
                                    Active property flags
                                    ---------------------
   (+) Dipole Moment


------------------------------------------------------------------------------
                       ORCA ELECTRIC PROPERTIES CALCULATION
------------------------------------------------------------------------------

Dipole Moment Calculation                       ... on
Quadrupole Moment Calculation                   ... off
Polarizability Calculation                      ... off
GBWName                                         ... pbeh-3c.gbw
Electron density                                ... pbeh-3c.scfp
The origin for moment calculation is the CENTER OF MASS  = (-0.000000, -0.000000  0.155960)

-------------
DIPOLE MOMENT
-------------
                                X             Y             Z
Electronic contribution:      0.00000       0.00000       1.74272
Nuclear contribution   :      0.00000      -0.00000      -1.69043
                        -----------------------------------------
Total Dipole Moment    :      0.00000       0.00000       0.05229
                        -----------------------------------------
Magnitude (a.u.)       :      0.05229
Magnitude (Debye)      :      0.13291



--------------------
Rotational spectrum 
--------------------
 
Rotational constants in cm-1:     0.142586     0.082317     0.061390 
Rotational constants in MHz :  4274.624099  2467.797778  1840.420225 

 Dipole components along the rotational axes: 
x,y,z [a.u.] :    -0.000000     0.052288    -0.000000 
x,y,z [Debye]:    -0.000000     0.132906    -0.000000 

 

Timings for individual modules:

Sum of individual times         ...       98.955 sec (=   1.649 min)
GTO integral calculation        ...        4.356 sec (=   0.073 min)   4.4 %
SCF iterations                  ...       94.599 sec (=   1.577 min)  95.6 %
                             ****ORCA TERMINATED NORMALLY****
TOTAL RUN TIME: 0 days 0 hours 1 minutes 42 seconds 735 msec
