
                                 *****************
                                 * O   R   C   A *
                                 *****************

                                            #,                                       
                                            ###                                      
                                            ####                                     
                                            #####                                    
                                            ######                                   
                                           ########,                                 
                                     ,,################,,,,,                         
                               ,,#################################,,                 
                          ,,##########################################,,             
                       ,#########################################, ''#####,          
                    ,#############################################,,   '####,        
                  ,##################################################,,,,####,       
                ,###########''''           ''''###############################       
              ,#####''   ,,,,##########,,,,          '''####'''          '####       
            ,##' ,,,,###########################,,,                        '##       
           ' ,,###''''                  '''############,,,                           
         ,,##''                                '''############,,,,        ,,,,,,###''
      ,#''                                            '''#######################'''  
     '                                                          ''''####''''         
             ,#######,   #######,   ,#######,      ##                                
            ,#'     '#,  ##    ##  ,#'     '#,    #''#        ######   ,####,        
            ##       ##  ##   ,#'  ##            #'  '#       #        #'  '#        
            ##       ##  #######   ##           ,######,      #####,   #    #        
            '#,     ,#'  ##    ##  '#,     ,#' ,#      #,         ##   #,  ,#        
             '#######'   ##     ##  '#######'  #'      '#     #####' # '####'        



                  #######################################################
                  #                        -***-                        #
                  #          Department of theory and spectroscopy      #
                  #    Directorship and core code : Frank Neese         #
                  #        Max Planck Institute fuer Kohlenforschung    #
                  #                Kaiser Wilhelm Platz 1               #
                  #                 D-45470 Muelheim/Ruhr               #
                  #                      Germany                        #
                  #                                                     #
                  #                  All rights reserved                #
                  #                        -***-                        #
                  #######################################################


                         Program Version 5.0.3 -  RELEASE  -


 With contributions from (in alphabetic order):
   Daniel Aravena         : Magnetic Suceptibility
   Michael Atanasov       : Ab Initio Ligand Field Theory (pilot matlab implementation)
   Alexander A. Auer      : GIAO ZORA, VPT2 properties, NMR spectrum
   Ute Becker             : Parallelization
   Giovanni Bistoni       : ED, misc. LED, open-shell LED, HFLD
   Martin Brehm           : Molecular dynamics
   Dmytro Bykov           : SCF Hessian
   Vijay G. Chilkuri      : MRCI spin determinant printing, contributions to CSF-ICE
   Dipayan Datta          : RHF DLPNO-CCSD density
   Achintya Kumar Dutta   : EOM-CC, STEOM-CC
   Dmitry Ganyushin       : Spin-Orbit,Spin-Spin,Magnetic field MRCI
   Miquel Garcia          : C-PCM and meta-GGA Hessian, CC/C-PCM, Gaussian charge scheme
   Yang Guo               : DLPNO-NEVPT2, F12-NEVPT2, CIM, IAO-localization
   Andreas Hansen         : Spin unrestricted coupled pair/coupled cluster methods
   Benjamin Helmich-Paris : MC-RPA, TRAH-SCF, COSX integrals
   Lee Huntington         : MR-EOM, pCC
   Robert Izsak           : Overlap fitted RIJCOSX, COSX-SCS-MP3, EOM
   Marcus Kettner         : VPT2
   Christian Kollmar      : KDIIS, OOCD, Brueckner-CCSD(T), CCSD density, CASPT2, CASPT2-K
   Simone Kossmann        : Meta GGA functionals, TD-DFT gradient, OOMP2, MP2 Hessian
   Martin Krupicka        : Initial AUTO-CI
   Lucas Lang             : DCDCAS
   Marvin Lechner         : AUTO-CI (C++ implementation), FIC-MRCC
   Dagmar Lenk            : GEPOL surface, SMD
   Dimitrios Liakos       : Extrapolation schemes; Compound Job, initial MDCI parallelization
   Dimitrios Manganas     : Further ROCIS development; embedding schemes
   Dimitrios Pantazis     : SARC Basis sets
   Anastasios Papadopoulos: AUTO-CI, single reference methods and gradients
   Taras Petrenko         : DFT Hessian,TD-DFT gradient, ASA, ECA, R-Raman, ABS, FL, XAS/XES, NRVS
   Peter Pinski           : DLPNO-MP2, DLPNO-MP2 Gradient
   Christoph Reimann      : Effective Core Potentials
   Marius Retegan         : Local ZFS, SOC
   Christoph Riplinger    : Optimizer, TS searches, QM/MM, DLPNO-CCSD(T), (RO)-DLPNO pert. Triples
   Tobias Risthaus        : Range-separated hybrids, TD-DFT gradient, RPA, STAB
   Michael Roemelt        : Original ROCIS implementation
   Masaaki Saitow         : Open-shell DLPNO-CCSD energy and density
   Barbara Sandhoefer     : DKH picture change effects
   Avijit Sen             : IP-ROCIS
   Kantharuban Sivalingam : CASSCF convergence, NEVPT2, FIC-MRCI
   Bernardo de Souza      : ESD, SOC TD-DFT
   Georgi Stoychev        : AutoAux, RI-MP2 NMR, DLPNO-MP2 response
   Willem Van den Heuvel  : Paramagnetic NMR
   Boris Wezisla          : Elementary symmetry handling
   Frank Wennmohs         : Technical directorship


 We gratefully acknowledge several colleagues who have allowed us to
 interface, adapt or use parts of their codes:
   Stefan Grimme, W. Hujo, H. Kruse, P. Pracht,  : VdW corrections, initial TS optimization,
                  C. Bannwarth, S. Ehlert          DFT functionals, gCP, sTDA/sTD-DF
   Ed Valeev, F. Pavosevic, A. Kumar             : LibInt (2-el integral package), F12 methods
   Garnet Chan, S. Sharma, J. Yang, R. Olivares  : DMRG
   Ulf Ekstrom                                   : XCFun DFT Library
   Mihaly Kallay                                 : mrcc  (arbitrary order and MRCC methods)
   Jiri Pittner, Ondrej Demel                    : Mk-CCSD
   Frank Weinhold                                : gennbo (NPA and NBO analysis)
   Christopher J. Cramer and Donald G. Truhlar   : smd solvation model
   Lars Goerigk                                  : TD-DFT with DH, B97 family of functionals
   V. Asgeirsson, H. Jonsson                     : NEB implementation
   FAccTs GmbH                                   : IRC, NEB, NEB-TS, DLPNO-Multilevel, CI-OPT
                                                   MM, QMMM, 2- and 3-layer-ONIOM, Crystal-QMMM,
                                                   LR-CPCM, SF, NACMEs, symmetry and pop. for TD-DFT,
                                                   nearIR, NL-DFT gradient (VV10), updates on ESD,
                                                   ML-optimized integration grids
   S Lehtola, MJT Oliveira, MAL Marques          : LibXC Library
   Liviu Ungur et al                             : ANISO software


 Your calculation uses the libint2 library for the computation of 2-el integrals
 For citations please refer to: http://libint.valeyev.net

 Your ORCA version has been built with support for libXC version: 5.1.0
 For citations please refer to: https://tddft.org/programs/libxc/

 This ORCA versions uses:
   CBLAS   interface :  Fast vector & matrix operations
   LAPACKE interface :  Fast linear algebra routines
   SCALAPACK package :  Parallel linear algebra routines
   Shared memory     :  Shared parallel matrices
   BLAS/LAPACK       :  OpenBLAS 0.3.15  USE64BITINT DYNAMIC_ARCH NO_AFFINITY Haswell SINGLE_THREADED
        Core in use  :  Haswell
   Copyright (c) 2011-2014, The OpenBLAS Project




***************************************
The coordinates will be read from file: 214.xyz
***************************************


Your calculation utilizes the geometrical counterpoise correction gCP
Please cite in your paper:
H.Kruse, S. Grimme J.Chem.Phys., 136, (2012), 154101 
   

Your calculation utilizes the atom-pairwise dispersion correction
with the Becke-Johnson damping scheme (D3BJ)
Cite in your paper:
S.Grimme, S.Ehrlich, L.Goerigk, J Comput Chem, (2011), 32, 1456–1465 
S.Grimme, J.Antony, S.Ehrlich and H.Krieg, J.Chem.Phys., 132, (2010), 154104 
   

Your calculation employs the composite approach PBEh-3c.
Please cite in your paper:
S. Grimme, J. G. Brandenburg, C. Bannwarth, A. Hansen J.Chem.Phys., 143, (2015), 054107 
   

================================================================================

----- Orbital basis set information -----
Your calculation utilizes the basis: def2-mSVP

----- AuxJ basis set information -----
Your calculation utilizes the auxiliary basis: def2/J
   F. Weigend, Phys. Chem. Chem. Phys. 8, 1057 (2006).

================================================================================
                                        WARNINGS
                       Please study these warnings very carefully!
================================================================================


INFO   : the flag for use of the SHARK integral package has been found!

================================================================================
                                       INPUT FILE
================================================================================
NAME = pbeh-3c.inp
|  1> ! PBEh-3c def2/J TightSCF DefGrid3
|  2> 
|  3> %maxcore 60000
|  4> 
|  5> %pal
|  6> nprocs 4
|  7> end
|  8> 
|  9> *xyzfile 0 1 214.xyz
| 10> 
| 11>                          ****END OF INPUT****
================================================================================

                       ****************************
                       * Single Point Calculation *
                       ****************************

---------------------------------
CARTESIAN COORDINATES (ANGSTROEM)
---------------------------------
  C     -0.648620   -1.247290   -0.618880
  N      0.091350   -0.093690   -0.016270
  C     -0.517070    1.286450   -0.271730
  C     -1.686840    1.563410    0.668530
  H      0.154670   -0.192680    1.007580
  H      1.061190   -0.061390   -0.361530
  H     -0.661100   -1.146240   -1.708760
  H     -0.141510   -2.174390   -0.333900
  H     -1.671640   -1.260050   -0.235120
  H     -2.078290    2.567160    0.463770
  H     -2.512570    0.852210    0.534330
  H     -1.345990    1.536860    1.709900
  H     -0.802140    1.324600   -1.330170
  H      0.295380    1.995100   -0.082530
  O      2.596390    0.512110    1.059730
  Cl     1.950960    0.926710    2.349490
  O      2.892330    0.830170    3.455330
  O      1.404160    2.291180    2.200060
  O      0.783070   -0.023370    2.593360

----------------------------
CARTESIAN COORDINATES (A.U.)
----------------------------
  NO LB      ZA    FRAG     MASS         X           Y           Z
   0 C     6.0000    0    12.011   -1.225714   -2.357036   -1.169514
   1 N     7.0000    0    14.007    0.172626   -0.177048   -0.030746
   2 C     6.0000    0    12.011   -0.977121    2.431038   -0.513495
   3 C     6.0000    0    12.011   -3.187665    2.954417    1.263339
   4 H     1.0000    0     1.008    0.292284   -0.364112    1.904050
   5 H     1.0000    0     1.008    2.005358   -0.116010   -0.683193
   6 H     1.0000    0     1.008   -1.249298   -2.166079   -3.229088
   7 H     1.0000    0     1.008   -0.267415   -4.109001   -0.630980
   8 H     1.0000    0     1.008   -3.158942   -2.381149   -0.444312
   9 H     1.0000    0     1.008   -3.927399    4.851229    0.876398
  10 H     1.0000    0     1.008   -4.748069    1.610443    1.009737
  11 H     1.0000    0     1.008   -2.543552    2.904244    3.231243
  12 H     1.0000    0     1.008   -1.515825    2.503131   -2.513657
  13 H     1.0000    0     1.008    0.558187    3.770192   -0.155959
  14 O     8.0000    0    15.999    4.906466    0.967748    2.002599
  15 Cl   17.0000    0    35.453    3.686780    1.751228    4.439892
  16 O     8.0000    0    15.999    5.465711    1.568794    6.529627
  17 O     8.0000    0    15.999    2.653478    4.329702    4.157511
  18 O     8.0000    0    15.999    1.479788   -0.044163    4.900740

--------------------------------
INTERNAL COORDINATES (ANGSTROEM)
--------------------------------
 C      0   0   0     0.000000000000     0.00000000     0.00000000
 N      1   0   0     1.497159691643     0.00000000     0.00000000
 C      2   1   0     1.529778039969   115.55447267     0.00000000
 C      3   2   1     1.526157700942   111.44968543    79.79519405
 H      2   1   3     1.030571230061   110.86902138   120.72227769
 H      2   1   3     1.029969508885   110.77104361   238.30389213
 H      1   2   3     1.094625529267   109.58843075    62.02481173
 H      1   2   3     1.094480871043   108.59533717   182.25981850
 H      1   2   3     1.092705024696   109.29109576   301.56026204
 H      4   3   2     1.096664771865   108.94495263   178.92158268
 H      4   3   2     1.098018646360   112.55461734   298.11955473
 H      4   3   2     1.096054238451   110.03551993    60.58282195
 H      3   2   1     1.096820537872   107.21134828   315.79042772
 H      3   2   1     1.094557657230   105.07149414   199.11049231
 O      6   2   1     2.169267315549   117.06841712   218.02961236
 Cl    15   6   2     1.500651002912   109.37583021   353.98265991
 O     16  15   6     1.455465343396   110.88558512   158.44085821
 O     16  15   6     1.477530938054   109.11024790   282.48076476
 O     16  15   6     1.525152925245   107.13785631    39.09716637

---------------------------
INTERNAL COORDINATES (A.U.)
---------------------------
 C      0   0   0     0.000000000000     0.00000000     0.00000000
 N      1   0   0     2.829221795951     0.00000000     0.00000000
 C      2   1   0     2.890861541229   115.55447267     0.00000000
 C      3   2   1     2.884020091956   111.44968543    79.79519405
 H      2   1   3     1.947497386314   110.86902138   120.72227769
 H      2   1   3     1.946360298081   110.77104361   238.30389213
 H      1   2   3     2.068542469514   109.58843075    62.02481173
 H      1   2   3     2.068269105088   108.59533717   182.25981850
 H      1   2   3     2.064913241835   109.29109576   301.56026204
 H      4   3   2     2.072396079544   108.94495263   178.92158268
 H      4   3   2     2.074954531559   112.55461734   298.11955473
 H      4   3   2     2.071242338596   110.03551993    60.58282195
 H      3   2   1     2.072690434638   107.21134828   315.79042772
 H      3   2   1     2.068414209950   105.07149414   199.11049231
 O      6   2   1     4.099321137654   117.06841712   218.02961236
 Cl    15   6   2     2.835819418099   109.37583021   353.98265991
 O     16  15   6     2.750430896432   110.88558512   158.44085821
 O     16  15   6     2.792128827317   109.11024790   282.48076476
 O     16  15   6     2.882121341062   107.13785631    39.09716637

---------------------
BASIS SET INFORMATION
---------------------
There are 5 groups of distinct atoms

 Group   1 Type C   : 8s4p1d contracted to 4s2p1d pattern {5111/31/1}
 Group   2 Type N   : 8s4p1d contracted to 4s2p1d pattern {5111/31/1}
 Group   3 Type H   : 4s contracted to 2s pattern {31}
 Group   4 Type O   : 8s4p1d contracted to 4s2p1d pattern {5111/31/1}
 Group   5 Type Cl  : 10s7p1d contracted to 4s3p1d pattern {5311/511/1}

Atom   0C    basis set group =>   1
Atom   1N    basis set group =>   2
Atom   2C    basis set group =>   1
Atom   3C    basis set group =>   1
Atom   4H    basis set group =>   3
Atom   5H    basis set group =>   3
Atom   6H    basis set group =>   3
Atom   7H    basis set group =>   3
Atom   8H    basis set group =>   3
Atom   9H    basis set group =>   3
Atom  10H    basis set group =>   3
Atom  11H    basis set group =>   3
Atom  12H    basis set group =>   3
Atom  13H    basis set group =>   3
Atom  14O    basis set group =>   4
Atom  15Cl   basis set group =>   5
Atom  16O    basis set group =>   4
Atom  17O    basis set group =>   4
Atom  18O    basis set group =>   4
---------------------------------
AUXILIARY/J BASIS SET INFORMATION
---------------------------------
There are 5 groups of distinct atoms

 Group   1 Type C   : 12s5p4d2f1g contracted to 6s4p3d1f1g pattern {711111/2111/211/2/1}
 Group   2 Type N   : 12s5p4d2f1g contracted to 6s4p3d1f1g pattern {711111/2111/211/2/1}
 Group   3 Type H   : 5s2p1d contracted to 3s1p1d pattern {311/2/1}
 Group   4 Type O   : 12s5p4d2f1g contracted to 6s4p3d1f1g pattern {711111/2111/211/2/1}
 Group   5 Type Cl  : 14s5p5d2f1g contracted to 8s4p3d1f1g pattern {71111111/2111/311/2/1}

Atom   0C    basis set group =>   1
Atom   1N    basis set group =>   2
Atom   2C    basis set group =>   1
Atom   3C    basis set group =>   1
Atom   4H    basis set group =>   3
Atom   5H    basis set group =>   3
Atom   6H    basis set group =>   3
Atom   7H    basis set group =>   3
Atom   8H    basis set group =>   3
Atom   9H    basis set group =>   3
Atom  10H    basis set group =>   3
Atom  11H    basis set group =>   3
Atom  12H    basis set group =>   3
Atom  13H    basis set group =>   3
Atom  14O    basis set group =>   4
Atom  15Cl   basis set group =>   5
Atom  16O    basis set group =>   4
Atom  17O    basis set group =>   4
Atom  18O    basis set group =>   4


           ************************************************************
           *        Program running with 4 parallel MPI-processes     *
           *              working on a common directory               *
           ************************************************************
------------------------------------------------------------------------------
                           ORCA GTO INTEGRAL CALCULATION
                           -- RI-GTO INTEGRALS CHOSEN --
------------------------------------------------------------------------------
------------------------------------------------------------------------------
                   ___                                                        
                  /   \      - P O W E R E D   B Y -                         
                 /     \                                                     
                 |  |  |   _    _      __       _____    __    __             
                 |  |  |  | |  | |    /  \     |  _  \  |  |  /  |          
                  \  \/   | |  | |   /    \    | | | |  |  | /  /          
                 / \  \   | |__| |  /  /\  \   | |_| |  |  |/  /          
                |  |  |   |  __  | /  /__\  \  |    /   |      \           
                |  |  |   | |  | | |   __   |  |    \   |  |\   \          
                \     /   | |  | | |  |  |  |  | |\  \  |  | \   \       
                 \___/    |_|  |_| |__|  |__|  |_| \__\ |__|  \__/        
                                                                              
                      - O R C A' S   B I G   F R I E N D -                    
                                      &                                       
                       - I N T E G R A L  F E E D E R -                       
                                                                              
 v1 FN, 2020, v2 2021                                                         
------------------------------------------------------------------------------


Reading SHARK input file pbeh-3c.SHARKINP.tmp ... ok
----------------------
SHARK INTEGRAL PACKAGE
----------------------

Number of atoms                             ...     19
Number of basis functions                   ...    158
Number of shells                            ...     84
Maximum angular momentum                    ...      2
Integral batch strategy                     ... SHARK/LIBINT Hybrid
RI-J (if used) integral strategy            ... SPLIT-RIJ (Revised 2003 algorithm where possible)
Printlevel                                  ...      1
Contraction scheme used                     ... SEGMENTED contraction
Coulomb Range Separation                    ... NOT USED
Exchange Range Separation                   ... NOT USED
Finite Nucleus Model                        ... NOT USED
Auxiliary Coulomb fitting basis             ... AVAILABLE
   # of basis functions in Aux-J            ...    553
   # of shells in Aux-J                     ...    187
   Maximum angular momentum in Aux-J        ...      4
Auxiliary J/K fitting basis                 ... NOT available
Auxiliary Correlation fitting basis         ... NOT available
Auxiliary 'external' fitting basis          ... NOT available
Integral threshold                          ...     2.500000e-11
Primitive cut-off                           ...     2.500000e-12
Primitive pair pre-selection threshold      ...     2.500000e-12

Calculating pre-screening integrals         ... done (  0.1 sec) Dimension = 84
Organizing shell pair data                  ... done (  0.2 sec)
Shell pair information
Total number of shell pairs                 ...      3570
Shell pairs after pre-screening             ...      3056
Total number of primitive shell pairs       ...     13360
Primitive shell pairs kept                  ...      7784
          la=0 lb=0:   1285 shell pairs
          la=1 lb=0:    959 shell pairs
          la=1 lb=1:    184 shell pairs
          la=2 lb=0:    425 shell pairs
          la=2 lb=1:    162 shell pairs
          la=2 lb=2:     41 shell pairs

Calculating one electron integrals          ... done (  0.0 sec)
Calculating RI/J V-Matrix + Cholesky decomp.... done (  0.2 sec)
Calculating Nuclear repulsion               ... done (  0.0 sec) ENN=    656.911593627701 Eh

SHARK setup successfully completed in   1.8 seconds

Maximum memory used throughout the entire GTOINT-calculation: 11.7 MB


           ************************************************************
           *        Program running with 4 parallel MPI-processes     *
           *              working on a common directory               *
           ************************************************************
-------------------------------------------------------------------------------
                                 ORCA SCF
-------------------------------------------------------------------------------

------------
SCF SETTINGS
------------
Hamiltonian:
 Density Functional     Method          .... DFT(GTOs)
 Exchange Functional    Exchange        .... PBE
   PBE kappa parameter   XKappa         ....  1.024500
   PBE mue parameter    XMuePBE         ....  0.123457
 Correlation Functional Correlation     .... PBE
   PBE beta parameter  CBetaPBE         ....  0.030000
 LDA part of GGA corr.  LDAOpt          .... PW91-LDA
 Gradients option       PostSCFGGA      .... off
 Hybrid DFT is turned on
   Fraction HF Exchange ScalHFX         ....  0.420000
   Scaling of DF-GGA-X  ScalDFX         ....  0.580000
   Scaling of DF-GGA-C  ScalDFC         ....  1.000000
   Scaling of DF-LDA-C  ScalLDAC        ....  1.000000
   Perturbative correction              ....  0.000000
   Density functional embedding theory  .... OFF
 RI-approximation to the Coulomb term is turned on
   Number of AuxJ basis functions       .... 553
   RIJ-ON(X) (HFX calculated with O(N)) .... on
   Number of AuxJ basis functions       .... 553
   RIJ-COSX (HFX calculated with COS-X)).... on


General Settings:
 Integral files         IntName         .... pbeh-3c
 Hartree-Fock type      HFTyp           .... RHF
 Total Charge           Charge          ....    0
 Multiplicity           Mult            ....    1
 Number of Electrons    NEL             ....   84
 Basis Dimension        Dim             ....  158
 Nuclear Repulsion      ENuc            ....    656.9115936277 Eh

Convergence Acceleration:
 DIIS                   CNVDIIS         .... on
   Start iteration      DIISMaxIt       ....    12
   Startup error        DIISStart       ....  0.200000
   # of expansion vecs  DIISMaxEq       ....     5
   Bias factor          DIISBfac        ....   1.050
   Max. coefficient     DIISMaxC        ....  10.000
 Trust-Rad. Augm. Hess. CNVTRAH         .... auto
   Auto Start mean grad. ratio tolernc. ....  1.125000
   Auto Start start iteration           ....    20
   Auto Start num. interpolation iter.  ....    10
   Max. Number of Micro iterations      ....    16
   Max. Number of Macro iterations      .... Maxiter - #DIIS iter
   Number of Davidson start vectors     ....     2
   Converg. threshold I  (grad. norm)   ....   1.000e-05
   Converg. threshold II (energy diff.) ....   1.000e-08
   Grad. Scal. Fac. for Micro threshold ....   0.100
   Minimum threshold for Micro iter.    ....   0.010
   NR start threshold (gradient norm)   ....   0.001
   Initial trust radius                 ....   0.400
   Minimum AH scaling param. (alpha)    ....   1.000
   Maximum AH scaling param. (alpha)    .... 1000.000
   Orbital update algorithm             .... Taylor
   White noise on init. David. guess    .... on
   Maximum white noise                  ....   0.010
   Quad. conv. algorithm                .... NR
   COSX micro iterations for RIJONX calc.... off
 SOSCF                  CNVSOSCF        .... on
   Start iteration      SOSCFMaxIt      ....   150
   Startup grad/error   SOSCFStart      ....  0.003300
 Level Shifting         CNVShift        .... on
   Level shift para.    LevelShift      ....    0.2500
   Turn off err/grad.   ShiftErr        ....    0.0010
 Zerner damping         CNVZerner       .... off
 Static damping         CNVDamp         .... on
   Fraction old density DampFac         ....    0.7000
   Max. Damping (<1)    DampMax         ....    0.9800
   Min. Damping (>=0)   DampMin         ....    0.0000
   Turn off err/grad.   DampErr         ....    0.1000
 Fernandez-Rico         CNVRico         .... off

SCF Procedure:
 Maximum # iterations   MaxIter         ....   125
 SCF integral mode      SCFMode         .... Direct
   Integral package                     .... SHARK and LIBINT hybrid scheme
 Reset frequency        DirectResetFreq ....    20
 Integral Threshold     Thresh          ....  2.500e-11 Eh
 Primitive CutOff       TCut            ....  2.500e-12 Eh

Convergence Tolerance:
 Convergence Check Mode ConvCheckMode   .... Total+1el-Energy
 Convergence forced     ConvForced      .... 0
 Energy Change          TolE            ....  1.000e-08 Eh
 1-El. energy change                    ....  1.000e-05 Eh
 Orbital Gradient       TolG            ....  1.000e-05
 Orbital Rotation angle TolX            ....  1.000e-05
 DIIS Error             TolErr          ....  5.000e-07


Diagonalization of the overlap matrix:
Smallest eigenvalue                        ... 8.256e-03
Time for diagonalization                   ...    0.005 sec
Threshold for overlap eigenvalues          ... 1.000e-08
Number of eigenvalues below threshold      ... 0
Time for construction of square roots      ...    0.135 sec
Total time needed                          ...    0.141 sec

--------------------------------
INITIAL GUESS: MINIMAL BASIS EHT
--------------------------------
The minimal basis has 59 functions
EHT matrix was diagonalized
Basis set overlap was calculated now projecting the orbitals
Using GuessMode=FMatrix for the initial guess
C*T matrix was formed
Effective Fockian was calculated
Effective Fockian was diagonalized
Initial density was built
                      ------------------
                      INITIAL GUESS DONE
                      ------------------
-------------------
DFT GRID GENERATION
-------------------

General Integration Accuracy     IntAcc      ... 4.959
Radial Grid Type                 RadialGrid  ... OptM3 with GC (2021)
Angular Grid (max. ang.)         AngularGrid ... 6 (Lebedev-590)
Angular grid pruning method      GridPruning ... 4 (adaptive)
Weight generation scheme         WeightScheme... Becke
Basis function cutoff            BFCut       ... 1.0000e-11
Integration weight cutoff        WCut        ... 1.0000e-14
Angular grids for H and He will be reduced by one unit
Partially contracted basis set               ... off
Rotationally invariant grid construction     ... off

Total number of grid points                  ...   217055
Total number of batches                      ...     3402
Average number of points per batch           ...       63
Average number of grid points per atom       ...    11424
Time for grid setup =    4.095 sec

--------------------
COSX GRID GENERATION
--------------------

GRIDX 1
-------
General Integration Accuracy     IntAcc      ... 4.020
Radial Grid Type                 RadialGrid  ... OptM3 with GC (2021)
Angular Grid (max. ang.)         AngularGrid ... 2 (Lebedev-110)
Angular grid pruning method      GridPruning ... 4 (adaptive)
Weight generation scheme         WeightScheme... Becke
Basis function cutoff            BFCut       ... 1.0000e-11
Integration weight cutoff        WCut        ... 1.0000e-14
Angular grids for H and He will be reduced by one unit
Partially contracted basis set               ... on
Rotationally invariant grid construction     ... off

Total number of grid points                  ...    23923
Total number of batches                      ...      383
Average number of points per batch           ...       62
Average number of grid points per atom       ...     1259
UseSFitting                                  ... on

GRIDX 2
-------
General Integration Accuracy     IntAcc      ... 4.338
Radial Grid Type                 RadialGrid  ... OptM3 with GC (2021)
Angular Grid (max. ang.)         AngularGrid ... 3 (Lebedev-194)
Angular grid pruning method      GridPruning ... 4 (adaptive)
Weight generation scheme         WeightScheme... Becke
Basis function cutoff            BFCut       ... 1.0000e-11
Integration weight cutoff        WCut        ... 1.0000e-14
Angular grids for H and He will be reduced by one unit
Partially contracted basis set               ... on
Rotationally invariant grid construction     ... off

Total number of grid points                  ...    52946
Total number of batches                      ...      836
Average number of points per batch           ...       63
Average number of grid points per atom       ...     2787
UseSFitting                                  ... on

GRIDX 3
-------
General Integration Accuracy     IntAcc      ... 4.871
Radial Grid Type                 RadialGrid  ... OptM3 with GC (2021)
Angular Grid (max. ang.)         AngularGrid ... 4 (Lebedev-302)
Angular grid pruning method      GridPruning ... 4 (adaptive)
Weight generation scheme         WeightScheme... Becke
Basis function cutoff            BFCut       ... 1.0000e-11
Integration weight cutoff        WCut        ... 1.0000e-14
Angular grids for H and He will be reduced by one unit
Partially contracted basis set               ... on
Rotationally invariant grid construction     ... off

Total number of grid points                  ...   101052
Total number of batches                      ...     1587
Average number of points per batch           ...       63
Average number of grid points per atom       ...     5319
UseSFitting                                  ... on

Time for X-Grid setup             =    3.508 sec

--------------
SCF ITERATIONS
--------------
ITER       Energy         Delta-E        Max-DP      RMS-DP      [F,P]     Damp
               ***  Starting incremental Fock matrix formation  ***
  0   -930.5678274129   0.000000000000 0.89073342  0.01054251  0.6758375 0.7000
  1   -932.0442988308  -1.476471417912 0.25796804  0.00450725  0.3822053 0.7000
  2   -932.7074858525  -0.663187021655 0.05507897  0.00214890  0.2768515 0.7000
                               ***Turning on DIIS***
  3   -933.1920311487  -0.484545296191 0.03979670  0.00137952  0.1913724 0.7000
  4   -933.5390123872  -0.346981238467 0.02844802  0.00094668  0.1297183 0.7000
  5   -933.7826359856  -0.243623598472 0.06620295  0.00226415  0.0906573 0.0000
                      *** Initiating the SOSCF procedure ***
                           *** Shutting down DIIS ***
                      *** Re-Reading the Fockian *** 
                      *** Removing any level shift *** 
ITER      Energy       Delta-E        Grad      Rot      Max-DP    RMS-DP
  6   -934.35511122  -0.5724752311  0.001392  0.001392  0.005955  0.000122
               *** Restarting incremental Fock matrix formation ***
  7   -934.35516836  -0.0000571408  0.000973  0.001236  0.009059  0.000102
  8   -934.35516680   0.0000015596  0.001251  0.000730  0.003732  0.000046
  9   -934.35519323  -0.0000264290  0.000100  0.000136  0.000353  0.000011
 10   -934.35519338  -0.0000001539  0.000072  0.000081  0.000205  0.000005
 11   -934.35519365  -0.0000002659  0.000020  0.000031  0.000080  0.000002
 12   -934.35519364   0.0000000067  0.000025  0.000013  0.000042  0.000001
                  ***Gradient check signals convergence***
              ***Rediagonalizing the Fockian in SOSCF/NRSCF***

               *****************************************************
               *                     SUCCESS                       *
               *           SCF CONVERGED AFTER  13 CYCLES          *
               *****************************************************

Old exchange energy                            =    -36.154385254 Eh
New exchange energy                            =    -36.154386270 Eh
Exchange energy change after final integration =     -0.000001015 Eh
Total energy after final integration           =   -934.355194673 Eh
Final COS-X integration done in                =     5.972 sec

----------------
TOTAL SCF ENERGY
----------------

Total Energy       :         -934.35519467 Eh          -25425.09743 eV

Components:
Nuclear Repulsion  :          656.91159363 Eh           17875.47323 eV
Electronic Energy  :        -1591.26678830 Eh          -43300.57067 eV
One Electron Energy:        -2588.15158804 Eh          -70427.18516 eV
Two Electron Energy:          996.88479974 Eh           27126.61449 eV
Max COSX asymmetry :            0.00000278 Eh               0.00008 eV

Virial components:
Potential Energy   :        -1864.41451129 Eh          -50733.29808 eV
Kinetic Energy     :          930.05931662 Eh           25308.20065 eV
Virial Ratio       :            2.00461893


DFT components:
N(Alpha)           :       41.999992243306 electrons
N(Beta)            :       41.999992243306 electrons
N(Total)           :       83.999984486612 electrons
E(X)               :      -48.227008270866 Eh       
E(C)               :       -3.885041202129 Eh       
E(XC)              :      -52.112049472995 Eh       
DFET-embed. en.    :        0.000000000000 Eh       

---------------
SCF CONVERGENCE
---------------

  Last Energy change         ...   -1.8170e-08  Tolerance :   1.0000e-08
  Last MAX-Density change    ...    2.6645e-15  Tolerance :   1.0000e-07
  Last RMS-Density change    ...    5.2786e-17  Tolerance :   5.0000e-09
  Last Orbital Gradient      ...    1.0913e-06  Tolerance :   1.0000e-05
  Last Orbital Rotation      ...    1.2464e-06  Tolerance :   1.0000e-05

             **** THE GBW FILE WAS UPDATED (pbeh-3c.gbw) ****
             **** DENSITY pbeh-3c.scfp WAS UPDATED ****
             **** ENERGY FILE WAS UPDATED (pbeh-3c.en.tmp) ****
             **** THE GBW FILE WAS UPDATED (pbeh-3c.gbw) ****
             **** DENSITY pbeh-3c.scfp WAS UPDATED ****
----------------
ORBITAL ENERGIES
----------------

  NO   OCC          E(Eh)            E(eV) 
   0   2.0000    -102.665965     -2793.6829 
   1   2.0000     -19.488230      -530.3017 
   2   2.0000     -19.485221      -530.2198 
   3   2.0000     -19.484148      -530.1906 
   4   2.0000     -19.483452      -530.1717 
   5   2.0000     -14.771764      -401.9601 
   6   2.0000     -10.539196      -286.7861 
   7   2.0000     -10.532314      -286.5988 
   8   2.0000     -10.469283      -284.8837 
   9   2.0000     -10.076836      -274.2047 
  10   2.0000      -7.764258      -211.2762 
  11   2.0000      -7.764115      -211.2723 
  12   2.0000      -7.763985      -211.2688 
  13   2.0000      -1.363779       -37.1103 
  14   2.0000      -1.132402       -30.8142 
  15   2.0000      -1.123579       -30.5741 
  16   2.0000      -1.110524       -30.2189 
  17   2.0000      -1.101723       -29.9794 
  18   2.0000      -0.896697       -24.4004 
  19   2.0000      -0.838561       -22.8184 
  20   2.0000      -0.749036       -20.3823 
  21   2.0000      -0.713031       -19.4026 
  22   2.0000      -0.676756       -18.4155 
  23   2.0000      -0.629794       -17.1376 
  24   2.0000      -0.595952       -16.2167 
  25   2.0000      -0.586646       -15.9634 
  26   2.0000      -0.584417       -15.9028 
  27   2.0000      -0.576765       -15.6946 
  28   2.0000      -0.538760       -14.6604 
  29   2.0000      -0.519396       -14.1335 
  30   2.0000      -0.513013       -13.9598 
  31   2.0000      -0.473946       -12.8967 
  32   2.0000      -0.465004       -12.6534 
  33   2.0000      -0.447582       -12.1793 
  34   2.0000      -0.414688       -11.2842 
  35   2.0000      -0.412436       -11.2230 
  36   2.0000      -0.393401       -10.7050 
  37   2.0000      -0.387609       -10.5474 
  38   2.0000      -0.382617       -10.4115 
  39   2.0000      -0.322447        -8.7742 
  40   2.0000      -0.317498        -8.6396 
  41   2.0000      -0.315880        -8.5955 
  42   0.0000       0.063800         1.7361 
  43   0.0000       0.105847         2.8802 
  44   0.0000       0.111775         3.0416 
  45   0.0000       0.122897         3.3442 
  46   0.0000       0.123655         3.3648 
  47   0.0000       0.134411         3.6575 
  48   0.0000       0.142963         3.8902 
  49   0.0000       0.145778         3.9668 
  50   0.0000       0.155953         4.2437 
  51   0.0000       0.167249         4.5511 
  52   0.0000       0.172621         4.6972 
  53   0.0000       0.182198         4.9579 
  54   0.0000       0.189415         5.1543 
  55   0.0000       0.193992         5.2788 
  56   0.0000       0.217181         5.9098 
  57   0.0000       0.227165         6.1815 
  58   0.0000       0.263371         7.1667 
  59   0.0000       0.423547        11.5253 
  60   0.0000       0.442273        12.0349 
  61   0.0000       0.453235        12.3332 
  62   0.0000       0.457629        12.4527 
  63   0.0000       0.501792        13.6545 
  64   0.0000       0.525252        14.2928 
  65   0.0000       0.537181        14.6174 
  66   0.0000       0.554186        15.0802 
  67   0.0000       0.615856        16.7583 
  68   0.0000       0.664306        18.0767 
  69   0.0000       0.682302        18.5664 
  70   0.0000       0.687693        18.7131 
  71   0.0000       0.757351        20.6086 
  72   0.0000       0.805311        21.9136 
  73   0.0000       0.820660        22.3313 
  74   0.0000       0.827533        22.5183 
  75   0.0000       0.859533        23.3891 
  76   0.0000       0.871758        23.7218 
  77   0.0000       0.893444        24.3119 
  78   0.0000       0.904765        24.6199 
  79   0.0000       0.912275        24.8243 
  80   0.0000       0.931434        25.3456 
  81   0.0000       0.949920        25.8486 
  82   0.0000       0.956978        26.0407 
  83   0.0000       0.973105        26.4795 
  84   0.0000       0.977735        26.6055 
  85   0.0000       0.993703        27.0400 
  86   0.0000       1.005686        27.3661 
  87   0.0000       1.010238        27.4900 
  88   0.0000       1.013386        27.5756 
  89   0.0000       1.049275        28.5522 
  90   0.0000       1.061364        28.8812 
  91   0.0000       1.074969        29.2514 
  92   0.0000       1.098185        29.8831 
  93   0.0000       1.106518        30.1099 
  94   0.0000       1.146811        31.2063 
  95   0.0000       1.167229        31.7619 
  96   0.0000       1.180645        32.1270 
  97   0.0000       1.211255        32.9599 
  98   0.0000       1.227608        33.4049 
  99   0.0000       1.253165        34.1003 
 100   0.0000       1.328579        36.1525 
 101   0.0000       1.379719        37.5441 
 102   0.0000       1.381502        37.5926 
 103   0.0000       1.405895        38.2563 
 104   0.0000       1.418753        38.6062 
 105   0.0000       1.446925        39.3728 
 106   0.0000       1.497297        40.7435 
 107   0.0000       1.685785        45.8725 
 108   0.0000       1.724112        46.9155 
 109   0.0000       1.743365        47.4394 
 110   0.0000       1.793172        48.7947 
 111   0.0000       1.826913        49.7128 
 112   0.0000       1.829390        49.7802 
 113   0.0000       1.843796        50.1722 
 114   0.0000       1.852519        50.4096 
 115   0.0000       1.853408        50.4338 
 116   0.0000       1.876568        51.0640 
 117   0.0000       1.886643        51.3382 
 118   0.0000       1.889665        51.4204 
 119   0.0000       1.906567        51.8803 
 120   0.0000       1.912397        52.0390 
 121   0.0000       1.920996        52.2730 
 122   0.0000       1.924593        52.3709 
 123   0.0000       1.930089        52.5204 
 124   0.0000       1.946343        52.9627 
 125   0.0000       1.962796        53.4104 
 126   0.0000       1.967143        53.5287 
 127   0.0000       2.022453        55.0337 
 128   0.0000       2.085754        56.7562 
 129   0.0000       2.107036        57.3354 
 130   0.0000       2.144736        58.3612 
 131   0.0000       2.169296        59.0295 
 132   0.0000       2.264357        61.6163 
 133   0.0000       2.285609        62.1946 
 134   0.0000       2.310512        62.8722 
 135   0.0000       2.319049        63.1045 
 136   0.0000       2.341961        63.7280 
 137   0.0000       2.384569        64.8874 
 138   0.0000       2.407052        65.4992 
 139   0.0000       2.426791        66.0364 
 140   0.0000       2.445639        66.5492 
 141   0.0000       2.461079        66.9694 
 142   0.0000       2.533230        68.9327 
 143   0.0000       2.570997        69.9604 
 144   0.0000       2.646892        72.0256 
 145   0.0000       2.698283        73.4240 
 146   0.0000       2.736877        74.4742 
 147   0.0000       2.859874        77.8211 
 148   0.0000       2.880067        78.3706 
 149   0.0000       2.925560        79.6085 
 150   0.0000      13.582593       369.6011 
 151   0.0000      13.677524       372.1844 
 152   0.0000      13.909565       378.4985 
 153   0.0000      19.143497       520.9210 
 154   0.0000      25.451907       692.5816 
 155   0.0000      25.486585       693.5252 
 156   0.0000      25.498036       693.8368 
 157   0.0000      25.855353       703.5599 

                    ********************************
                    * MULLIKEN POPULATION ANALYSIS *
                    ********************************

-----------------------
MULLIKEN ATOMIC CHARGES
-----------------------
   0 C :   -0.520986
   1 N :   -0.679358
   2 C :   -0.333152
   3 C :   -0.666228
   4 H :    0.461644
   5 H :    0.441615
   6 H :    0.255229
   7 H :    0.281895
   8 H :    0.265924
   9 H :    0.254380
  10 H :    0.212999
  11 H :    0.283838
  12 H :    0.242584
  13 H :    0.310060
  14 O :   -0.663865
  15 Cl:    1.692927
  16 O :   -0.564937
  17 O :   -0.614649
  18 O :   -0.659920
Sum of atomic charges:    0.0000000

--------------------------------
MULLIKEN REDUCED ORBITAL CHARGES
--------------------------------
  0 C s       :     3.373075  s :     3.373075
      pz      :     1.099679  p :     3.103057
      px      :     1.080226
      py      :     0.923152
      dz2     :     0.012844  d :     0.044854
      dxz     :     0.005274
      dyz     :     0.006342
      dx2y2   :     0.009958
      dxy     :     0.010436
  1 N s       :     3.618492  s :     3.618492
      pz      :     1.443649  p :     4.017398
      px      :     1.339884
      py      :     1.233865
      dz2     :     0.012478  d :     0.043467
      dxz     :     0.004945
      dyz     :     0.005915
      dx2y2   :     0.013054
      dxy     :     0.007074
  2 C s       :     3.331374  s :     3.331374
      pz      :     1.092065  p :     2.950881
      px      :     1.062132
      py      :     0.796683
      dz2     :     0.015860  d :     0.050897
      dxz     :     0.007159
      dyz     :     0.004025
      dx2y2   :     0.008578
      dxy     :     0.015276
  3 C s       :     3.397691  s :     3.397691
      pz      :     1.094472  p :     3.233396
      px      :     0.997752
      py      :     1.141172
      dz2     :     0.010929  d :     0.035141
      dxz     :     0.007432
      dyz     :     0.001892
      dx2y2   :     0.005363
      dxy     :     0.009524
  4 H s       :     0.538356  s :     0.538356
  5 H s       :     0.558385  s :     0.558385
  6 H s       :     0.744771  s :     0.744771
  7 H s       :     0.718105  s :     0.718105
  8 H s       :     0.734076  s :     0.734076
  9 H s       :     0.745620  s :     0.745620
 10 H s       :     0.787001  s :     0.787001
 11 H s       :     0.716162  s :     0.716162
 12 H s       :     0.757416  s :     0.757416
 13 H s       :     0.689940  s :     0.689940
 14 O s       :     3.896549  s :     3.896549
      pz      :     1.315503  p :     4.730998
      px      :     1.665861
      py      :     1.749634
      dz2     :     0.011386  d :     0.036317
      dxz     :     0.011027
      dyz     :     0.007891
      dx2y2   :     0.002967
      dxy     :     0.003047
 15 Cls       :     5.326463  s :     5.326463
      pz      :     3.051411  p :     9.161786
      px      :     3.058520
      py      :     3.051856
      dz2     :     0.174934  d :     0.818823
      dxz     :     0.171242
      dyz     :     0.147815
      dx2y2   :     0.148676
      dxy     :     0.176156
 16 O s       :     3.891199  s :     3.891199
      pz      :     1.398754  p :     4.631515
      px      :     1.490001
      py      :     1.742760
      dz2     :     0.010527  d :     0.042224
      dxz     :     0.014928
      dyz     :     0.006594
      dx2y2   :     0.005599
      dxy     :     0.004576
 17 O s       :     3.895437  s :     3.895437
      pz      :     1.756098  p :     4.679989
      px      :     1.677555
      py      :     1.246337
      dz2     :     0.005129  d :     0.039222
      dxz     :     0.001349
      dyz     :     0.008618
      dx2y2   :     0.012134
      dxy     :     0.011992
 18 O s       :     3.898038  s :     3.898038
      pz      :     1.759748  p :     4.727964
      px      :     1.406940
      py      :     1.561276
      dz2     :     0.005522  d :     0.033918
      dxz     :     0.004882
      dyz     :     0.003767
      dx2y2   :     0.007022
      dxy     :     0.012724


                     *******************************
                     * LOEWDIN POPULATION ANALYSIS *
                     *******************************

----------------------
LOEWDIN ATOMIC CHARGES
----------------------
   0 C :   -0.250831
   1 N :   -0.168823
   2 C :   -0.149239
   3 C :   -0.374647
   4 H :    0.284293
   5 H :    0.293981
   6 H :    0.143295
   7 H :    0.156209
   8 H :    0.148859
   9 H :    0.152269
  10 H :    0.126158
  11 H :    0.161898
  12 H :    0.131581
  13 H :    0.164488
  14 O :   -0.659108
  15 Cl:    1.687107
  16 O :   -0.566709
  17 O :   -0.619330
  18 O :   -0.661451

-------------------------------
LOEWDIN REDUCED ORBITAL CHARGES
-------------------------------
  0 C s       :     2.964149  s :     2.964149
      pz      :     1.111144  p :     3.200870
      px      :     1.098650
      py      :     0.991075
      dz2     :     0.023081  d :     0.085812
      dxz     :     0.009546
      dyz     :     0.013210
      dx2y2   :     0.019257
      dxy     :     0.020718
  1 N s       :     3.154012  s :     3.154012
      pz      :     1.369084  p :     3.931843
      px      :     1.300776
      py      :     1.261983
      dz2     :     0.021502  d :     0.082967
      dxz     :     0.008106
      dyz     :     0.012491
      dx2y2   :     0.024911
      dxy     :     0.015957
  2 C s       :     2.932773  s :     2.932773
      pz      :     1.116274  p :     3.113943
      px      :     1.101504
      py      :     0.896165
      dz2     :     0.029201  d :     0.102524
      dxz     :     0.014867
      dyz     :     0.009040
      dx2y2   :     0.018591
      dxy     :     0.030824
  3 C s       :     2.960688  s :     2.960688
      pz      :     1.129348  p :     3.348024
      px      :     1.080912
      py      :     1.137765
      dz2     :     0.019333  d :     0.065934
      dxz     :     0.015664
      dyz     :     0.003354
      dx2y2   :     0.010451
      dxy     :     0.017131
  4 H s       :     0.715707  s :     0.715707
  5 H s       :     0.706019  s :     0.706019
  6 H s       :     0.856705  s :     0.856705
  7 H s       :     0.843791  s :     0.843791
  8 H s       :     0.851141  s :     0.851141
  9 H s       :     0.847731  s :     0.847731
 10 H s       :     0.873842  s :     0.873842
 11 H s       :     0.838102  s :     0.838102
 12 H s       :     0.868419  s :     0.868419
 13 H s       :     0.835512  s :     0.835512
 14 O s       :     3.734289  s :     3.734289
      pz      :     1.398228  p :     4.860716
      px      :     1.695691
      py      :     1.766797
      dz2     :     0.020671  d :     0.064104
      dxz     :     0.021175
      dyz     :     0.013320
      dx2y2   :     0.004104
      dxy     :     0.004834
 15 Cls       :     5.164965  s :     5.164965
      pz      :     3.035652  p :     9.105504
      px      :     3.035316
      py      :     3.034537
      dz2     :     0.225859  d :     1.042424
      dxz     :     0.228849
      dyz     :     0.172651
      dx2y2   :     0.184192
      dxy     :     0.230873
 16 O s       :     3.713676  s :     3.713676
      pz      :     1.474986  p :     4.779334
      px      :     1.548626
      py      :     1.755723
      dz2     :     0.016688  d :     0.073699
      dxz     :     0.031607
      dyz     :     0.009212
      dx2y2   :     0.009601
      dxy     :     0.006591
 17 O s       :     3.725621  s :     3.725621
      pz      :     1.771971  p :     4.824528
      px      :     1.704877
      py      :     1.347680
      dz2     :     0.010467  d :     0.069181
      dxz     :     0.002212
      dyz     :     0.012503
      dx2y2   :     0.022380
      dxy     :     0.021619
 18 O s       :     3.733509  s :     3.733509
      pz      :     1.773603  p :     4.867328
      px      :     1.481552
      py      :     1.612173
      dz2     :     0.010309  d :     0.060614
      dxz     :     0.008262
      dyz     :     0.005753
      dx2y2   :     0.010699
      dxy     :     0.025591


                      *****************************
                      * MAYER POPULATION ANALYSIS *
                      *****************************

  NA   - Mulliken gross atomic population
  ZA   - Total nuclear charge
  QA   - Mulliken gross atomic charge
  VA   - Mayer's total valence
  BVA  - Mayer's bonded valence
  FA   - Mayer's free valence

  ATOM       NA         ZA         QA         VA         BVA        FA
  0 C      6.5210     6.0000    -0.5210     3.6090     3.6090     0.0000
  1 N      7.6794     7.0000    -0.6794     3.1065     3.1065     0.0000
  2 C      6.3332     6.0000    -0.3332     3.5826     3.5826     0.0000
  3 C      6.6662     6.0000    -0.6662     3.6791     3.6791    -0.0000
  4 H      0.5384     1.0000     0.4616     0.8053     0.8053     0.0000
  5 H      0.5584     1.0000     0.4416     0.7952     0.7952    -0.0000
  6 H      0.7448     1.0000     0.2552     0.9008     0.9008    -0.0000
  7 H      0.7181     1.0000     0.2819     0.8914     0.8914    -0.0000
  8 H      0.7341     1.0000     0.2659     0.8978     0.8978    -0.0000
  9 H      0.7456     1.0000     0.2544     0.9034     0.9034    -0.0000
 10 H      0.7870     1.0000     0.2130     0.9137     0.9137    -0.0000
 11 H      0.7162     1.0000     0.2838     0.9025     0.9025    -0.0000
 12 H      0.7574     1.0000     0.2426     0.8984     0.8984     0.0000
 13 H      0.6899     1.0000     0.3101     0.8883     0.8883     0.0000
 14 O      8.6639     8.0000    -0.6639     1.7085     1.7085    -0.0000
 15 Cl    15.3071    17.0000     1.6929     5.5875     5.5875     0.0000
 16 O      8.5649     8.0000    -0.5649     1.8280     1.8280     0.0000
 17 O      8.6146     8.0000    -0.6146     1.7696     1.7696     0.0000
 18 O      8.6599     8.0000    -0.6599     1.7261     1.7261     0.0000

  Mayer bond orders larger than 0.100000
B(  0-C ,  1-N ) :   0.9110 B(  0-C ,  6-H ) :   0.9105 B(  0-C ,  7-H ) :   0.9031 
B(  0-C ,  8-H ) :   0.9040 B(  1-N ,  2-C ) :   0.8543 B(  1-N ,  4-H ) :   0.6061 
B(  1-N ,  5-H ) :   0.7475 B(  2-C ,  3-C ) :   0.9874 B(  2-C , 12-H ) :   0.9044 
B(  2-C , 13-H ) :   0.8688 B(  3-C ,  9-H ) :   0.9122 B(  3-C , 10-H ) :   0.9218 
B(  3-C , 11-H ) :   0.8875 B(  4-H , 18-O ) :   0.2016 B( 14-O , 15-Cl) :   1.3559 
B( 15-Cl, 16-O ) :   1.5305 B( 15-Cl, 17-O ) :   1.4390 B( 15-Cl, 18-O ) :   1.2414 
B( 16-O , 17-O ) :   0.1002 

-------
TIMINGS
-------

Total SCF time: 0 days 0 hours 1 min 34 sec 

Total time                  ....      94.026 sec
Sum of individual times     ....      89.579 sec  ( 95.3%)

Fock matrix formation       ....      77.268 sec  ( 82.2%)
  Split-RI-J                ....       7.559 sec  (  9.8% of F)
  Chain of spheres X        ....      37.035 sec  ( 47.9% of F)
  XC integration            ....      19.324 sec  ( 25.0% of F)
    Basis function eval.    ....       3.600 sec  ( 18.6% of XC)
    Density eval.           ....       2.100 sec  ( 10.9% of XC)
    XC-Functional eval.     ....       1.495 sec  (  7.7% of XC)
    XC-Potential eval.      ....       1.081 sec  (  5.6% of XC)
Diagonalization             ....       0.880 sec  (  0.9%)
Density matrix formation    ....       0.162 sec  (  0.2%)
Population analysis         ....       0.694 sec  (  0.7%)
Initial guess               ....       0.026 sec  (  0.0%)
Orbital Transformation      ....       0.000 sec  (  0.0%)
Orbital Orthonormalization  ....       0.000 sec  (  0.0%)
DIIS solution               ....       1.188 sec  (  1.3%)
SOSCF solution              ....       1.758 sec  (  1.9%)
Grid generation             ....       7.603 sec  (  8.1%)

Maximum memory used throughout the entire SCF-calculation: 58.2 MB


-------------------------------------------------------------------------------
                          DFT DISPERSION CORRECTION                            
                                                                               
                              DFTD3 V3.1  Rev 1                                
                          USING Becke-Johnson damping                          
-------------------------------------------------------------------------------
The PBEh-3c composite method is recognized
Using three-body term ABC
Active option DFTDOPT                   ...         4   

molecular C6(AA) [au] = 3354.307115 


            DFT-D V3
 parameters
 s6 scaling factor         :     1.0000 
 a1 scaling factor         :     0.4860 
 s8 scaling factor         :     0.0000 
 a2 scaling factor         :     4.5000 
 Damping factor alpha9(ATM):    16.0000 
 ad hoc parameters k1-k3   :    16.0000     1.3333    -4.0000 

 Edisp/kcal,au: -6.473709113429  -0.010316511050 
 E6   /kcal   :  -6.530490385 
 E8   /kcal   :  -0.000000000 
 E6(ABC)      :   0.056781272 
 % E8         :   0.000000000 
 % E6(ABC)    :  -0.877105705 

-------------------------   ----------------
Dispersion correction           -0.010316511
-------------------------   ----------------

------------------   -----------------
gCP correction             0.050440219
------------------   -----------------

-------------------------   --------------------
FINAL SINGLE POINT ENERGY      -934.315070965786
-------------------------   --------------------


                            ***************************************
                            *     ORCA property calculations      *
                            ***************************************

                                    ---------------------
                                    Active property flags
                                    ---------------------
   (+) Dipole Moment


------------------------------------------------------------------------------
                       ORCA ELECTRIC PROPERTIES CALCULATION
------------------------------------------------------------------------------

Dipole Moment Calculation                       ... on
Quadrupole Moment Calculation                   ... off
Polarizability Calculation                      ... off
GBWName                                         ... pbeh-3c.gbw
Electron density                                ... pbeh-3c.scfp
The origin for moment calculation is the CENTER OF MASS  = ( 1.790959,  1.326586  2.711839)

-------------
DIPOLE MOMENT
-------------
                                X             Y             Z
Electronic contribution:     14.69721       2.52114      11.75507
Nuclear contribution   :    -17.41105      -3.65169     -14.96146
                        -----------------------------------------
Total Dipole Moment    :     -2.71385      -1.13054      -3.20640
                        -----------------------------------------
Magnitude (a.u.)       :      4.35018
Magnitude (Debye)      :     11.05728



--------------------
Rotational spectrum 
--------------------
 
Rotational constants in cm-1:     0.078854     0.027561     0.024357 
Rotational constants in MHz :  2363.977349   826.244845   730.210884 

 Dipole components along the rotational axes: 
x,y,z [a.u.] :    -4.300367    -0.582181    -0.303293 
x,y,z [Debye]:   -10.930663    -1.479787    -0.770910 

 

Timings for individual modules:

Sum of individual times         ...       97.127 sec (=   1.619 min)
GTO integral calculation        ...        2.414 sec (=   0.040 min)   2.5 %
SCF iterations                  ...       94.713 sec (=   1.579 min)  97.5 %
                             ****ORCA TERMINATED NORMALLY****
TOTAL RUN TIME: 0 days 0 hours 1 minutes 41 seconds 121 msec
