
                                 *****************
                                 * O   R   C   A *
                                 *****************

                                            #,                                       
                                            ###                                      
                                            ####                                     
                                            #####                                    
                                            ######                                   
                                           ########,                                 
                                     ,,################,,,,,                         
                               ,,#################################,,                 
                          ,,##########################################,,             
                       ,#########################################, ''#####,          
                    ,#############################################,,   '####,        
                  ,##################################################,,,,####,       
                ,###########''''           ''''###############################       
              ,#####''   ,,,,##########,,,,          '''####'''          '####       
            ,##' ,,,,###########################,,,                        '##       
           ' ,,###''''                  '''############,,,                           
         ,,##''                                '''############,,,,        ,,,,,,###''
      ,#''                                            '''#######################'''  
     '                                                          ''''####''''         
             ,#######,   #######,   ,#######,      ##                                
            ,#'     '#,  ##    ##  ,#'     '#,    #''#        ######   ,####,        
            ##       ##  ##   ,#'  ##            #'  '#       #        #'  '#        
            ##       ##  #######   ##           ,######,      #####,   #    #        
            '#,     ,#'  ##    ##  '#,     ,#' ,#      #,         ##   #,  ,#        
             '#######'   ##     ##  '#######'  #'      '#     #####' # '####'        



                  #######################################################
                  #                        -***-                        #
                  #          Department of theory and spectroscopy      #
                  #    Directorship and core code : Frank Neese         #
                  #        Max Planck Institute fuer Kohlenforschung    #
                  #                Kaiser Wilhelm Platz 1               #
                  #                 D-45470 Muelheim/Ruhr               #
                  #                      Germany                        #
                  #                                                     #
                  #                  All rights reserved                #
                  #                        -***-                        #
                  #######################################################


                         Program Version 5.0.3 -  RELEASE  -


 With contributions from (in alphabetic order):
   Daniel Aravena         : Magnetic Suceptibility
   Michael Atanasov       : Ab Initio Ligand Field Theory (pilot matlab implementation)
   Alexander A. Auer      : GIAO ZORA, VPT2 properties, NMR spectrum
   Ute Becker             : Parallelization
   Giovanni Bistoni       : ED, misc. LED, open-shell LED, HFLD
   Martin Brehm           : Molecular dynamics
   Dmytro Bykov           : SCF Hessian
   Vijay G. Chilkuri      : MRCI spin determinant printing, contributions to CSF-ICE
   Dipayan Datta          : RHF DLPNO-CCSD density
   Achintya Kumar Dutta   : EOM-CC, STEOM-CC
   Dmitry Ganyushin       : Spin-Orbit,Spin-Spin,Magnetic field MRCI
   Miquel Garcia          : C-PCM and meta-GGA Hessian, CC/C-PCM, Gaussian charge scheme
   Yang Guo               : DLPNO-NEVPT2, F12-NEVPT2, CIM, IAO-localization
   Andreas Hansen         : Spin unrestricted coupled pair/coupled cluster methods
   Benjamin Helmich-Paris : MC-RPA, TRAH-SCF, COSX integrals
   Lee Huntington         : MR-EOM, pCC
   Robert Izsak           : Overlap fitted RIJCOSX, COSX-SCS-MP3, EOM
   Marcus Kettner         : VPT2
   Christian Kollmar      : KDIIS, OOCD, Brueckner-CCSD(T), CCSD density, CASPT2, CASPT2-K
   Simone Kossmann        : Meta GGA functionals, TD-DFT gradient, OOMP2, MP2 Hessian
   Martin Krupicka        : Initial AUTO-CI
   Lucas Lang             : DCDCAS
   Marvin Lechner         : AUTO-CI (C++ implementation), FIC-MRCC
   Dagmar Lenk            : GEPOL surface, SMD
   Dimitrios Liakos       : Extrapolation schemes; Compound Job, initial MDCI parallelization
   Dimitrios Manganas     : Further ROCIS development; embedding schemes
   Dimitrios Pantazis     : SARC Basis sets
   Anastasios Papadopoulos: AUTO-CI, single reference methods and gradients
   Taras Petrenko         : DFT Hessian,TD-DFT gradient, ASA, ECA, R-Raman, ABS, FL, XAS/XES, NRVS
   Peter Pinski           : DLPNO-MP2, DLPNO-MP2 Gradient
   Christoph Reimann      : Effective Core Potentials
   Marius Retegan         : Local ZFS, SOC
   Christoph Riplinger    : Optimizer, TS searches, QM/MM, DLPNO-CCSD(T), (RO)-DLPNO pert. Triples
   Tobias Risthaus        : Range-separated hybrids, TD-DFT gradient, RPA, STAB
   Michael Roemelt        : Original ROCIS implementation
   Masaaki Saitow         : Open-shell DLPNO-CCSD energy and density
   Barbara Sandhoefer     : DKH picture change effects
   Avijit Sen             : IP-ROCIS
   Kantharuban Sivalingam : CASSCF convergence, NEVPT2, FIC-MRCI
   Bernardo de Souza      : ESD, SOC TD-DFT
   Georgi Stoychev        : AutoAux, RI-MP2 NMR, DLPNO-MP2 response
   Willem Van den Heuvel  : Paramagnetic NMR
   Boris Wezisla          : Elementary symmetry handling
   Frank Wennmohs         : Technical directorship


 We gratefully acknowledge several colleagues who have allowed us to
 interface, adapt or use parts of their codes:
   Stefan Grimme, W. Hujo, H. Kruse, P. Pracht,  : VdW corrections, initial TS optimization,
                  C. Bannwarth, S. Ehlert          DFT functionals, gCP, sTDA/sTD-DF
   Ed Valeev, F. Pavosevic, A. Kumar             : LibInt (2-el integral package), F12 methods
   Garnet Chan, S. Sharma, J. Yang, R. Olivares  : DMRG
   Ulf Ekstrom                                   : XCFun DFT Library
   Mihaly Kallay                                 : mrcc  (arbitrary order and MRCC methods)
   Jiri Pittner, Ondrej Demel                    : Mk-CCSD
   Frank Weinhold                                : gennbo (NPA and NBO analysis)
   Christopher J. Cramer and Donald G. Truhlar   : smd solvation model
   Lars Goerigk                                  : TD-DFT with DH, B97 family of functionals
   V. Asgeirsson, H. Jonsson                     : NEB implementation
   FAccTs GmbH                                   : IRC, NEB, NEB-TS, DLPNO-Multilevel, CI-OPT
                                                   MM, QMMM, 2- and 3-layer-ONIOM, Crystal-QMMM,
                                                   LR-CPCM, SF, NACMEs, symmetry and pop. for TD-DFT,
                                                   nearIR, NL-DFT gradient (VV10), updates on ESD,
                                                   ML-optimized integration grids
   S Lehtola, MJT Oliveira, MAL Marques          : LibXC Library
   Liviu Ungur et al                             : ANISO software


 Your calculation uses the libint2 library for the computation of 2-el integrals
 For citations please refer to: http://libint.valeyev.net

 Your ORCA version has been built with support for libXC version: 5.1.0
 For citations please refer to: https://tddft.org/programs/libxc/

 This ORCA versions uses:
   CBLAS   interface :  Fast vector & matrix operations
   LAPACKE interface :  Fast linear algebra routines
   SCALAPACK package :  Parallel linear algebra routines
   Shared memory     :  Shared parallel matrices
   BLAS/LAPACK       :  OpenBLAS 0.3.15  USE64BITINT DYNAMIC_ARCH NO_AFFINITY Haswell SINGLE_THREADED
        Core in use  :  Haswell
   Copyright (c) 2011-2014, The OpenBLAS Project




***************************************
The coordinates will be read from file: butadiene_strans.xyz
***************************************


Your calculation utilizes the geometrical counterpoise correction gCP
Please cite in your paper:
H.Kruse, S. Grimme J.Chem.Phys., 136, (2012), 154101 
   

Your calculation utilizes the atom-pairwise dispersion correction
with the Becke-Johnson damping scheme (D3BJ)
Cite in your paper:
S.Grimme, S.Ehrlich, L.Goerigk, J Comput Chem, (2011), 32, 1456–1465 
S.Grimme, J.Antony, S.Ehrlich and H.Krieg, J.Chem.Phys., 132, (2010), 154104 
   

Your calculation employs the composite approach PBEh-3c.
Please cite in your paper:
S. Grimme, J. G. Brandenburg, C. Bannwarth, A. Hansen J.Chem.Phys., 143, (2015), 054107 
   

================================================================================

----- Orbital basis set information -----
Your calculation utilizes the basis: def2-mSVP

----- AuxJ basis set information -----
Your calculation utilizes the auxiliary basis: def2/J
   F. Weigend, Phys. Chem. Chem. Phys. 8, 1057 (2006).

================================================================================
                                        WARNINGS
                       Please study these warnings very carefully!
================================================================================


INFO   : the flag for use of the SHARK integral package has been found!

================================================================================
                                       INPUT FILE
================================================================================
NAME = pbeh-3c.inp
|  1> ! PBEh-3c def2/J TightSCF DefGrid3
|  2> 
|  3> %maxcore 60000
|  4> 
|  5> %pal
|  6> nprocs 4
|  7> end
|  8> 
|  9> *xyzfile 0 1 butadiene_strans.xyz
| 10> 
| 11>                          ****END OF INPUT****
================================================================================

                       ****************************
                       * Single Point Calculation *
                       ****************************

---------------------------------
CARTESIAN COORDINATES (ANGSTROEM)
---------------------------------
  C      1.171844    1.411186    0.000000
  C      0.035752    0.722755    0.000000
  C     -0.035752   -0.722755    0.000000
  C     -1.171844   -1.411186    0.000000
  H     -0.909513    1.250796    0.000000
  H      1.181744    2.488907    0.000000
  H      2.129312    0.911103    0.000000
  H      0.909513   -1.250796    0.000000
  H     -1.181744   -2.488907    0.000000
  H     -2.129312   -0.911103    0.000000

----------------------------
CARTESIAN COORDINATES (A.U.)
----------------------------
  NO LB      ZA    FRAG     MASS         X           Y           Z
   0 C     6.0000    0    12.011    2.214465    2.666755    0.000000
   1 C     6.0000    0    12.011    0.067562    1.365809    0.000000
   2 C     6.0000    0    12.011   -0.067562   -1.365809    0.000000
   3 C     6.0000    0    12.011   -2.214465   -2.666755    0.000000
   4 H     1.0000    0     1.008   -1.718731    2.363663    0.000000
   5 H     1.0000    0     1.008    2.233173    4.703353    0.000000
   6 H     1.0000    0     1.008    4.023817    1.721736    0.000000
   7 H     1.0000    0     1.008    1.718731   -2.363663    0.000000
   8 H     1.0000    0     1.008   -2.233173   -4.703353    0.000000
   9 H     1.0000    0     1.008   -4.023817   -1.721736    0.000000

--------------------------------
INTERNAL COORDINATES (ANGSTROEM)
--------------------------------
 C      0   0   0     0.000000000000     0.00000000     0.00000000
 C      1   0   0     1.328398301341     0.00000000     0.00000000
 C      2   1   0     1.447277067984   124.04628726     0.00000000
 C      3   2   1     1.328398301341   124.04628726   180.00000000
 H      2   1   3     1.082753515315   119.59716487   180.00000000
 H      1   2   3     1.077766668147   121.74065849   180.00000085
 H      1   2   3     1.080197845931   121.20770824     0.00000000
 H      3   2   1     1.082753515315   116.35654787     0.00000000
 H      4   3   2     1.077766668147   121.74065849   180.00000085
 H      4   3   2     1.080197845931   121.20770824     0.00000000

---------------------------
INTERNAL COORDINATES (A.U.)
---------------------------
 C      0   0   0     0.000000000000     0.00000000     0.00000000
 C      1   0   0     2.510308986301     0.00000000     0.00000000
 C      2   1   0     2.734957298395   124.04628726     0.00000000
 C      3   2   1     2.510308986301   124.04628726   180.00000000
 H      2   1   3     2.046107614486   119.59716487   180.00000000
 H      1   2   3     2.036683839067   121.74065849   180.00000085
 H      1   2   3     2.041278099261   121.20770824     0.00000000
 H      3   2   1     2.046107614486   116.35654787     0.00000000
 H      4   3   2     2.036683839067   121.74065849   180.00000085
 H      4   3   2     2.041278099261   121.20770824     0.00000000

---------------------
BASIS SET INFORMATION
---------------------
There are 2 groups of distinct atoms

 Group   1 Type C   : 8s4p1d contracted to 4s2p1d pattern {5111/31/1}
 Group   2 Type H   : 4s contracted to 2s pattern {31}

Atom   0C    basis set group =>   1
Atom   1C    basis set group =>   1
Atom   2C    basis set group =>   1
Atom   3C    basis set group =>   1
Atom   4H    basis set group =>   2
Atom   5H    basis set group =>   2
Atom   6H    basis set group =>   2
Atom   7H    basis set group =>   2
Atom   8H    basis set group =>   2
Atom   9H    basis set group =>   2
---------------------------------
AUXILIARY/J BASIS SET INFORMATION
---------------------------------
There are 2 groups of distinct atoms

 Group   1 Type C   : 12s5p4d2f1g contracted to 6s4p3d1f1g pattern {711111/2111/211/2/1}
 Group   2 Type H   : 5s2p1d contracted to 3s1p1d pattern {311/2/1}

Atom   0C    basis set group =>   1
Atom   1C    basis set group =>   1
Atom   2C    basis set group =>   1
Atom   3C    basis set group =>   1
Atom   4H    basis set group =>   2
Atom   5H    basis set group =>   2
Atom   6H    basis set group =>   2
Atom   7H    basis set group =>   2
Atom   8H    basis set group =>   2
Atom   9H    basis set group =>   2


           ************************************************************
           *        Program running with 4 parallel MPI-processes     *
           *              working on a common directory               *
           ************************************************************
------------------------------------------------------------------------------
                           ORCA GTO INTEGRAL CALCULATION
                           -- RI-GTO INTEGRALS CHOSEN --
------------------------------------------------------------------------------
------------------------------------------------------------------------------
                   ___                                                        
                  /   \      - P O W E R E D   B Y -                         
                 /     \                                                     
                 |  |  |   _    _      __       _____    __    __             
                 |  |  |  | |  | |    /  \     |  _  \  |  |  /  |          
                  \  \/   | |  | |   /    \    | | | |  |  | /  /          
                 / \  \   | |__| |  /  /\  \   | |_| |  |  |/  /          
                |  |  |   |  __  | /  /__\  \  |    /   |      \           
                |  |  |   | |  | | |   __   |  |    \   |  |\   \          
                \     /   | |  | | |  |  |  |  | |\  \  |  | \   \       
                 \___/    |_|  |_| |__|  |__|  |_| \__\ |__|  \__/        
                                                                              
                      - O R C A' S   B I G   F R I E N D -                    
                                      &                                       
                       - I N T E G R A L  F E E D E R -                       
                                                                              
 v1 FN, 2020, v2 2021                                                         
------------------------------------------------------------------------------


Reading SHARK input file pbeh-3c.SHARKINP.tmp ... ok
----------------------
SHARK INTEGRAL PACKAGE
----------------------

Number of atoms                             ...     10
Number of basis functions                   ...     72
Number of shells                            ...     40
Maximum angular momentum                    ...      2
Integral batch strategy                     ... SHARK/LIBINT Hybrid
RI-J (if used) integral strategy            ... SPLIT-RIJ (Revised 2003 algorithm where possible)
Printlevel                                  ...      1
Contraction scheme used                     ... SEGMENTED contraction
Coulomb Range Separation                    ... NOT USED
Exchange Range Separation                   ... NOT USED
Finite Nucleus Model                        ... NOT USED
Auxiliary Coulomb fitting basis             ... AVAILABLE
   # of basis functions in Aux-J            ...    262
   # of shells in Aux-J                     ...     90
   Maximum angular momentum in Aux-J        ...      4
Auxiliary J/K fitting basis                 ... NOT available
Auxiliary Correlation fitting basis         ... NOT available
Auxiliary 'external' fitting basis          ... NOT available
Integral threshold                          ...     2.500000e-11
Primitive cut-off                           ...     2.500000e-12
Primitive pair pre-selection threshold      ...     2.500000e-12

Calculating pre-screening integrals         ... done (  0.1 sec) Dimension = 40
Organizing shell pair data                  ... done (  0.3 sec)
Shell pair information
Total number of shell pairs                 ...       820
Shell pairs after pre-screening             ...       790
Total number of primitive shell pairs       ...      2996
Primitive shell pairs kept                  ...      2247
          la=0 lb=0:    380 shell pairs
          la=1 lb=0:    224 shell pairs
          la=1 lb=1:     36 shell pairs
          la=2 lb=0:    108 shell pairs
          la=2 lb=1:     32 shell pairs
          la=2 lb=2:     10 shell pairs

Calculating one electron integrals          ... done (  0.0 sec)
Calculating RI/J V-Matrix + Cholesky decomp.... done (  0.1 sec)
Calculating Nuclear repulsion               ... done (  0.0 sec) ENN=    104.434066860232 Eh

SHARK setup successfully completed in   1.5 seconds

Maximum memory used throughout the entire GTOINT-calculation: 9.5 MB


           ************************************************************
           *        Program running with 4 parallel MPI-processes     *
           *              working on a common directory               *
           ************************************************************
-------------------------------------------------------------------------------
                                 ORCA SCF
-------------------------------------------------------------------------------

------------
SCF SETTINGS
------------
Hamiltonian:
 Density Functional     Method          .... DFT(GTOs)
 Exchange Functional    Exchange        .... PBE
   PBE kappa parameter   XKappa         ....  1.024500
   PBE mue parameter    XMuePBE         ....  0.123457
 Correlation Functional Correlation     .... PBE
   PBE beta parameter  CBetaPBE         ....  0.030000
 LDA part of GGA corr.  LDAOpt          .... PW91-LDA
 Gradients option       PostSCFGGA      .... off
 Hybrid DFT is turned on
   Fraction HF Exchange ScalHFX         ....  0.420000
   Scaling of DF-GGA-X  ScalDFX         ....  0.580000
   Scaling of DF-GGA-C  ScalDFC         ....  1.000000
   Scaling of DF-LDA-C  ScalLDAC        ....  1.000000
   Perturbative correction              ....  0.000000
   Density functional embedding theory  .... OFF
 RI-approximation to the Coulomb term is turned on
   Number of AuxJ basis functions       .... 262
   RIJ-ON(X) (HFX calculated with O(N)) .... on
   Number of AuxJ basis functions       .... 262
   RIJ-COSX (HFX calculated with COS-X)).... on


General Settings:
 Integral files         IntName         .... pbeh-3c
 Hartree-Fock type      HFTyp           .... RHF
 Total Charge           Charge          ....    0
 Multiplicity           Mult            ....    1
 Number of Electrons    NEL             ....   30
 Basis Dimension        Dim             ....   72
 Nuclear Repulsion      ENuc            ....    104.4340668602 Eh

Convergence Acceleration:
 DIIS                   CNVDIIS         .... on
   Start iteration      DIISMaxIt       ....    12
   Startup error        DIISStart       ....  0.200000
   # of expansion vecs  DIISMaxEq       ....     5
   Bias factor          DIISBfac        ....   1.050
   Max. coefficient     DIISMaxC        ....  10.000
 Trust-Rad. Augm. Hess. CNVTRAH         .... auto
   Auto Start mean grad. ratio tolernc. ....  1.125000
   Auto Start start iteration           ....    20
   Auto Start num. interpolation iter.  ....    10
   Max. Number of Micro iterations      ....    16
   Max. Number of Macro iterations      .... Maxiter - #DIIS iter
   Number of Davidson start vectors     ....     2
   Converg. threshold I  (grad. norm)   ....   1.000e-05
   Converg. threshold II (energy diff.) ....   1.000e-08
   Grad. Scal. Fac. for Micro threshold ....   0.100
   Minimum threshold for Micro iter.    ....   0.010
   NR start threshold (gradient norm)   ....   0.001
   Initial trust radius                 ....   0.400
   Minimum AH scaling param. (alpha)    ....   1.000
   Maximum AH scaling param. (alpha)    .... 1000.000
   Orbital update algorithm             .... Taylor
   White noise on init. David. guess    .... on
   Maximum white noise                  ....   0.010
   Quad. conv. algorithm                .... NR
   COSX micro iterations for RIJONX calc.... off
 SOSCF                  CNVSOSCF        .... on
   Start iteration      SOSCFMaxIt      ....   150
   Startup grad/error   SOSCFStart      ....  0.003300
 Level Shifting         CNVShift        .... on
   Level shift para.    LevelShift      ....    0.2500
   Turn off err/grad.   ShiftErr        ....    0.0010
 Zerner damping         CNVZerner       .... off
 Static damping         CNVDamp         .... on
   Fraction old density DampFac         ....    0.7000
   Max. Damping (<1)    DampMax         ....    0.9800
   Min. Damping (>=0)   DampMin         ....    0.0000
   Turn off err/grad.   DampErr         ....    0.1000
 Fernandez-Rico         CNVRico         .... off

SCF Procedure:
 Maximum # iterations   MaxIter         ....   125
 SCF integral mode      SCFMode         .... Direct
   Integral package                     .... SHARK and LIBINT hybrid scheme
 Reset frequency        DirectResetFreq ....    20
 Integral Threshold     Thresh          ....  2.500e-11 Eh
 Primitive CutOff       TCut            ....  2.500e-12 Eh

Convergence Tolerance:
 Convergence Check Mode ConvCheckMode   .... Total+1el-Energy
 Convergence forced     ConvForced      .... 0
 Energy Change          TolE            ....  1.000e-08 Eh
 1-El. energy change                    ....  1.000e-05 Eh
 Orbital Gradient       TolG            ....  1.000e-05
 Orbital Rotation angle TolX            ....  1.000e-05
 DIIS Error             TolErr          ....  5.000e-07


Diagonalization of the overlap matrix:
Smallest eigenvalue                        ... 3.181e-03
Time for diagonalization                   ...    0.001 sec
Threshold for overlap eigenvalues          ... 1.000e-08
Number of eigenvalues below threshold      ... 0
Time for construction of square roots      ...    0.224 sec
Total time needed                          ...    0.226 sec

--------------------------------
INITIAL GUESS: MINIMAL BASIS EHT
--------------------------------
The minimal basis has 26 functions
EHT matrix was diagonalized
Basis set overlap was calculated now projecting the orbitals
Using GuessMode=FMatrix for the initial guess
C*T matrix was formed
Effective Fockian was calculated
Effective Fockian was diagonalized
Initial density was built
                      ------------------
                      INITIAL GUESS DONE
                      ------------------
-------------------
DFT GRID GENERATION
-------------------

General Integration Accuracy     IntAcc      ... 4.959
Radial Grid Type                 RadialGrid  ... OptM3 with GC (2021)
Angular Grid (max. ang.)         AngularGrid ... 6 (Lebedev-590)
Angular grid pruning method      GridPruning ... 4 (adaptive)
Weight generation scheme         WeightScheme... Becke
Basis function cutoff            BFCut       ... 1.0000e-11
Integration weight cutoff        WCut        ... 1.0000e-14
Angular grids for H and He will be reduced by one unit
Partially contracted basis set               ... off
Rotationally invariant grid construction     ... off

Total number of grid points                  ...   110820
Total number of batches                      ...     1738
Average number of points per batch           ...       63
Average number of grid points per atom       ...    11082
Time for grid setup =    1.928 sec

--------------------
COSX GRID GENERATION
--------------------

GRIDX 1
-------
General Integration Accuracy     IntAcc      ... 4.020
Radial Grid Type                 RadialGrid  ... OptM3 with GC (2021)
Angular Grid (max. ang.)         AngularGrid ... 2 (Lebedev-110)
Angular grid pruning method      GridPruning ... 4 (adaptive)
Weight generation scheme         WeightScheme... Becke
Basis function cutoff            BFCut       ... 1.0000e-11
Integration weight cutoff        WCut        ... 1.0000e-14
Angular grids for H and He will be reduced by one unit
Partially contracted basis set               ... on
Rotationally invariant grid construction     ... off

Total number of grid points                  ...    12006
Total number of batches                      ...      192
Average number of points per batch           ...       62
Average number of grid points per atom       ...     1201
UseSFitting                                  ... on

GRIDX 2
-------
General Integration Accuracy     IntAcc      ... 4.338
Radial Grid Type                 RadialGrid  ... OptM3 with GC (2021)
Angular Grid (max. ang.)         AngularGrid ... 3 (Lebedev-194)
Angular grid pruning method      GridPruning ... 4 (adaptive)
Weight generation scheme         WeightScheme... Becke
Basis function cutoff            BFCut       ... 1.0000e-11
Integration weight cutoff        WCut        ... 1.0000e-14
Angular grids for H and He will be reduced by one unit
Partially contracted basis set               ... on
Rotationally invariant grid construction     ... off

Total number of grid points                  ...    26440
Total number of batches                      ...      418
Average number of points per batch           ...       63
Average number of grid points per atom       ...     2644
UseSFitting                                  ... on

GRIDX 3
-------
General Integration Accuracy     IntAcc      ... 4.871
Radial Grid Type                 RadialGrid  ... OptM3 with GC (2021)
Angular Grid (max. ang.)         AngularGrid ... 4 (Lebedev-302)
Angular grid pruning method      GridPruning ... 4 (adaptive)
Weight generation scheme         WeightScheme... Becke
Basis function cutoff            BFCut       ... 1.0000e-11
Integration weight cutoff        WCut        ... 1.0000e-14
Angular grids for H and He will be reduced by one unit
Partially contracted basis set               ... on
Rotationally invariant grid construction     ... off

Total number of grid points                  ...    52116
Total number of batches                      ...      820
Average number of points per batch           ...       63
Average number of grid points per atom       ...     5212
UseSFitting                                  ... on

Time for X-Grid setup             =    3.252 sec

--------------
SCF ITERATIONS
--------------
ITER       Energy         Delta-E        Max-DP      RMS-DP      [F,P]     Damp
               ***  Starting incremental Fock matrix formation  ***
  0   -155.2288692989   0.000000000000 0.07078366  0.00447478  0.4201832 0.7000
  1   -155.3468084862  -0.117939187341 0.05097435  0.00332515  0.2973862 0.7000
  2   -155.4320375114  -0.085229025164 0.03659675  0.00247102  0.2092466 0.7000
                               ***Turning on DIIS***
  3   -155.4930695149  -0.061032003514 0.02657807  0.00183489  0.1470823 0.7000
  4   -155.5365751025  -0.043505587563 0.02083227  0.00144837  0.1032959 0.7000
  5   -155.5674882515  -0.030913149019 0.05320832  0.00361760  0.0723696 0.0000
                      *** Initiating the SOSCF procedure ***
                           *** Shutting down DIIS ***
                      *** Re-Reading the Fockian *** 
                      *** Removing any level shift *** 
ITER      Energy       Delta-E        Grad      Rot      Max-DP    RMS-DP
  6   -155.64143802  -0.0739497725  0.002247  0.002247  0.002636  0.000135
               *** Restarting incremental Fock matrix formation ***
  7   -155.64148135  -0.0000433303  0.000764  0.000882  0.001234  0.000061
  8   -155.64148621  -0.0000048571  0.000176  0.000356  0.000631  0.000028
  9   -155.64148619   0.0000000219  0.000182  0.000191  0.000294  0.000013
 10   -155.64148656  -0.0000003730  0.000004  0.000004  0.000009  0.000001
                  ***Gradient check signals convergence***
              ***Rediagonalizing the Fockian in SOSCF/NRSCF***

               *****************************************************
               *                     SUCCESS                       *
               *           SCF CONVERGED AFTER  11 CYCLES          *
               *****************************************************

Old exchange energy                            =     -9.581300662 Eh
New exchange energy                            =     -9.581293634 Eh
Exchange energy change after final integration =      0.000007028 Eh
Total energy after final integration           =   -155.641479534 Eh
Final COS-X integration done in                =     1.604 sec

----------------
TOTAL SCF ENERGY
----------------

Total Energy       :         -155.64147953 Eh           -4235.21997 eV

Components:
Nuclear Repulsion  :          104.43406686 Eh            2841.79543 eV
Electronic Energy  :         -260.07554639 Eh           -7077.01541 eV
One Electron Energy:         -414.62943537 Eh          -11282.64053 eV
Two Electron Energy:          154.55388898 Eh            4205.62513 eV
Max COSX asymmetry :            0.00000042 Eh               0.00001 eV

Virial components:
Potential Energy   :         -310.08290287 Eh           -8437.78476 eV
Kinetic Energy     :          154.44142333 Eh            4202.56478 eV
Virial Ratio       :            2.00777030


DFT components:
N(Alpha)           :       14.999999597609 electrons
N(Beta)            :       14.999999597609 electrons
N(Total)           :       29.999999195218 electrons
E(X)               :      -12.707784678123 Eh       
E(C)               :       -1.259553997694 Eh       
E(XC)              :      -13.967338675817 Eh       
DFET-embed. en.    :        0.000000000000 Eh       

---------------
SCF CONVERGENCE
---------------

  Last Energy change         ...    1.9404e-10  Tolerance :   1.0000e-08
  Last MAX-Density change    ...    8.8818e-16  Tolerance :   1.0000e-07
  Last RMS-Density change    ...    4.3608e-17  Tolerance :   5.0000e-09
  Last Orbital Gradient      ...    2.0865e-06  Tolerance :   1.0000e-05
  Last Orbital Rotation      ...    1.7044e-06  Tolerance :   1.0000e-05

             **** THE GBW FILE WAS UPDATED (pbeh-3c.gbw) ****
             **** DENSITY pbeh-3c.scfp WAS UPDATED ****
             **** ENERGY FILE WAS UPDATED (pbeh-3c.en.tmp) ****
             **** THE GBW FILE WAS UPDATED (pbeh-3c.gbw) ****
             **** DENSITY pbeh-3c.scfp WAS UPDATED ****
----------------
ORBITAL ENERGIES
----------------

  NO   OCC          E(Eh)            E(eV) 
   0   2.0000     -10.449127      -284.3352 
   1   2.0000     -10.448780      -284.3258 
   2   2.0000     -10.439213      -284.0654 
   3   2.0000     -10.439197      -284.0650 
   4   2.0000      -0.904474       -24.6120 
   5   2.0000      -0.825207       -22.4550 
   6   2.0000      -0.682277       -18.5657 
   7   2.0000      -0.624877       -17.0038 
   8   2.0000      -0.532855       -14.4997 
   9   2.0000      -0.527830       -14.3630 
  10   2.0000      -0.453396       -12.3375 
  11   2.0000      -0.443647       -12.0722 
  12   2.0000      -0.399257       -10.8643 
  13   2.0000      -0.377467       -10.2714 
  14   2.0000      -0.275090        -7.4856 
  15   0.0000      -0.001758        -0.0478 
  16   0.0000       0.109799         2.9878 
  17   0.0000       0.170457         4.6384 
  18   0.0000       0.176282         4.7969 
  19   0.0000       0.176836         4.8120 
  20   0.0000       0.227007         6.1772 
  21   0.0000       0.239036         6.5045 
  22   0.0000       0.275882         7.5071 
  23   0.0000       0.331839         9.0298 
  24   0.0000       0.338432         9.2092 
  25   0.0000       0.414314        11.2741 
  26   0.0000       0.497159        13.5284 
  27   0.0000       0.500882        13.6297 
  28   0.0000       0.519236        14.1291 
  29   0.0000       0.573732        15.6120 
  30   0.0000       0.630474        17.1561 
  31   0.0000       0.647660        17.6237 
  32   0.0000       0.658007        17.9053 
  33   0.0000       0.668285        18.1850 
  34   0.0000       0.702203        19.1079 
  35   0.0000       0.751281        20.4434 
  36   0.0000       0.910271        24.7697 
  37   0.0000       0.926986        25.2246 
  38   0.0000       0.961205        26.1557 
  39   0.0000       0.988731        26.9047 
  40   0.0000       1.019316        27.7370 
  41   0.0000       1.045589        28.4519 
  42   0.0000       1.074512        29.2390 
  43   0.0000       1.083000        29.4699 
  44   0.0000       1.131195        30.7814 
  45   0.0000       1.153287        31.3825 
  46   0.0000       1.232927        33.5497 
  47   0.0000       1.300489        35.3881 
  48   0.0000       1.394909        37.9574 
  49   0.0000       1.482129        40.3308 
  50   0.0000       1.594253        43.3818 
  51   0.0000       1.711058        46.5603 
  52   0.0000       1.827342        49.7245 
  53   0.0000       1.879129        51.1337 
  54   0.0000       1.946311        52.9618 
  55   0.0000       2.001777        54.4711 
  56   0.0000       2.140439        58.2443 
  57   0.0000       2.158858        58.7455 
  58   0.0000       2.192267        59.6546 
  59   0.0000       2.237699        60.8909 
  60   0.0000       2.396522        65.2127 
  61   0.0000       2.480966        67.5105 
  62   0.0000       2.480978        67.5108 
  63   0.0000       2.557728        69.5993 
  64   0.0000       2.659626        72.3721 
  65   0.0000       2.779828        75.6430 
  66   0.0000       2.989973        81.3613 
  67   0.0000       3.083696        83.9116 
  68   0.0000      13.310516       362.1975 
  69   0.0000      13.587088       369.7235 
  70   0.0000      14.039645       382.0382 
  71   0.0000      14.239657       387.4808 

                    ********************************
                    * MULLIKEN POPULATION ANALYSIS *
                    ********************************

-----------------------
MULLIKEN ATOMIC CHARGES
-----------------------
   0 C :   -0.497123
   1 C :   -0.157042
   2 C :   -0.157042
   3 C :   -0.497123
   4 H :    0.215525
   5 H :    0.221862
   6 H :    0.216778
   7 H :    0.215524
   8 H :    0.221862
   9 H :    0.216778
Sum of atomic charges:    0.0000000

--------------------------------
MULLIKEN REDUCED ORBITAL CHARGES
--------------------------------
  0 C s       :     3.333724  s :     3.333724
      pz      :     1.013420  p :     3.130649
      px      :     1.020761
      py      :     1.096468
      dz2     :     0.004144  d :     0.032749
      dxz     :     0.003979
      dyz     :     0.001567
      dx2y2   :     0.013430
      dxy     :     0.009629
  1 C s       :     3.213544  s :     3.213544
      pz      :     0.970653  p :     2.901822
      px      :     1.005059
      py      :     0.926111
      dz2     :     0.003728  d :     0.041675
      dxz     :     0.004886
      dyz     :     0.005495
      dx2y2   :     0.013877
      dxy     :     0.013689
  2 C s       :     3.213544  s :     3.213544
      pz      :     0.970653  p :     2.901822
      px      :     1.005059
      py      :     0.926111
      dz2     :     0.003728  d :     0.041675
      dxz     :     0.004886
      dyz     :     0.005495
      dx2y2   :     0.013877
      dxy     :     0.013689
  3 C s       :     3.333724  s :     3.333724
      pz      :     1.013420  p :     3.130649
      px      :     1.020761
      py      :     1.096468
      dz2     :     0.004144  d :     0.032749
      dxz     :     0.003979
      dyz     :     0.001567
      dx2y2   :     0.013430
      dxy     :     0.009629
  4 H s       :     0.784475  s :     0.784475
  5 H s       :     0.778138  s :     0.778138
  6 H s       :     0.783222  s :     0.783222
  7 H s       :     0.784476  s :     0.784476
  8 H s       :     0.778138  s :     0.778138
  9 H s       :     0.783222  s :     0.783222


                     *******************************
                     * LOEWDIN POPULATION ANALYSIS *
                     *******************************

----------------------
LOEWDIN ATOMIC CHARGES
----------------------
   0 C :   -0.258457
   1 C :   -0.140102
   2 C :   -0.140102
   3 C :   -0.258457
   4 H :    0.132791
   5 H :    0.134806
   6 H :    0.130963
   7 H :    0.132791
   8 H :    0.134806
   9 H :    0.130963

-------------------------------
LOEWDIN REDUCED ORBITAL CHARGES
-------------------------------
  0 C s       :     2.961236  s :     2.961236
      pz      :     1.011829  p :     3.230567
      px      :     1.115641
      py      :     1.103098
      dz2     :     0.005694  d :     0.066654
      dxz     :     0.006793
      dyz     :     0.002593
      dx2y2   :     0.029177
      dxy     :     0.022397
  1 C s       :     2.901117  s :     2.901117
      pz      :     0.958962  p :     3.145222
      px      :     1.114443
      py      :     1.071818
      dz2     :     0.006301  d :     0.093763
      dxz     :     0.008451
      dyz     :     0.011373
      dx2y2   :     0.034681
      dxy     :     0.032958
  2 C s       :     2.901117  s :     2.901117
      pz      :     0.958962  p :     3.145222
      px      :     1.114443
      py      :     1.071818
      dz2     :     0.006301  d :     0.093763
      dxz     :     0.008451
      dyz     :     0.011373
      dx2y2   :     0.034681
      dxy     :     0.032958
  3 C s       :     2.961236  s :     2.961236
      pz      :     1.011829  p :     3.230567
      px      :     1.115641
      py      :     1.103098
      dz2     :     0.005694  d :     0.066654
      dxz     :     0.006793
      dyz     :     0.002593
      dx2y2   :     0.029177
      dxy     :     0.022397
  4 H s       :     0.867209  s :     0.867209
  5 H s       :     0.865194  s :     0.865194
  6 H s       :     0.869037  s :     0.869037
  7 H s       :     0.867209  s :     0.867209
  8 H s       :     0.865194  s :     0.865194
  9 H s       :     0.869037  s :     0.869037


                      *****************************
                      * MAYER POPULATION ANALYSIS *
                      *****************************

  NA   - Mulliken gross atomic population
  ZA   - Total nuclear charge
  QA   - Mulliken gross atomic charge
  VA   - Mayer's total valence
  BVA  - Mayer's bonded valence
  FA   - Mayer's free valence

  ATOM       NA         ZA         QA         VA         BVA        FA
  0 C      6.4971     6.0000    -0.4971     3.7988     3.7988     0.0000
  1 C      6.1570     6.0000    -0.1570     3.8179     3.8179     0.0000
  2 C      6.1570     6.0000    -0.1570     3.8179     3.8179     0.0000
  3 C      6.4971     6.0000    -0.4971     3.7988     3.7988     0.0000
  4 H      0.7845     1.0000     0.2155     0.9146     0.9146     0.0000
  5 H      0.7781     1.0000     0.2219     0.9214     0.9214     0.0000
  6 H      0.7832     1.0000     0.2168     0.9206     0.9206     0.0000
  7 H      0.7845     1.0000     0.2155     0.9146     0.9146     0.0000
  8 H      0.7781     1.0000     0.2219     0.9214     0.9214     0.0000
  9 H      0.7832     1.0000     0.2168     0.9206     0.9206     0.0000

  Mayer bond orders larger than 0.100000
B(  0-C ,  1-C ) :   1.8428 B(  0-C ,  3-C ) :   0.1176 B(  0-C ,  5-H ) :   0.9285 
B(  0-C ,  6-H ) :   0.9297 B(  1-C ,  2-C ) :   1.1000 B(  1-C ,  4-H ) :   0.9200 
B(  2-C ,  3-C ) :   1.8428 B(  2-C ,  7-H ) :   0.9200 B(  3-C ,  8-H ) :   0.9285 
B(  3-C ,  9-H ) :   0.9297 

-------
TIMINGS
-------

Total SCF time: 0 days 0 hours 0 min 58 sec 

Total time                  ....      58.763 sec
Sum of individual times     ....      52.258 sec  ( 88.9%)

Fock matrix formation       ....      41.624 sec  ( 70.8%)
  Split-RI-J                ....       4.916 sec  ( 11.8% of F)
  Chain of spheres X        ....      11.053 sec  ( 26.6% of F)
  XC integration            ....      12.612 sec  ( 30.3% of F)
    Basis function eval.    ....       1.594 sec  ( 12.6% of XC)
    Density eval.           ....       0.942 sec  (  7.5% of XC)
    XC-Functional eval.     ....       1.079 sec  (  8.6% of XC)
    XC-Potential eval.      ....       0.523 sec  (  4.1% of XC)
Diagonalization             ....       0.481 sec  (  0.8%)
Density matrix formation    ....       0.191 sec  (  0.3%)
Population analysis         ....       0.833 sec  (  1.4%)
Initial guess               ....       0.159 sec  (  0.3%)
Orbital Transformation      ....       0.000 sec  (  0.0%)
Orbital Orthonormalization  ....       0.000 sec  (  0.0%)
DIIS solution               ....       2.400 sec  (  4.1%)
SOSCF solution              ....       1.392 sec  (  2.4%)
Grid generation             ....       5.179 sec  (  8.8%)

Maximum memory used throughout the entire SCF-calculation: 47.9 MB


-------------------------------------------------------------------------------
                          DFT DISPERSION CORRECTION                            
                                                                               
                              DFTD3 V3.1  Rev 1                                
                          USING Becke-Johnson damping                          
-------------------------------------------------------------------------------
The PBEh-3c composite method is recognized
Using three-body term ABC
Active option DFTDOPT                   ...         4   

molecular C6(AA) [au] = 946.301187 


            DFT-D V3
 parameters
 s6 scaling factor         :     1.0000 
 a1 scaling factor         :     0.4860 
 s8 scaling factor         :     0.0000 
 a2 scaling factor         :     4.5000 
 Damping factor alpha9(ATM):    16.0000 
 ad hoc parameters k1-k3   :    16.0000     1.3333    -4.0000 

 Edisp/kcal,au: -2.218148913406  -0.003534844920 
 E6   /kcal   :  -2.218060712 
 E8   /kcal   :  -0.000000000 
 E6(ABC)      :  -0.000088202 
 % E8         :   0.000000000 
 % E6(ABC)    :   0.003976364 

-------------------------   ----------------
Dispersion correction           -0.003534845
-------------------------   ----------------

------------------   -----------------
gCP correction             0.010867959
------------------   -----------------

-------------------------   --------------------
FINAL SINGLE POINT ENERGY      -155.634146420210
-------------------------   --------------------


                            ***************************************
                            *     ORCA property calculations      *
                            ***************************************

                                    ---------------------
                                    Active property flags
                                    ---------------------
   (+) Dipole Moment


------------------------------------------------------------------------------
                       ORCA ELECTRIC PROPERTIES CALCULATION
------------------------------------------------------------------------------

Dipole Moment Calculation                       ... on
Quadrupole Moment Calculation                   ... off
Polarizability Calculation                      ... off
GBWName                                         ... pbeh-3c.gbw
Electron density                                ... pbeh-3c.scfp
The origin for moment calculation is the CENTER OF MASS  = ( 0.000000, -0.000000  0.000000)

-------------
DIPOLE MOMENT
-------------
                                X             Y             Z
Electronic contribution:     -0.00000       0.00000      -0.00000
Nuclear contribution   :      0.00000       0.00000       0.00000
                        -----------------------------------------
Total Dipole Moment    :     -0.00000       0.00000      -0.00000
                        -----------------------------------------
Magnitude (a.u.)       :      0.00000
Magnitude (Debye)      :      0.00000



--------------------
Rotational spectrum 
--------------------
 
Rotational constants in cm-1:     1.425685     0.149819     0.135572 
Rotational constants in MHz : 42740.969260  4491.448195  4064.345201 

 Dipole components along the rotational axes: 
x,y,z [a.u.] :    -0.000000     0.000000    -0.000000 
x,y,z [Debye]:    -0.000000     0.000000    -0.000000 

 

Timings for individual modules:

Sum of individual times         ...       61.717 sec (=   1.029 min)
GTO integral calculation        ...        2.180 sec (=   0.036 min)   3.5 %
SCF iterations                  ...       59.537 sec (=   0.992 min)  96.5 %
                             ****ORCA TERMINATED NORMALLY****
TOTAL RUN TIME: 0 days 0 hours 1 minutes 4 seconds 690 msec
