
                                 *****************
                                 * O   R   C   A *
                                 *****************

                                            #,                                       
                                            ###                                      
                                            ####                                     
                                            #####                                    
                                            ######                                   
                                           ########,                                 
                                     ,,################,,,,,                         
                               ,,#################################,,                 
                          ,,##########################################,,             
                       ,#########################################, ''#####,          
                    ,#############################################,,   '####,        
                  ,##################################################,,,,####,       
                ,###########''''           ''''###############################       
              ,#####''   ,,,,##########,,,,          '''####'''          '####       
            ,##' ,,,,###########################,,,                        '##       
           ' ,,###''''                  '''############,,,                           
         ,,##''                                '''############,,,,        ,,,,,,###''
      ,#''                                            '''#######################'''  
     '                                                          ''''####''''         
             ,#######,   #######,   ,#######,      ##                                
            ,#'     '#,  ##    ##  ,#'     '#,    #''#        ######   ,####,        
            ##       ##  ##   ,#'  ##            #'  '#       #        #'  '#        
            ##       ##  #######   ##           ,######,      #####,   #    #        
            '#,     ,#'  ##    ##  '#,     ,#' ,#      #,         ##   #,  ,#        
             '#######'   ##     ##  '#######'  #'      '#     #####' # '####'        



                  #######################################################
                  #                        -***-                        #
                  #          Department of theory and spectroscopy      #
                  #    Directorship and core code : Frank Neese         #
                  #        Max Planck Institute fuer Kohlenforschung    #
                  #                Kaiser Wilhelm Platz 1               #
                  #                 D-45470 Muelheim/Ruhr               #
                  #                      Germany                        #
                  #                                                     #
                  #                  All rights reserved                #
                  #                        -***-                        #
                  #######################################################


                         Program Version 5.0.3 -  RELEASE  -


 With contributions from (in alphabetic order):
   Daniel Aravena         : Magnetic Suceptibility
   Michael Atanasov       : Ab Initio Ligand Field Theory (pilot matlab implementation)
   Alexander A. Auer      : GIAO ZORA, VPT2 properties, NMR spectrum
   Ute Becker             : Parallelization
   Giovanni Bistoni       : ED, misc. LED, open-shell LED, HFLD
   Martin Brehm           : Molecular dynamics
   Dmytro Bykov           : SCF Hessian
   Vijay G. Chilkuri      : MRCI spin determinant printing, contributions to CSF-ICE
   Dipayan Datta          : RHF DLPNO-CCSD density
   Achintya Kumar Dutta   : EOM-CC, STEOM-CC
   Dmitry Ganyushin       : Spin-Orbit,Spin-Spin,Magnetic field MRCI
   Miquel Garcia          : C-PCM and meta-GGA Hessian, CC/C-PCM, Gaussian charge scheme
   Yang Guo               : DLPNO-NEVPT2, F12-NEVPT2, CIM, IAO-localization
   Andreas Hansen         : Spin unrestricted coupled pair/coupled cluster methods
   Benjamin Helmich-Paris : MC-RPA, TRAH-SCF, COSX integrals
   Lee Huntington         : MR-EOM, pCC
   Robert Izsak           : Overlap fitted RIJCOSX, COSX-SCS-MP3, EOM
   Marcus Kettner         : VPT2
   Christian Kollmar      : KDIIS, OOCD, Brueckner-CCSD(T), CCSD density, CASPT2, CASPT2-K
   Simone Kossmann        : Meta GGA functionals, TD-DFT gradient, OOMP2, MP2 Hessian
   Martin Krupicka        : Initial AUTO-CI
   Lucas Lang             : DCDCAS
   Marvin Lechner         : AUTO-CI (C++ implementation), FIC-MRCC
   Dagmar Lenk            : GEPOL surface, SMD
   Dimitrios Liakos       : Extrapolation schemes; Compound Job, initial MDCI parallelization
   Dimitrios Manganas     : Further ROCIS development; embedding schemes
   Dimitrios Pantazis     : SARC Basis sets
   Anastasios Papadopoulos: AUTO-CI, single reference methods and gradients
   Taras Petrenko         : DFT Hessian,TD-DFT gradient, ASA, ECA, R-Raman, ABS, FL, XAS/XES, NRVS
   Peter Pinski           : DLPNO-MP2, DLPNO-MP2 Gradient
   Christoph Reimann      : Effective Core Potentials
   Marius Retegan         : Local ZFS, SOC
   Christoph Riplinger    : Optimizer, TS searches, QM/MM, DLPNO-CCSD(T), (RO)-DLPNO pert. Triples
   Tobias Risthaus        : Range-separated hybrids, TD-DFT gradient, RPA, STAB
   Michael Roemelt        : Original ROCIS implementation
   Masaaki Saitow         : Open-shell DLPNO-CCSD energy and density
   Barbara Sandhoefer     : DKH picture change effects
   Avijit Sen             : IP-ROCIS
   Kantharuban Sivalingam : CASSCF convergence, NEVPT2, FIC-MRCI
   Bernardo de Souza      : ESD, SOC TD-DFT
   Georgi Stoychev        : AutoAux, RI-MP2 NMR, DLPNO-MP2 response
   Willem Van den Heuvel  : Paramagnetic NMR
   Boris Wezisla          : Elementary symmetry handling
   Frank Wennmohs         : Technical directorship


 We gratefully acknowledge several colleagues who have allowed us to
 interface, adapt or use parts of their codes:
   Stefan Grimme, W. Hujo, H. Kruse, P. Pracht,  : VdW corrections, initial TS optimization,
                  C. Bannwarth, S. Ehlert          DFT functionals, gCP, sTDA/sTD-DF
   Ed Valeev, F. Pavosevic, A. Kumar             : LibInt (2-el integral package), F12 methods
   Garnet Chan, S. Sharma, J. Yang, R. Olivares  : DMRG
   Ulf Ekstrom                                   : XCFun DFT Library
   Mihaly Kallay                                 : mrcc  (arbitrary order and MRCC methods)
   Jiri Pittner, Ondrej Demel                    : Mk-CCSD
   Frank Weinhold                                : gennbo (NPA and NBO analysis)
   Christopher J. Cramer and Donald G. Truhlar   : smd solvation model
   Lars Goerigk                                  : TD-DFT with DH, B97 family of functionals
   V. Asgeirsson, H. Jonsson                     : NEB implementation
   FAccTs GmbH                                   : IRC, NEB, NEB-TS, DLPNO-Multilevel, CI-OPT
                                                   MM, QMMM, 2- and 3-layer-ONIOM, Crystal-QMMM,
                                                   LR-CPCM, SF, NACMEs, symmetry and pop. for TD-DFT,
                                                   nearIR, NL-DFT gradient (VV10), updates on ESD,
                                                   ML-optimized integration grids
   S Lehtola, MJT Oliveira, MAL Marques          : LibXC Library
   Liviu Ungur et al                             : ANISO software


 Your calculation uses the libint2 library for the computation of 2-el integrals
 For citations please refer to: http://libint.valeyev.net

 Your ORCA version has been built with support for libXC version: 5.1.0
 For citations please refer to: https://tddft.org/programs/libxc/

 This ORCA versions uses:
   CBLAS   interface :  Fast vector & matrix operations
   LAPACKE interface :  Fast linear algebra routines
   SCALAPACK package :  Parallel linear algebra routines
   Shared memory     :  Shared parallel matrices
   BLAS/LAPACK       :  OpenBLAS 0.3.15  USE64BITINT DYNAMIC_ARCH NO_AFFINITY Haswell SINGLE_THREADED
        Core in use  :  Haswell
   Copyright (c) 2011-2014, The OpenBLAS Project




***************************************
The coordinates will be read from file: COCl2.xyz
***************************************


Your calculation utilizes the geometrical counterpoise correction gCP
Please cite in your paper:
H.Kruse, S. Grimme J.Chem.Phys., 136, (2012), 154101 
   

Your calculation utilizes the atom-pairwise dispersion correction
with the Becke-Johnson damping scheme (D3BJ)
Cite in your paper:
S.Grimme, S.Ehrlich, L.Goerigk, J Comput Chem, (2011), 32, 1456–1465 
S.Grimme, J.Antony, S.Ehrlich and H.Krieg, J.Chem.Phys., 132, (2010), 154104 
   

Your calculation employs the composite approach PBEh-3c.
Please cite in your paper:
S. Grimme, J. G. Brandenburg, C. Bannwarth, A. Hansen J.Chem.Phys., 143, (2015), 054107 
   

================================================================================

----- Orbital basis set information -----
Your calculation utilizes the basis: def2-mSVP

----- AuxJ basis set information -----
Your calculation utilizes the auxiliary basis: def2/J
   F. Weigend, Phys. Chem. Chem. Phys. 8, 1057 (2006).

================================================================================
                                        WARNINGS
                       Please study these warnings very carefully!
================================================================================


INFO   : the flag for use of the SHARK integral package has been found!

================================================================================
                                       INPUT FILE
================================================================================
NAME = pbeh-3c.inp
|  1> ! PBEh-3c def2/J TightSCF DefGrid3
|  2> 
|  3> %maxcore 60000
|  4> 
|  5> %pal
|  6> nprocs 4
|  7> end
|  8> 
|  9> *xyzfile 0 1 COCl2.xyz
| 10> 
| 11>                          ****END OF INPUT****
================================================================================

                       ****************************
                       * Single Point Calculation *
                       ****************************

---------------------------------
CARTESIAN COORDINATES (ANGSTROEM)
---------------------------------
  C      0.099696    0.172781    0.000000
  Cl     0.864460   -1.413928    0.000000
  Cl    -1.656729    0.042672    0.000000
  O      0.692573    1.198475    0.000000

----------------------------
CARTESIAN COORDINATES (A.U.)
----------------------------
  NO LB      ZA    FRAG     MASS         X           Y           Z
   0 C     6.0000    0    12.011    0.188398    0.326509    0.000000
   1 Cl   17.0000    0    35.453    1.633593   -2.671937    0.000000
   2 Cl   17.0000    0    35.453   -3.130763    0.080638    0.000000
   3 O     8.0000    0    15.999    1.308773    2.264790    0.000000

--------------------------------
INTERNAL COORDINATES (ANGSTROEM)
--------------------------------
 C      0   0   0     0.000000000000     0.00000000     0.00000000
 Cl     1   0   0     1.761394077882     0.00000000     0.00000000
 Cl     1   2   0     1.761236880735   111.49669950     0.00000000
 O      1   2   3     1.184715648659   124.23781558   180.00000085

---------------------------
INTERNAL COORDINATES (A.U.)
---------------------------
 C      0   0   0     0.000000000000     0.00000000     0.00000000
 Cl     1   0   0     3.328552421108     0.00000000     0.00000000
 Cl     1   2   0     3.328255361550   111.49669950     0.00000000
 O      1   2   3     2.238788122537   124.23781558   180.00000085

---------------------
BASIS SET INFORMATION
---------------------
There are 3 groups of distinct atoms

 Group   1 Type C   : 8s4p1d contracted to 4s2p1d pattern {5111/31/1}
 Group   2 Type Cl  : 10s7p1d contracted to 4s3p1d pattern {5311/511/1}
 Group   3 Type O   : 8s4p1d contracted to 4s2p1d pattern {5111/31/1}

Atom   0C    basis set group =>   1
Atom   1Cl   basis set group =>   2
Atom   2Cl   basis set group =>   2
Atom   3O    basis set group =>   3
---------------------------------
AUXILIARY/J BASIS SET INFORMATION
---------------------------------
There are 3 groups of distinct atoms

 Group   1 Type C   : 12s5p4d2f1g contracted to 6s4p3d1f1g pattern {711111/2111/211/2/1}
 Group   2 Type Cl  : 14s5p5d2f1g contracted to 8s4p3d1f1g pattern {71111111/2111/311/2/1}
 Group   3 Type O   : 12s5p4d2f1g contracted to 6s4p3d1f1g pattern {711111/2111/211/2/1}

Atom   0C    basis set group =>   1
Atom   1Cl   basis set group =>   2
Atom   2Cl   basis set group =>   2
Atom   3O    basis set group =>   3


           ************************************************************
           *        Program running with 4 parallel MPI-processes     *
           *              working on a common directory               *
           ************************************************************
------------------------------------------------------------------------------
                           ORCA GTO INTEGRAL CALCULATION
                           -- RI-GTO INTEGRALS CHOSEN --
------------------------------------------------------------------------------
------------------------------------------------------------------------------
                   ___                                                        
                  /   \      - P O W E R E D   B Y -                         
                 /     \                                                     
                 |  |  |   _    _      __       _____    __    __             
                 |  |  |  | |  | |    /  \     |  _  \  |  |  /  |          
                  \  \/   | |  | |   /    \    | | | |  |  | /  /          
                 / \  \   | |__| |  /  /\  \   | |_| |  |  |/  /          
                |  |  |   |  __  | /  /__\  \  |    /   |      \           
                |  |  |   | |  | | |   __   |  |    \   |  |\   \          
                \     /   | |  | | |  |  |  |  | |\  \  |  | \   \       
                 \___/    |_|  |_| |__|  |__|  |_| \__\ |__|  \__/        
                                                                              
                      - O R C A' S   B I G   F R I E N D -                    
                                      &                                       
                       - I N T E G R A L  F E E D E R -                       
                                                                              
 v1 FN, 2020, v2 2021                                                         
------------------------------------------------------------------------------


Reading SHARK input file pbeh-3c.SHARKINP.tmp ... ok
----------------------
SHARK INTEGRAL PACKAGE
----------------------

Number of atoms                             ...      4
Number of basis functions                   ...     66
Number of shells                            ...     30
Maximum angular momentum                    ...      2
Integral batch strategy                     ... SHARK/LIBINT Hybrid
RI-J (if used) integral strategy            ... SPLIT-RIJ (Revised 2003 algorithm where possible)
Printlevel                                  ...      1
Contraction scheme used                     ... SEGMENTED contraction
Coulomb Range Separation                    ... NOT USED
Exchange Range Separation                   ... NOT USED
Finite Nucleus Model                        ... NOT USED
Auxiliary Coulomb fitting basis             ... AVAILABLE
   # of basis functions in Aux-J            ...    200
   # of shells in Aux-J                     ...     64
   Maximum angular momentum in Aux-J        ...      4
Auxiliary J/K fitting basis                 ... NOT available
Auxiliary Correlation fitting basis         ... NOT available
Auxiliary 'external' fitting basis          ... NOT available
Integral threshold                          ...     2.500000e-11
Primitive cut-off                           ...     2.500000e-12
Primitive pair pre-selection threshold      ...     2.500000e-12

Calculating pre-screening integrals         ... done (  0.1 sec) Dimension = 30
Organizing shell pair data                  ... done (  0.1 sec)
Shell pair information
Total number of shell pairs                 ...       465
Shell pairs after pre-screening             ...       437
Total number of primitive shell pairs       ...      2025
Primitive shell pairs kept                  ...      1443
          la=0 lb=0:    117 shell pairs
          la=1 lb=0:    152 shell pairs
          la=1 lb=1:     54 shell pairs
          la=2 lb=0:     64 shell pairs
          la=2 lb=1:     40 shell pairs
          la=2 lb=2:     10 shell pairs

Calculating one electron integrals          ... done (  0.0 sec)
Calculating RI/J V-Matrix + Cholesky decomp.... done (  0.3 sec)
Calculating Nuclear repulsion               ... done (  0.1 sec) ENN=    190.230463719976 Eh

SHARK setup successfully completed in   1.9 seconds

Maximum memory used throughout the entire GTOINT-calculation: 9.2 MB


           ************************************************************
           *        Program running with 4 parallel MPI-processes     *
           *              working on a common directory               *
           ************************************************************
-------------------------------------------------------------------------------
                                 ORCA SCF
-------------------------------------------------------------------------------

------------
SCF SETTINGS
------------
Hamiltonian:
 Density Functional     Method          .... DFT(GTOs)
 Exchange Functional    Exchange        .... PBE
   PBE kappa parameter   XKappa         ....  1.024500
   PBE mue parameter    XMuePBE         ....  0.123457
 Correlation Functional Correlation     .... PBE
   PBE beta parameter  CBetaPBE         ....  0.030000
 LDA part of GGA corr.  LDAOpt          .... PW91-LDA
 Gradients option       PostSCFGGA      .... off
 Hybrid DFT is turned on
   Fraction HF Exchange ScalHFX         ....  0.420000
   Scaling of DF-GGA-X  ScalDFX         ....  0.580000
   Scaling of DF-GGA-C  ScalDFC         ....  1.000000
   Scaling of DF-LDA-C  ScalLDAC        ....  1.000000
   Perturbative correction              ....  0.000000
   Density functional embedding theory  .... OFF
 RI-approximation to the Coulomb term is turned on
   Number of AuxJ basis functions       .... 200
   RIJ-ON(X) (HFX calculated with O(N)) .... on
   Number of AuxJ basis functions       .... 200
   RIJ-COSX (HFX calculated with COS-X)).... on


General Settings:
 Integral files         IntName         .... pbeh-3c
 Hartree-Fock type      HFTyp           .... RHF
 Total Charge           Charge          ....    0
 Multiplicity           Mult            ....    1
 Number of Electrons    NEL             ....   48
 Basis Dimension        Dim             ....   66
 Nuclear Repulsion      ENuc            ....    190.2304637200 Eh

Convergence Acceleration:
 DIIS                   CNVDIIS         .... on
   Start iteration      DIISMaxIt       ....    12
   Startup error        DIISStart       ....  0.200000
   # of expansion vecs  DIISMaxEq       ....     5
   Bias factor          DIISBfac        ....   1.050
   Max. coefficient     DIISMaxC        ....  10.000
 Trust-Rad. Augm. Hess. CNVTRAH         .... auto
   Auto Start mean grad. ratio tolernc. ....  1.125000
   Auto Start start iteration           ....    20
   Auto Start num. interpolation iter.  ....    10
   Max. Number of Micro iterations      ....    16
   Max. Number of Macro iterations      .... Maxiter - #DIIS iter
   Number of Davidson start vectors     ....     2
   Converg. threshold I  (grad. norm)   ....   1.000e-05
   Converg. threshold II (energy diff.) ....   1.000e-08
   Grad. Scal. Fac. for Micro threshold ....   0.100
   Minimum threshold for Micro iter.    ....   0.010
   NR start threshold (gradient norm)   ....   0.001
   Initial trust radius                 ....   0.400
   Minimum AH scaling param. (alpha)    ....   1.000
   Maximum AH scaling param. (alpha)    .... 1000.000
   Orbital update algorithm             .... Taylor
   White noise on init. David. guess    .... on
   Maximum white noise                  ....   0.010
   Quad. conv. algorithm                .... NR
   COSX micro iterations for RIJONX calc.... off
 SOSCF                  CNVSOSCF        .... on
   Start iteration      SOSCFMaxIt      ....   150
   Startup grad/error   SOSCFStart      ....  0.003300
 Level Shifting         CNVShift        .... on
   Level shift para.    LevelShift      ....    0.2500
   Turn off err/grad.   ShiftErr        ....    0.0010
 Zerner damping         CNVZerner       .... off
 Static damping         CNVDamp         .... on
   Fraction old density DampFac         ....    0.7000
   Max. Damping (<1)    DampMax         ....    0.9800
   Min. Damping (>=0)   DampMin         ....    0.0000
   Turn off err/grad.   DampErr         ....    0.1000
 Fernandez-Rico         CNVRico         .... off

SCF Procedure:
 Maximum # iterations   MaxIter         ....   125
 SCF integral mode      SCFMode         .... Direct
   Integral package                     .... SHARK and LIBINT hybrid scheme
 Reset frequency        DirectResetFreq ....    20
 Integral Threshold     Thresh          ....  2.500e-11 Eh
 Primitive CutOff       TCut            ....  2.500e-12 Eh

Convergence Tolerance:
 Convergence Check Mode ConvCheckMode   .... Total+1el-Energy
 Convergence forced     ConvForced      .... 0
 Energy Change          TolE            ....  1.000e-08 Eh
 1-El. energy change                    ....  1.000e-05 Eh
 Orbital Gradient       TolG            ....  1.000e-05
 Orbital Rotation angle TolX            ....  1.000e-05
 DIIS Error             TolErr          ....  5.000e-07


Diagonalization of the overlap matrix:
Smallest eigenvalue                        ... 1.570e-02
Time for diagonalization                   ...    0.068 sec
Threshold for overlap eigenvalues          ... 1.000e-08
Number of eigenvalues below threshold      ... 0
Time for construction of square roots      ...    0.081 sec
Total time needed                          ...    0.525 sec

--------------------------------
INITIAL GUESS: MINIMAL BASIS EHT
--------------------------------
The minimal basis has 28 functions
EHT matrix was diagonalized
Basis set overlap was calculated now projecting the orbitals
Using GuessMode=FMatrix for the initial guess
C*T matrix was formed
Effective Fockian was calculated
Effective Fockian was diagonalized
Initial density was built
                      ------------------
                      INITIAL GUESS DONE
                      ------------------
-------------------
DFT GRID GENERATION
-------------------

General Integration Accuracy     IntAcc      ... 4.959
Radial Grid Type                 RadialGrid  ... OptM3 with GC (2021)
Angular Grid (max. ang.)         AngularGrid ... 6 (Lebedev-590)
Angular grid pruning method      GridPruning ... 4 (adaptive)
Weight generation scheme         WeightScheme... Becke
Basis function cutoff            BFCut       ... 1.0000e-11
Integration weight cutoff        WCut        ... 1.0000e-14
Angular grids for H and He will be reduced by one unit
Partially contracted basis set               ... off
Rotationally invariant grid construction     ... off

Total number of grid points                  ...    61550
Total number of batches                      ...      964
Average number of points per batch           ...       63
Average number of grid points per atom       ...    15388
Time for grid setup =    1.891 sec

--------------------
COSX GRID GENERATION
--------------------

GRIDX 1
-------
General Integration Accuracy     IntAcc      ... 4.020
Radial Grid Type                 RadialGrid  ... OptM3 with GC (2021)
Angular Grid (max. ang.)         AngularGrid ... 2 (Lebedev-110)
Angular grid pruning method      GridPruning ... 4 (adaptive)
Weight generation scheme         WeightScheme... Becke
Basis function cutoff            BFCut       ... 1.0000e-11
Integration weight cutoff        WCut        ... 1.0000e-14
Angular grids for H and He will be reduced by one unit
Partially contracted basis set               ... on
Rotationally invariant grid construction     ... off

Total number of grid points                  ...     7687
Total number of batches                      ...      121
Average number of points per batch           ...       63
Average number of grid points per atom       ...     1922
UseSFitting                                  ... on

GRIDX 2
-------
General Integration Accuracy     IntAcc      ... 4.338
Radial Grid Type                 RadialGrid  ... OptM3 with GC (2021)
Angular Grid (max. ang.)         AngularGrid ... 3 (Lebedev-194)
Angular grid pruning method      GridPruning ... 4 (adaptive)
Weight generation scheme         WeightScheme... Becke
Basis function cutoff            BFCut       ... 1.0000e-11
Integration weight cutoff        WCut        ... 1.0000e-14
Angular grids for H and He will be reduced by one unit
Partially contracted basis set               ... on
Rotationally invariant grid construction     ... off

Total number of grid points                  ...    18350
Total number of batches                      ...      289
Average number of points per batch           ...       63
Average number of grid points per atom       ...     4588
UseSFitting                                  ... on

GRIDX 3
-------
General Integration Accuracy     IntAcc      ... 4.871
Radial Grid Type                 RadialGrid  ... OptM3 with GC (2021)
Angular Grid (max. ang.)         AngularGrid ... 4 (Lebedev-302)
Angular grid pruning method      GridPruning ... 4 (adaptive)
Weight generation scheme         WeightScheme... Becke
Basis function cutoff            BFCut       ... 1.0000e-11
Integration weight cutoff        WCut        ... 1.0000e-14
Angular grids for H and He will be reduced by one unit
Partially contracted basis set               ... on
Rotationally invariant grid construction     ... off

Total number of grid points                  ...    31947
Total number of batches                      ...      501
Average number of points per batch           ...       63
Average number of grid points per atom       ...     7987
UseSFitting                                  ... on

Time for X-Grid setup             =    2.523 sec

--------------
SCF ITERATIONS
--------------
ITER       Energy         Delta-E        Max-DP      RMS-DP      [F,P]     Damp
               ***  Starting incremental Fock matrix formation  ***
  0  -1031.4846485742   0.000000000000 0.19924457  0.01044908  0.5121096 0.7000
  1  -1031.8754722781  -0.390823703862 0.11124029  0.00620669  0.2465084 0.7000
                               ***Turning on DIIS***
  2  -1032.0523816234  -0.176909345331 0.08770799  0.00369552  0.1735368 0.7000
  3  -1032.1793103211  -0.126928697711 0.07906121  0.00285841  0.1208858 0.7000
  4  -1032.2711126624  -0.091802341237 0.21239401  0.00719414  0.0837393 0.0000
  5  -1032.4890175040  -0.217904841678 0.00994331  0.00048915  0.0078632 0.0000
  6  -1032.4892640937  -0.000246589630 0.00412721  0.00018004  0.0051989 0.0000
                      *** Initiating the SOSCF procedure ***
                           *** Shutting down DIIS ***
                      *** Re-Reading the Fockian *** 
                      *** Removing any level shift *** 
ITER      Energy       Delta-E        Grad      Rot      Max-DP    RMS-DP
  7  -1032.48933465  -0.0000705558  0.001315  0.001315  0.002028  0.000082
               *** Restarting incremental Fock matrix formation ***
  8  -1032.48934346  -0.0000088126  0.000359  0.000951  0.000553  0.000047
  9  -1032.48934489  -0.0000014276  0.000305  0.000755  0.000736  0.000032
 10  -1032.48934520  -0.0000003112  0.000235  0.000366  0.000353  0.000014
 11  -1032.48934543  -0.0000002254  0.000031  0.000046  0.000071  0.000004
 12  -1032.48934543   0.0000000009  0.000032  0.000027  0.000038  0.000002
                  ***Gradient check signals convergence***
              ***Rediagonalizing the Fockian in SOSCF/NRSCF***

               *****************************************************
               *                     SUCCESS                       *
               *           SCF CONVERGED AFTER  13 CYCLES          *
               *****************************************************

Old exchange energy                            =    -28.738047682 Eh
New exchange energy                            =    -28.738047884 Eh
Exchange energy change after final integration =     -0.000000202 Eh
Total energy after final integration           =  -1032.489345636 Eh
Final COS-X integration done in                =     0.553 sec

----------------
TOTAL SCF ENERGY
----------------

Total Energy       :        -1032.48934564 Eh          -28095.46344 eV

Components:
Nuclear Repulsion  :          190.23046372 Eh            5176.43408 eV
Electronic Energy  :        -1222.71980936 Eh          -33271.89752 eV
One Electron Energy:        -1802.54905901 Eh          -49049.85354 eV
Two Electron Energy:          579.82924965 Eh           15777.95602 eV
Max COSX asymmetry :            0.00000144 Eh               0.00004 eV

Virial components:
Potential Energy   :        -2063.07988961 Eh          -56139.25786 eV
Kinetic Energy     :         1030.59054398 Eh           28043.79442 eV
Virial Ratio       :            2.00184244


DFT components:
N(Alpha)           :       23.999999504818 electrons
N(Beta)            :       23.999999504818 electrons
N(Total)           :       47.999999009636 electrons
E(X)               :      -38.370596843128 Eh       
E(C)               :       -2.403626877744 Eh       
E(XC)              :      -40.774223720873 Eh       
DFET-embed. en.    :        0.000000000000 Eh       

---------------
SCF CONVERGENCE
---------------

  Last Energy change         ...   -7.9760e-09  Tolerance :   1.0000e-08
  Last MAX-Density change    ...    2.6645e-15  Tolerance :   1.0000e-07
  Last RMS-Density change    ...    1.1195e-16  Tolerance :   5.0000e-09
  Last Orbital Gradient      ...    6.2188e-07  Tolerance :   1.0000e-05
  Last Orbital Rotation      ...    5.3069e-07  Tolerance :   1.0000e-05

             **** THE GBW FILE WAS UPDATED (pbeh-3c.gbw) ****
             **** DENSITY pbeh-3c.scfp WAS UPDATED ****
             **** ENERGY FILE WAS UPDATED (pbeh-3c.en.tmp) ****
             **** THE GBW FILE WAS UPDATED (pbeh-3c.gbw) ****
             **** DENSITY pbeh-3c.scfp WAS UPDATED ****
----------------
ORBITAL ENERGIES
----------------

  NO   OCC          E(Eh)            E(eV) 
   0   2.0000    -102.348702     -2785.0498 
   1   2.0000    -102.348596     -2785.0469 
   2   2.0000     -19.566910      -532.4427 
   3   2.0000     -10.670714      -290.3649 
   4   2.0000      -9.816644      -267.1245 
   5   2.0000      -9.816567      -267.1224 
   6   2.0000      -7.504399      -204.2051 
   7   2.0000      -7.504331      -204.2032 
   8   2.0000      -7.496147      -203.9805 
   9   2.0000      -7.496085      -203.9788 
  10   2.0000      -7.495065      -203.9511 
  11   2.0000      -7.495004      -203.9494 
  12   2.0000      -1.245105       -33.8810 
  13   2.0000      -1.008580       -27.4449 
  14   2.0000      -0.954004       -25.9598 
  15   2.0000      -0.674402       -18.3514 
  16   2.0000      -0.589666       -16.0456 
  17   2.0000      -0.574631       -15.6365 
  18   2.0000      -0.547616       -14.9014 
  19   2.0000      -0.432695       -11.7742 
  20   2.0000      -0.411093       -11.1864 
  21   2.0000      -0.408886       -11.1264 
  22   2.0000      -0.403261       -10.9733 
  23   2.0000      -0.380494       -10.3538 
  24   0.0000      -0.033162        -0.9024 
  25   0.0000      -0.009178        -0.2497 
  26   0.0000       0.133407         3.6302 
  27   0.0000       0.253394         6.8952 
  28   0.0000       0.427694        11.6382 
  29   0.0000       0.465486        12.6665 
  30   0.0000       0.473965        12.8973 
  31   0.0000       0.604774        16.4567 
  32   0.0000       0.649072        17.6622 
  33   0.0000       0.700386        19.0585 
  34   0.0000       0.713376        19.4119 
  35   0.0000       0.766758        20.8646 
  36   0.0000       0.771869        21.0036 
  37   0.0000       0.784454        21.3461 
  38   0.0000       0.791044        21.5254 
  39   0.0000       0.799463        21.7545 
  40   0.0000       0.800977        21.7957 
  41   0.0000       0.815943        22.2029 
  42   0.0000       0.830733        22.6054 
  43   0.0000       0.869216        23.6526 
  44   0.0000       0.880134        23.9497 
  45   0.0000       0.921057        25.0632 
  46   0.0000       0.954766        25.9805 
  47   0.0000       1.083291        29.4778 
  48   0.0000       1.129400        30.7325 
  49   0.0000       1.132888        30.8274 
  50   0.0000       1.166113        31.7315 
  51   0.0000       1.202286        32.7159 
  52   0.0000       1.358969        36.9794 
  53   0.0000       1.566445        42.6251 
  54   0.0000       1.595866        43.4257 
  55   0.0000       1.772046        48.2198 
  56   0.0000       1.933099        52.6023 
  57   0.0000       1.987240        54.0756 
  58   0.0000       2.012333        54.7584 
  59   0.0000       2.200909        59.8898 
  60   0.0000       2.395051        65.1726 
  61   0.0000       2.577968        70.1501 
  62   0.0000       2.715800        73.9007 
  63   0.0000       2.907171        79.1081 
  64   0.0000      13.534315       368.2874 
  65   0.0000      25.564320       695.6405 

                    ********************************
                    * MULLIKEN POPULATION ANALYSIS *
                    ********************************

-----------------------
MULLIKEN ATOMIC CHARGES
-----------------------
   0 C :    0.286477
   1 Cl:   -0.031103
   2 Cl:   -0.030969
   3 O :   -0.224404
Sum of atomic charges:   -0.0000000

--------------------------------
MULLIKEN REDUCED ORBITAL CHARGES
--------------------------------
  0 C s       :     3.128734  s :     3.128734
      pz      :     0.817823  p :     2.462551
      px      :     0.795904
      py      :     0.848824
      dz2     :     0.006733  d :     0.122238
      dxz     :     0.010629
      dyz     :     0.018624
      dx2y2   :     0.049638
      dxy     :     0.036615
  1 Cls       :     5.939681  s :     5.939681
      pz      :     3.889596  p :    11.056284
      px      :     3.796964
      py      :     3.369724
      dz2     :     0.005913  d :     0.035138
      dxz     :     0.001126
      dyz     :     0.004421
      dx2y2   :     0.010379
      dxy     :     0.013299
  2 Cls       :     5.939666  s :     5.939666
      pz      :     3.889554  p :    11.056149
      px      :     3.216656
      py      :     3.949939
      dz2     :     0.005916  d :     0.035154
      dxz     :     0.005421
      dyz     :     0.000129
      dx2y2   :     0.018612
      dxy     :     0.005076
  3 O s       :     3.767374  s :     3.767374
      pz      :     1.349035  p :     4.422304
      px      :     1.624088
      py      :     1.449181
      dz2     :     0.002707  d :     0.034726
      dxz     :     0.003446
      dyz     :     0.010197
      dx2y2   :     0.009406
      dxy     :     0.008971


                     *******************************
                     * LOEWDIN POPULATION ANALYSIS *
                     *******************************

----------------------
LOEWDIN ATOMIC CHARGES
----------------------
   0 C :   -0.080124
   1 Cl:    0.097688
   2 Cl:    0.097879
   3 O :   -0.115443

-------------------------------
LOEWDIN REDUCED ORBITAL CHARGES
-------------------------------
  0 C s       :     2.970500  s :     2.970500
      pz      :     0.843661  p :     2.855929
      px      :     0.973989
      py      :     1.038279
      dz2     :     0.013878  d :     0.253695
      dxz     :     0.019623
      dyz     :     0.034966
      dx2y2   :     0.106522
      dxy     :     0.078705
  1 Cls       :     5.801325  s :     5.801325
      pz      :     3.866856  p :    11.059613
      px      :     3.799039
      py      :     3.393718
      dz2     :     0.007525  d :     0.041374
      dxz     :     0.001082
      dyz     :     0.004363
      dx2y2   :     0.011597
      dxy     :     0.016807
  2 Cls       :     5.801256  s :     5.801256
      pz      :     3.866802  p :    11.059471
      px      :     3.262961
      py      :     3.929709
      dz2     :     0.007529  d :     0.041394
      dxz     :     0.005314
      dyz     :     0.000134
      dx2y2   :     0.023224
      dxy     :     0.005193
  3 O s       :     3.525903  s :     3.525903
      pz      :     1.339164  p :     4.526874
      px      :     1.649151
      py      :     1.538559
      dz2     :     0.007235  d :     0.062665
      dxz     :     0.004559
      dyz     :     0.013477
      dx2y2   :     0.017019
      dxy     :     0.020376


                      *****************************
                      * MAYER POPULATION ANALYSIS *
                      *****************************

  NA   - Mulliken gross atomic population
  ZA   - Total nuclear charge
  QA   - Mulliken gross atomic charge
  VA   - Mayer's total valence
  BVA  - Mayer's bonded valence
  FA   - Mayer's free valence

  ATOM       NA         ZA         QA         VA         BVA        FA
  0 C      5.7135     6.0000     0.2865     4.1705     4.1705     0.0000
  1 Cl    17.0311    17.0000    -0.0311     1.1798     1.1798    -0.0000
  2 Cl    17.0310    17.0000    -0.0310     1.1799     1.1799     0.0000
  3 O      8.2244     8.0000    -0.2244     2.3451     2.3451    -0.0000

  Mayer bond orders larger than 0.100000
B(  0-C ,  1-Cl) :   1.0079 B(  0-C ,  2-Cl) :   1.0081 B(  0-C ,  3-O ) :   2.1545 


-------
TIMINGS
-------

Total SCF time: 0 days 0 hours 0 min 55 sec 

Total time                  ....      55.467 sec
Sum of individual times     ....      48.943 sec  ( 88.2%)

Fock matrix formation       ....      39.242 sec  ( 70.7%)
  Split-RI-J                ....       5.548 sec  ( 14.1% of F)
  Chain of spheres X        ....       8.342 sec  ( 21.3% of F)
  XC integration            ....      10.291 sec  ( 26.2% of F)
    Basis function eval.    ....       0.869 sec  (  8.4% of XC)
    Density eval.           ....       0.603 sec  (  5.9% of XC)
    XC-Functional eval.     ....       0.597 sec  (  5.8% of XC)
    XC-Potential eval.      ....       0.314 sec  (  3.1% of XC)
Diagonalization             ....       1.071 sec  (  1.9%)
Density matrix formation    ....       0.017 sec  (  0.0%)
Population analysis         ....       0.654 sec  (  1.2%)
Initial guess               ....       0.003 sec  (  0.0%)
Orbital Transformation      ....       0.000 sec  (  0.0%)
Orbital Orthonormalization  ....       0.000 sec  (  0.0%)
DIIS solution               ....       2.411 sec  (  4.3%)
SOSCF solution              ....       1.130 sec  (  2.0%)
Grid generation             ....       4.414 sec  (  8.0%)

Maximum memory used throughout the entire SCF-calculation: 45.7 MB


-------------------------------------------------------------------------------
                          DFT DISPERSION CORRECTION                            
                                                                               
                              DFTD3 V3.1  Rev 1                                
                          USING Becke-Johnson damping                          
-------------------------------------------------------------------------------
The PBEh-3c composite method is recognized
Using three-body term ABC
Active option DFTDOPT                   ...         4   

molecular C6(AA) [au] = 760.907915 


            DFT-D V3
 parameters
 s6 scaling factor         :     1.0000 
 a1 scaling factor         :     0.4860 
 s8 scaling factor         :     0.0000 
 a2 scaling factor         :     4.5000 
 Damping factor alpha9(ATM):    16.0000 
 ad hoc parameters k1-k3   :    16.0000     1.3333    -4.0000 

 Edisp/kcal,au: -1.017832079124  -0.001622018492 
 E6   /kcal   :  -1.017910538 
 E8   /kcal   :  -0.000000000 
 E6(ABC)      :   0.000078459 
 % E8         :   0.000000000 
 % E6(ABC)    :  -0.007708440 

-------------------------   ----------------
Dispersion correction           -0.001622018
-------------------------   ----------------

------------------   -----------------
gCP correction             0.004070668
------------------   -----------------

-------------------------   --------------------
FINAL SINGLE POINT ENERGY     -1032.486896986485
-------------------------   --------------------


                            ***************************************
                            *     ORCA property calculations      *
                            ***************************************

                                    ---------------------
                                    Active property flags
                                    ---------------------
   (+) Dipole Moment


------------------------------------------------------------------------------
                       ORCA ELECTRIC PROPERTIES CALCULATION
------------------------------------------------------------------------------

Dipole Moment Calculation                       ... on
Quadrupole Moment Calculation                   ... off
Polarizability Calculation                      ... off
GBWName                                         ... pbeh-3c.gbw
Electron density                                ... pbeh-3c.scfp
The origin for moment calculation is the CENTER OF MASS  = (-0.302047, -0.522799  0.000000)

-------------
DIPOLE MOMENT
-------------
                                X             Y             Z
Electronic contribution:     -0.88005      -1.52203      -0.00000
Nuclear contribution   :      0.64693       1.11967       0.00000
                        -----------------------------------------
Total Dipole Moment    :     -0.23313      -0.40236      -0.00000
                        -----------------------------------------
Magnitude (a.u.)       :      0.46502
Magnitude (Debye)      :      1.18198



--------------------
Rotational spectrum 
--------------------
 
Rotational constants in cm-1:     0.257397     0.112170     0.078124 
Rotational constants in MHz :  7716.562870  3362.771171  2342.111454 

 Dipole components along the rotational axes: 
x,y,z [a.u.] :     0.000596    -0.465019    -0.000000 
x,y,z [Debye]:     0.001515    -1.181984    -0.000000 

 

Timings for individual modules:

Sum of individual times         ...       59.400 sec (=   0.990 min)
GTO integral calculation        ...        3.138 sec (=   0.052 min)   5.3 %
SCF iterations                  ...       56.262 sec (=   0.938 min)  94.7 %
                             ****ORCA TERMINATED NORMALLY****
TOTAL RUN TIME: 0 days 0 hours 1 minutes 4 seconds 326 msec
