
                                 *****************
                                 * O   R   C   A *
                                 *****************

                                            #,                                       
                                            ###                                      
                                            ####                                     
                                            #####                                    
                                            ######                                   
                                           ########,                                 
                                     ,,################,,,,,                         
                               ,,#################################,,                 
                          ,,##########################################,,             
                       ,#########################################, ''#####,          
                    ,#############################################,,   '####,        
                  ,##################################################,,,,####,       
                ,###########''''           ''''###############################       
              ,#####''   ,,,,##########,,,,          '''####'''          '####       
            ,##' ,,,,###########################,,,                        '##       
           ' ,,###''''                  '''############,,,                           
         ,,##''                                '''############,,,,        ,,,,,,###''
      ,#''                                            '''#######################'''  
     '                                                          ''''####''''         
             ,#######,   #######,   ,#######,      ##                                
            ,#'     '#,  ##    ##  ,#'     '#,    #''#        ######   ,####,        
            ##       ##  ##   ,#'  ##            #'  '#       #        #'  '#        
            ##       ##  #######   ##           ,######,      #####,   #    #        
            '#,     ,#'  ##    ##  '#,     ,#' ,#      #,         ##   #,  ,#        
             '#######'   ##     ##  '#######'  #'      '#     #####' # '####'        



                  #######################################################
                  #                        -***-                        #
                  #          Department of theory and spectroscopy      #
                  #    Directorship and core code : Frank Neese         #
                  #        Max Planck Institute fuer Kohlenforschung    #
                  #                Kaiser Wilhelm Platz 1               #
                  #                 D-45470 Muelheim/Ruhr               #
                  #                      Germany                        #
                  #                                                     #
                  #                  All rights reserved                #
                  #                        -***-                        #
                  #######################################################


                         Program Version 5.0.3 -  RELEASE  -


 With contributions from (in alphabetic order):
   Daniel Aravena         : Magnetic Suceptibility
   Michael Atanasov       : Ab Initio Ligand Field Theory (pilot matlab implementation)
   Alexander A. Auer      : GIAO ZORA, VPT2 properties, NMR spectrum
   Ute Becker             : Parallelization
   Giovanni Bistoni       : ED, misc. LED, open-shell LED, HFLD
   Martin Brehm           : Molecular dynamics
   Dmytro Bykov           : SCF Hessian
   Vijay G. Chilkuri      : MRCI spin determinant printing, contributions to CSF-ICE
   Dipayan Datta          : RHF DLPNO-CCSD density
   Achintya Kumar Dutta   : EOM-CC, STEOM-CC
   Dmitry Ganyushin       : Spin-Orbit,Spin-Spin,Magnetic field MRCI
   Miquel Garcia          : C-PCM and meta-GGA Hessian, CC/C-PCM, Gaussian charge scheme
   Yang Guo               : DLPNO-NEVPT2, F12-NEVPT2, CIM, IAO-localization
   Andreas Hansen         : Spin unrestricted coupled pair/coupled cluster methods
   Benjamin Helmich-Paris : MC-RPA, TRAH-SCF, COSX integrals
   Lee Huntington         : MR-EOM, pCC
   Robert Izsak           : Overlap fitted RIJCOSX, COSX-SCS-MP3, EOM
   Marcus Kettner         : VPT2
   Christian Kollmar      : KDIIS, OOCD, Brueckner-CCSD(T), CCSD density, CASPT2, CASPT2-K
   Simone Kossmann        : Meta GGA functionals, TD-DFT gradient, OOMP2, MP2 Hessian
   Martin Krupicka        : Initial AUTO-CI
   Lucas Lang             : DCDCAS
   Marvin Lechner         : AUTO-CI (C++ implementation), FIC-MRCC
   Dagmar Lenk            : GEPOL surface, SMD
   Dimitrios Liakos       : Extrapolation schemes; Compound Job, initial MDCI parallelization
   Dimitrios Manganas     : Further ROCIS development; embedding schemes
   Dimitrios Pantazis     : SARC Basis sets
   Anastasios Papadopoulos: AUTO-CI, single reference methods and gradients
   Taras Petrenko         : DFT Hessian,TD-DFT gradient, ASA, ECA, R-Raman, ABS, FL, XAS/XES, NRVS
   Peter Pinski           : DLPNO-MP2, DLPNO-MP2 Gradient
   Christoph Reimann      : Effective Core Potentials
   Marius Retegan         : Local ZFS, SOC
   Christoph Riplinger    : Optimizer, TS searches, QM/MM, DLPNO-CCSD(T), (RO)-DLPNO pert. Triples
   Tobias Risthaus        : Range-separated hybrids, TD-DFT gradient, RPA, STAB
   Michael Roemelt        : Original ROCIS implementation
   Masaaki Saitow         : Open-shell DLPNO-CCSD energy and density
   Barbara Sandhoefer     : DKH picture change effects
   Avijit Sen             : IP-ROCIS
   Kantharuban Sivalingam : CASSCF convergence, NEVPT2, FIC-MRCI
   Bernardo de Souza      : ESD, SOC TD-DFT
   Georgi Stoychev        : AutoAux, RI-MP2 NMR, DLPNO-MP2 response
   Willem Van den Heuvel  : Paramagnetic NMR
   Boris Wezisla          : Elementary symmetry handling
   Frank Wennmohs         : Technical directorship


 We gratefully acknowledge several colleagues who have allowed us to
 interface, adapt or use parts of their codes:
   Stefan Grimme, W. Hujo, H. Kruse, P. Pracht,  : VdW corrections, initial TS optimization,
                  C. Bannwarth, S. Ehlert          DFT functionals, gCP, sTDA/sTD-DF
   Ed Valeev, F. Pavosevic, A. Kumar             : LibInt (2-el integral package), F12 methods
   Garnet Chan, S. Sharma, J. Yang, R. Olivares  : DMRG
   Ulf Ekstrom                                   : XCFun DFT Library
   Mihaly Kallay                                 : mrcc  (arbitrary order and MRCC methods)
   Jiri Pittner, Ondrej Demel                    : Mk-CCSD
   Frank Weinhold                                : gennbo (NPA and NBO analysis)
   Christopher J. Cramer and Donald G. Truhlar   : smd solvation model
   Lars Goerigk                                  : TD-DFT with DH, B97 family of functionals
   V. Asgeirsson, H. Jonsson                     : NEB implementation
   FAccTs GmbH                                   : IRC, NEB, NEB-TS, DLPNO-Multilevel, CI-OPT
                                                   MM, QMMM, 2- and 3-layer-ONIOM, Crystal-QMMM,
                                                   LR-CPCM, SF, NACMEs, symmetry and pop. for TD-DFT,
                                                   nearIR, NL-DFT gradient (VV10), updates on ESD,
                                                   ML-optimized integration grids
   S Lehtola, MJT Oliveira, MAL Marques          : LibXC Library
   Liviu Ungur et al                             : ANISO software


 Your calculation uses the libint2 library for the computation of 2-el integrals
 For citations please refer to: http://libint.valeyev.net

 Your ORCA version has been built with support for libXC version: 5.1.0
 For citations please refer to: https://tddft.org/programs/libxc/

 This ORCA versions uses:
   CBLAS   interface :  Fast vector & matrix operations
   LAPACKE interface :  Fast linear algebra routines
   SCALAPACK package :  Parallel linear algebra routines
   Shared memory     :  Shared parallel matrices
   BLAS/LAPACK       :  OpenBLAS 0.3.15  USE64BITINT DYNAMIC_ARCH NO_AFFINITY Haswell SINGLE_THREADED
        Core in use  :  Haswell
   Copyright (c) 2011-2014, The OpenBLAS Project




***************************************
The coordinates will be read from file: R28.xyz
***************************************


Your calculation utilizes the geometrical counterpoise correction gCP
Please cite in your paper:
H.Kruse, S. Grimme J.Chem.Phys., 136, (2012), 154101 
   

Your calculation utilizes the atom-pairwise dispersion correction
with the Becke-Johnson damping scheme (D3BJ)
Cite in your paper:
S.Grimme, S.Ehrlich, L.Goerigk, J Comput Chem, (2011), 32, 1456–1465 
S.Grimme, J.Antony, S.Ehrlich and H.Krieg, J.Chem.Phys., 132, (2010), 154104 
   

Your calculation employs the composite approach PBEh-3c.
Please cite in your paper:
S. Grimme, J. G. Brandenburg, C. Bannwarth, A. Hansen J.Chem.Phys., 143, (2015), 054107 
   

================================================================================

----- Orbital basis set information -----
Your calculation utilizes the basis: def2-mSVP

----- AuxJ basis set information -----
Your calculation utilizes the auxiliary basis: def2/J
   F. Weigend, Phys. Chem. Chem. Phys. 8, 1057 (2006).

================================================================================
                                        WARNINGS
                       Please study these warnings very carefully!
================================================================================


INFO   : the flag for use of the SHARK integral package has been found!

================================================================================
                                       INPUT FILE
================================================================================
NAME = pbeh-3c.inp
|  1> ! PBEh-3c def2/J TightSCF DefGrid3
|  2> 
|  3> %maxcore 60000
|  4> 
|  5> %pal
|  6> nprocs 4
|  7> end
|  8> 
|  9> *xyzfile 0 1 R28.xyz
| 10> 
| 11>                          ****END OF INPUT****
================================================================================

                       ****************************
                       * Single Point Calculation *
                       ****************************

---------------------------------
CARTESIAN COORDINATES (ANGSTROEM)
---------------------------------
  C      0.000000    0.185069    0.000000
  C     -1.375639   -0.425052    0.000000
  C     -0.038773   -1.111016    0.000000
  C      0.711211    1.425145    0.000000
  C      0.615790   -2.428679    0.000000
  C      0.107594    2.616183    0.000000
  H     -1.973131   -0.406438    0.911869
  H     -1.973131   -0.406438   -0.911869
  H      1.794625    1.366737    0.000000
  H      0.313451   -3.006442   -0.877524
  H      1.701923   -2.338927    0.000000
  H     -0.971736    2.691254    0.000000
  H      0.673454    3.536786    0.000000
  H      0.313451   -3.006442    0.877524

----------------------------
CARTESIAN COORDINATES (A.U.)
----------------------------
  NO LB      ZA    FRAG     MASS         X           Y           Z
   0 C     6.0000    0    12.011    0.000000    0.349730    0.000000
   1 C     6.0000    0    12.011   -2.599581   -0.803232    0.000000
   2 C     6.0000    0    12.011   -0.073270   -2.099516    0.000000
   3 C     6.0000    0    12.011    1.343994    2.693134    0.000000
   4 C     6.0000    0    12.011    1.163674   -4.589538    0.000000
   5 C     6.0000    0    12.011    0.203323    4.943869    0.000000
   6 H     1.0000    0     1.008   -3.728677   -0.768057    1.723182
   7 H     1.0000    0     1.008   -3.728677   -0.768057   -1.723182
   8 H     1.0000    0     1.008    3.391350    2.582758    0.000000
   9 H     1.0000    0     1.008    0.592337   -5.681352   -1.658280
  10 H     1.0000    0     1.008    3.216168   -4.419931    0.000000
  11 H     1.0000    0     1.008   -1.836315    5.085733    0.000000
  12 H     1.0000    0     1.008    1.272644    6.683556    0.000000
  13 H     1.0000    0     1.008    0.592337   -5.681352    1.658280

--------------------------------
INTERNAL COORDINATES (ANGSTROEM)
--------------------------------
 C      0   0   0     0.000000000000     0.00000000     0.00000000
 C      1   0   0     1.504868770968     0.00000000     0.00000000
 C      1   2   0     1.296664726727    64.36831886     0.00000000
 C      1   2   3     1.429548593801   143.75338418   180.00000000
 C      3   1   2     1.471287952444   151.87010512   180.00000085
 C      4   1   2     1.335262012192   123.28892806     0.00000000
 H      2   1   3     1.090343093639   119.60422235   105.87121843
 H      2   1   3     1.090343093639   119.60422235   254.12878157
 H      4   1   2     1.084987276359   116.74933361   180.00000085
 H      5   3   1     1.093282740265   110.50291161   238.97399327
 H      5   3   1     1.089834894820   111.69250250     0.00000000
 H      6   4   1     1.081937469577   120.85455451     0.00000000
 H      6   4   1     1.080605033807   121.54667135   180.00000000
 H      5   3   1     1.093282740265   110.50291161   121.02600673

---------------------------
INTERNAL COORDINATES (A.U.)
---------------------------
 C      0   0   0     0.000000000000     0.00000000     0.00000000
 C      1   0   0     2.843789844620     0.00000000     0.00000000
 C      1   2   0     2.450341221029    64.36831886     0.00000000
 C      1   2   3     2.701455337417   143.75338418   180.00000000
 C      3   1   2     2.780331294256   151.87010512   180.00000085
 C      4   1   2     2.523279520071   123.28892806     0.00000000
 H      2   1   3     2.060449838991   119.60422235   105.87121843
 H      2   1   3     2.060449838991   119.60422235   254.12878157
 H      4   1   2     2.050328811107   116.74933361   180.00000085
 H      5   3   1     2.066004966044   110.50291161   238.97399327
 H      5   3   1     2.059489482400   111.69250250     0.00000000
 H      6   4   1     2.044565511529   120.85455451     0.00000000
 H      6   4   1     2.042047572831   121.54667135   180.00000000
 H      5   3   1     2.066004966044   110.50291161   121.02600673

---------------------
BASIS SET INFORMATION
---------------------
There are 2 groups of distinct atoms

 Group   1 Type C   : 8s4p1d contracted to 4s2p1d pattern {5111/31/1}
 Group   2 Type H   : 4s contracted to 2s pattern {31}

Atom   0C    basis set group =>   1
Atom   1C    basis set group =>   1
Atom   2C    basis set group =>   1
Atom   3C    basis set group =>   1
Atom   4C    basis set group =>   1
Atom   5C    basis set group =>   1
Atom   6H    basis set group =>   2
Atom   7H    basis set group =>   2
Atom   8H    basis set group =>   2
Atom   9H    basis set group =>   2
Atom  10H    basis set group =>   2
Atom  11H    basis set group =>   2
Atom  12H    basis set group =>   2
Atom  13H    basis set group =>   2
---------------------------------
AUXILIARY/J BASIS SET INFORMATION
---------------------------------
There are 2 groups of distinct atoms

 Group   1 Type C   : 12s5p4d2f1g contracted to 6s4p3d1f1g pattern {711111/2111/211/2/1}
 Group   2 Type H   : 5s2p1d contracted to 3s1p1d pattern {311/2/1}

Atom   0C    basis set group =>   1
Atom   1C    basis set group =>   1
Atom   2C    basis set group =>   1
Atom   3C    basis set group =>   1
Atom   4C    basis set group =>   1
Atom   5C    basis set group =>   1
Atom   6H    basis set group =>   2
Atom   7H    basis set group =>   2
Atom   8H    basis set group =>   2
Atom   9H    basis set group =>   2
Atom  10H    basis set group =>   2
Atom  11H    basis set group =>   2
Atom  12H    basis set group =>   2
Atom  13H    basis set group =>   2


           ************************************************************
           *        Program running with 4 parallel MPI-processes     *
           *              working on a common directory               *
           ************************************************************
------------------------------------------------------------------------------
                           ORCA GTO INTEGRAL CALCULATION
                           -- RI-GTO INTEGRALS CHOSEN --
------------------------------------------------------------------------------
------------------------------------------------------------------------------
                   ___                                                        
                  /   \      - P O W E R E D   B Y -                         
                 /     \                                                     
                 |  |  |   _    _      __       _____    __    __             
                 |  |  |  | |  | |    /  \     |  _  \  |  |  /  |          
                  \  \/   | |  | |   /    \    | | | |  |  | /  /          
                 / \  \   | |__| |  /  /\  \   | |_| |  |  |/  /          
                |  |  |   |  __  | /  /__\  \  |    /   |      \           
                |  |  |   | |  | | |   __   |  |    \   |  |\   \          
                \     /   | |  | | |  |  |  |  | |\  \  |  | \   \       
                 \___/    |_|  |_| |__|  |__|  |_| \__\ |__|  \__/        
                                                                              
                      - O R C A' S   B I G   F R I E N D -                    
                                      &                                       
                       - I N T E G R A L  F E E D E R -                       
                                                                              
 v1 FN, 2020, v2 2021                                                         
------------------------------------------------------------------------------


Reading SHARK input file pbeh-3c.SHARKINP.tmp ... ok
----------------------
SHARK INTEGRAL PACKAGE
----------------------

Number of atoms                             ...     14
Number of basis functions                   ...    106
Number of shells                            ...     58
Maximum angular momentum                    ...      2
Integral batch strategy                     ... SHARK/LIBINT Hybrid
RI-J (if used) integral strategy            ... SPLIT-RIJ (Revised 2003 algorithm where possible)
Printlevel                                  ...      1
Contraction scheme used                     ... SEGMENTED contraction
Coulomb Range Separation                    ... NOT USED
Exchange Range Separation                   ... NOT USED
Finite Nucleus Model                        ... NOT USED
Auxiliary Coulomb fitting basis             ... AVAILABLE
   # of basis functions in Aux-J            ...    382
   # of shells in Aux-J                     ...    130
   Maximum angular momentum in Aux-J        ...      4
Auxiliary J/K fitting basis                 ... NOT available
Auxiliary Correlation fitting basis         ... NOT available
Auxiliary 'external' fitting basis          ... NOT available
Integral threshold                          ...     2.500000e-11
Primitive cut-off                           ...     2.500000e-12
Primitive pair pre-selection threshold      ...     2.500000e-12

Calculating pre-screening integrals         ... done (  0.1 sec) Dimension = 58
Organizing shell pair data                  ... done (  0.1 sec)
Shell pair information
Total number of shell pairs                 ...      1711
Shell pairs after pre-screening             ...      1587
Total number of primitive shell pairs       ...      6207
Primitive shell pairs kept                  ...      4244
          la=0 lb=0:    727 shell pairs
          la=1 lb=0:    471 shell pairs
          la=1 lb=1:     78 shell pairs
          la=2 lb=0:    219 shell pairs
          la=2 lb=1:     72 shell pairs
          la=2 lb=2:     20 shell pairs

Calculating one electron integrals          ... done (  0.1 sec)
Calculating RI/J V-Matrix + Cholesky decomp.... done (  0.3 sec)
Calculating Nuclear repulsion               ... done (  0.0 sec) ENN=    203.856988530520 Eh

SHARK setup successfully completed in   1.7 seconds

Maximum memory used throughout the entire GTOINT-calculation: 10.3 MB


           ************************************************************
           *        Program running with 4 parallel MPI-processes     *
           *              working on a common directory               *
           ************************************************************
-------------------------------------------------------------------------------
                                 ORCA SCF
-------------------------------------------------------------------------------

------------
SCF SETTINGS
------------
Hamiltonian:
 Density Functional     Method          .... DFT(GTOs)
 Exchange Functional    Exchange        .... PBE
   PBE kappa parameter   XKappa         ....  1.024500
   PBE mue parameter    XMuePBE         ....  0.123457
 Correlation Functional Correlation     .... PBE
   PBE beta parameter  CBetaPBE         ....  0.030000
 LDA part of GGA corr.  LDAOpt          .... PW91-LDA
 Gradients option       PostSCFGGA      .... off
 Hybrid DFT is turned on
   Fraction HF Exchange ScalHFX         ....  0.420000
   Scaling of DF-GGA-X  ScalDFX         ....  0.580000
   Scaling of DF-GGA-C  ScalDFC         ....  1.000000
   Scaling of DF-LDA-C  ScalLDAC        ....  1.000000
   Perturbative correction              ....  0.000000
   Density functional embedding theory  .... OFF
 RI-approximation to the Coulomb term is turned on
   Number of AuxJ basis functions       .... 382
   RIJ-ON(X) (HFX calculated with O(N)) .... on
   Number of AuxJ basis functions       .... 382
   RIJ-COSX (HFX calculated with COS-X)).... on


General Settings:
 Integral files         IntName         .... pbeh-3c
 Hartree-Fock type      HFTyp           .... RHF
 Total Charge           Charge          ....    0
 Multiplicity           Mult            ....    1
 Number of Electrons    NEL             ....   44
 Basis Dimension        Dim             ....  106
 Nuclear Repulsion      ENuc            ....    203.8569885305 Eh

Convergence Acceleration:
 DIIS                   CNVDIIS         .... on
   Start iteration      DIISMaxIt       ....    12
   Startup error        DIISStart       ....  0.200000
   # of expansion vecs  DIISMaxEq       ....     5
   Bias factor          DIISBfac        ....   1.050
   Max. coefficient     DIISMaxC        ....  10.000
 Trust-Rad. Augm. Hess. CNVTRAH         .... auto
   Auto Start mean grad. ratio tolernc. ....  1.125000
   Auto Start start iteration           ....    20
   Auto Start num. interpolation iter.  ....    10
   Max. Number of Micro iterations      ....    16
   Max. Number of Macro iterations      .... Maxiter - #DIIS iter
   Number of Davidson start vectors     ....     2
   Converg. threshold I  (grad. norm)   ....   1.000e-05
   Converg. threshold II (energy diff.) ....   1.000e-08
   Grad. Scal. Fac. for Micro threshold ....   0.100
   Minimum threshold for Micro iter.    ....   0.010
   NR start threshold (gradient norm)   ....   0.001
   Initial trust radius                 ....   0.400
   Minimum AH scaling param. (alpha)    ....   1.000
   Maximum AH scaling param. (alpha)    .... 1000.000
   Orbital update algorithm             .... Taylor
   White noise on init. David. guess    .... on
   Maximum white noise                  ....   0.010
   Quad. conv. algorithm                .... NR
   COSX micro iterations for RIJONX calc.... off
 SOSCF                  CNVSOSCF        .... on
   Start iteration      SOSCFMaxIt      ....   150
   Startup grad/error   SOSCFStart      ....  0.003300
 Level Shifting         CNVShift        .... on
   Level shift para.    LevelShift      ....    0.2500
   Turn off err/grad.   ShiftErr        ....    0.0010
 Zerner damping         CNVZerner       .... off
 Static damping         CNVDamp         .... on
   Fraction old density DampFac         ....    0.7000
   Max. Damping (<1)    DampMax         ....    0.9800
   Min. Damping (>=0)   DampMin         ....    0.0000
   Turn off err/grad.   DampErr         ....    0.1000
 Fernandez-Rico         CNVRico         .... off

SCF Procedure:
 Maximum # iterations   MaxIter         ....   125
 SCF integral mode      SCFMode         .... Direct
   Integral package                     .... SHARK and LIBINT hybrid scheme
 Reset frequency        DirectResetFreq ....    20
 Integral Threshold     Thresh          ....  2.500e-11 Eh
 Primitive CutOff       TCut            ....  2.500e-12 Eh

Convergence Tolerance:
 Convergence Check Mode ConvCheckMode   .... Total+1el-Energy
 Convergence forced     ConvForced      .... 0
 Energy Change          TolE            ....  1.000e-08 Eh
 1-El. energy change                    ....  1.000e-05 Eh
 Orbital Gradient       TolG            ....  1.000e-05
 Orbital Rotation angle TolX            ....  1.000e-05
 DIIS Error             TolErr          ....  5.000e-07


Diagonalization of the overlap matrix:
Smallest eigenvalue                        ... 9.258e-04
Time for diagonalization                   ...    0.002 sec
Threshold for overlap eigenvalues          ... 1.000e-08
Number of eigenvalues below threshold      ... 0
Time for construction of square roots      ...    0.177 sec
Total time needed                          ...    0.188 sec

--------------------------------
INITIAL GUESS: MINIMAL BASIS EHT
--------------------------------
The minimal basis has 38 functions
EHT matrix was diagonalized
Basis set overlap was calculated now projecting the orbitals
Using GuessMode=FMatrix for the initial guess
C*T matrix was formed
Effective Fockian was calculated
Effective Fockian was diagonalized
Initial density was built
                      ------------------
                      INITIAL GUESS DONE
                      ------------------
-------------------
DFT GRID GENERATION
-------------------

General Integration Accuracy     IntAcc      ... 4.959
Radial Grid Type                 RadialGrid  ... OptM3 with GC (2021)
Angular Grid (max. ang.)         AngularGrid ... 6 (Lebedev-590)
Angular grid pruning method      GridPruning ... 4 (adaptive)
Weight generation scheme         WeightScheme... Becke
Basis function cutoff            BFCut       ... 1.0000e-11
Integration weight cutoff        WCut        ... 1.0000e-14
Angular grids for H and He will be reduced by one unit
Partially contracted basis set               ... off
Rotationally invariant grid construction     ... off

Total number of grid points                  ...   156532
Total number of batches                      ...     2453
Average number of points per batch           ...       63
Average number of grid points per atom       ...    11181
Time for grid setup =    2.324 sec

--------------------
COSX GRID GENERATION
--------------------

GRIDX 1
-------
General Integration Accuracy     IntAcc      ... 4.020
Radial Grid Type                 RadialGrid  ... OptM3 with GC (2021)
Angular Grid (max. ang.)         AngularGrid ... 2 (Lebedev-110)
Angular grid pruning method      GridPruning ... 4 (adaptive)
Weight generation scheme         WeightScheme... Becke
Basis function cutoff            BFCut       ... 1.0000e-11
Integration weight cutoff        WCut        ... 1.0000e-14
Angular grids for H and He will be reduced by one unit
Partially contracted basis set               ... on
Rotationally invariant grid construction     ... off

Total number of grid points                  ...    17055
Total number of batches                      ...      273
Average number of points per batch           ...       62
Average number of grid points per atom       ...     1218
UseSFitting                                  ... on

GRIDX 2
-------
General Integration Accuracy     IntAcc      ... 4.338
Radial Grid Type                 RadialGrid  ... OptM3 with GC (2021)
Angular Grid (max. ang.)         AngularGrid ... 3 (Lebedev-194)
Angular grid pruning method      GridPruning ... 4 (adaptive)
Weight generation scheme         WeightScheme... Becke
Basis function cutoff            BFCut       ... 1.0000e-11
Integration weight cutoff        WCut        ... 1.0000e-14
Angular grids for H and He will be reduced by one unit
Partially contracted basis set               ... on
Rotationally invariant grid construction     ... off

Total number of grid points                  ...    37477
Total number of batches                      ...      593
Average number of points per batch           ...       63
Average number of grid points per atom       ...     2677
UseSFitting                                  ... on

GRIDX 3
-------
General Integration Accuracy     IntAcc      ... 4.871
Radial Grid Type                 RadialGrid  ... OptM3 with GC (2021)
Angular Grid (max. ang.)         AngularGrid ... 4 (Lebedev-302)
Angular grid pruning method      GridPruning ... 4 (adaptive)
Weight generation scheme         WeightScheme... Becke
Basis function cutoff            BFCut       ... 1.0000e-11
Integration weight cutoff        WCut        ... 1.0000e-14
Angular grids for H and He will be reduced by one unit
Partially contracted basis set               ... on
Rotationally invariant grid construction     ... off

Total number of grid points                  ...    73025
Total number of batches                      ...     1149
Average number of points per batch           ...       63
Average number of grid points per atom       ...     5216
UseSFitting                                  ... on

Time for X-Grid setup             =    2.024 sec

--------------
SCF ITERATIONS
--------------
ITER       Energy         Delta-E        Max-DP      RMS-DP      [F,P]     Damp
               ***  Starting incremental Fock matrix formation  ***
  0   -232.2189897768   0.000000000000 0.15045471  0.00602120  0.4240177 0.7000
  1   -232.3974468339  -0.178457057080 0.10834912  0.00446846  0.3001210 0.7000
  2   -232.5251677977  -0.127720963805 0.07981849  0.00336368  0.2113185 0.7000
                               ***Turning on DIIS***
  3   -232.6160982279  -0.090930430222 0.06195729  0.00253639  0.1487197 0.7000
  4   -232.6807922618  -0.064694033935 0.05078067  0.00201955  0.1045865 0.7000
  5   -232.7267202681  -0.045928006281 0.12819562  0.00508278  0.0732832 0.0000
                      *** Initiating the SOSCF procedure ***
                           *** Shutting down DIIS ***
                      *** Re-Reading the Fockian *** 
                      *** Removing any level shift *** 
ITER      Energy       Delta-E        Grad      Rot      Max-DP    RMS-DP
  6   -232.83647834  -0.1097580709  0.001449  0.001449  0.005263  0.000212
               *** Restarting incremental Fock matrix formation ***
  7   -232.83654443  -0.0000660867  0.000570  0.000733  0.003549  0.000139
  8   -232.83655336  -0.0000089294  0.000260  0.001127  0.001333  0.000051
  9   -232.83655366  -0.0000003045  0.000239  0.000514  0.000683  0.000023
 10   -232.83655455  -0.0000008897  0.000025  0.000052  0.000085  0.000004
 11   -232.83655455  -0.0000000044  0.000020  0.000019  0.000044  0.000002
 12   -232.83655457  -0.0000000147  0.000003  0.000009  0.000015  0.000000
 13   -232.83655457   0.0000000006  0.000003  0.000004  0.000005  0.000000
                  ***Gradient check signals convergence***
              ***Rediagonalizing the Fockian in SOSCF/NRSCF***

               *****************************************************
               *                     SUCCESS                       *
               *           SCF CONVERGED AFTER  14 CYCLES          *
               *****************************************************

Old exchange energy                            =    -14.230772446 Eh
New exchange energy                            =    -14.230768684 Eh
Exchange energy change after final integration =      0.000003762 Eh
Total energy after final integration           =   -232.836550806 Eh
Final COS-X integration done in                =     3.139 sec

----------------
TOTAL SCF ENERGY
----------------

Total Energy       :         -232.83655081 Eh           -6335.80465 eV

Components:
Nuclear Repulsion  :          203.85698853 Eh            5547.23067 eV
Electronic Energy  :         -436.69353934 Eh          -11883.03533 eV
One Electron Energy:         -715.71499663 Eh          -19475.59518 eV
Two Electron Energy:          279.02145730 Eh            7592.55985 eV
Max COSX asymmetry :            0.00000140 Eh               0.00004 eV

Virial components:
Potential Energy   :         -463.78590050 Eh          -12620.25595 eV
Kinetic Energy     :          230.94934969 Eh            6284.45130 eV
Virial Ratio       :            2.00817149


DFT components:
N(Alpha)           :       22.000000906094 electrons
N(Beta)            :       22.000000906094 electrons
N(Total)           :       44.000001812188 electrons
E(X)               :      -18.884092596730 Eh       
E(C)               :       -1.868869419498 Eh       
E(XC)              :      -20.752962016229 Eh       
DFET-embed. en.    :        0.000000000000 Eh       

---------------
SCF CONVERGENCE
---------------

  Last Energy change         ...   -4.5088e-10  Tolerance :   1.0000e-08
  Last MAX-Density change    ...    1.4433e-15  Tolerance :   1.0000e-07
  Last RMS-Density change    ...    4.7210e-17  Tolerance :   5.0000e-09
  Last Orbital Gradient      ...    3.3955e-07  Tolerance :   1.0000e-05
  Last Orbital Rotation      ...    1.1890e-06  Tolerance :   1.0000e-05

             **** THE GBW FILE WAS UPDATED (pbeh-3c.gbw) ****
             **** DENSITY pbeh-3c.scfp WAS UPDATED ****
             **** ENERGY FILE WAS UPDATED (pbeh-3c.en.tmp) ****
             **** THE GBW FILE WAS UPDATED (pbeh-3c.gbw) ****
             **** DENSITY pbeh-3c.scfp WAS UPDATED ****
----------------
ORBITAL ENERGIES
----------------

  NO   OCC          E(Eh)            E(eV) 
   0   2.0000     -10.459655      -284.6217 
   1   2.0000     -10.455373      -284.5052 
   2   2.0000     -10.451283      -284.3939 
   3   2.0000     -10.446060      -284.2518 
   4   2.0000     -10.442381      -284.1516 
   5   2.0000     -10.439645      -284.0772 
   6   2.0000      -0.972088       -26.4519 
   7   2.0000      -0.867193       -23.5975 
   8   2.0000      -0.817171       -22.2364 
   9   2.0000      -0.701948       -19.1010 
  10   2.0000      -0.641388       -17.4531 
  11   2.0000      -0.574718       -15.6389 
  12   2.0000      -0.528765       -14.3884 
  13   2.0000      -0.507589       -13.8122 
  14   2.0000      -0.505414       -13.7530 
  15   2.0000      -0.481478       -13.1017 
  16   2.0000      -0.460728       -12.5371 
  17   2.0000      -0.433050       -11.7839 
  18   2.0000      -0.373342       -10.1592 
  19   2.0000      -0.354567        -9.6482 
  20   2.0000      -0.329005        -8.9527 
  21   2.0000      -0.256225        -6.9722 
  22   0.0000      -0.003223        -0.0877 
  23   0.0000       0.127365         3.4658 
  24   0.0000       0.157499         4.2858 
  25   0.0000       0.169362         4.6086 
  26   0.0000       0.174486         4.7480 
  27   0.0000       0.196926         5.3586 
  28   0.0000       0.203845         5.5469 
  29   0.0000       0.216007         5.8778 
  30   0.0000       0.220494         5.9999 
  31   0.0000       0.250713         6.8223 
  32   0.0000       0.257292         7.0013 
  33   0.0000       0.270598         7.3634 
  34   0.0000       0.293705         7.9921 
  35   0.0000       0.330255         8.9867 
  36   0.0000       0.381119        10.3708 
  37   0.0000       0.402597        10.9552 
  38   0.0000       0.456713        12.4278 
  39   0.0000       0.498835        13.5740 
  40   0.0000       0.509286        13.8584 
  41   0.0000       0.523746        14.2519 
  42   0.0000       0.549324        14.9479 
  43   0.0000       0.564391        15.3579 
  44   0.0000       0.611647        16.6438 
  45   0.0000       0.629752        17.1364 
  46   0.0000       0.647516        17.6198 
  47   0.0000       0.651015        17.7150 
  48   0.0000       0.713159        19.4060 
  49   0.0000       0.724762        19.7218 
  50   0.0000       0.724902        19.7256 
  51   0.0000       0.733733        19.9659 
  52   0.0000       0.771286        20.9878 
  53   0.0000       0.822353        22.3774 
  54   0.0000       0.906335        24.6626 
  55   0.0000       0.955559        26.0021 
  56   0.0000       0.981590        26.7104 
  57   0.0000       0.987529        26.8720 
  58   0.0000       1.021470        27.7956 
  59   0.0000       1.021906        27.8075 
  60   0.0000       1.032788        28.1036 
  61   0.0000       1.048629        28.5346 
  62   0.0000       1.064070        28.9548 
  63   0.0000       1.092576        29.7305 
  64   0.0000       1.130436        30.7607 
  65   0.0000       1.165132        31.7049 
  66   0.0000       1.185688        32.2642 
  67   0.0000       1.312654        35.7191 
  68   0.0000       1.374869        37.4121 
  69   0.0000       1.419363        38.6228 
  70   0.0000       1.486756        40.4567 
  71   0.0000       1.492958        40.6254 
  72   0.0000       1.563351        42.5409 
  73   0.0000       1.687371        45.9157 
  74   0.0000       1.735976        47.2383 
  75   0.0000       1.771992        48.2184 
  76   0.0000       1.789558        48.6964 
  77   0.0000       1.872858        50.9631 
  78   0.0000       1.883417        51.2504 
  79   0.0000       2.026202        55.1358 
  80   0.0000       2.045375        55.6575 
  81   0.0000       2.066642        56.2362 
  82   0.0000       2.085688        56.7545 
  83   0.0000       2.115597        57.5683 
  84   0.0000       2.164476        58.8984 
  85   0.0000       2.193765        59.6954 
  86   0.0000       2.235545        60.8323 
  87   0.0000       2.278567        62.0030 
  88   0.0000       2.321048        63.1589 
  89   0.0000       2.363913        64.3253 
  90   0.0000       2.432476        66.1910 
  91   0.0000       2.456875        66.8550 
  92   0.0000       2.549719        69.3814 
  93   0.0000       2.613894        71.1277 
  94   0.0000       2.710071        73.7448 
  95   0.0000       2.798668        76.1556 
  96   0.0000       2.805438        76.3399 
  97   0.0000       2.880700        78.3878 
  98   0.0000       3.248284        88.3903 
  99   0.0000       3.406539        92.6966 
 100   0.0000      13.306819       362.0970 
 101   0.0000      13.586603       369.7103 
 102   0.0000      13.811982       375.8431 
 103   0.0000      13.965840       380.0298 
 104   0.0000      14.172070       385.6416 
 105   0.0000      14.500852       394.5882 

                    ********************************
                    * MULLIKEN POPULATION ANALYSIS *
                    ********************************

-----------------------
MULLIKEN ATOMIC CHARGES
-----------------------
   0 C :    0.131675
   1 C :   -0.476093
   2 C :    0.095906
   3 C :   -0.291345
   4 C :   -0.767383
   5 C :   -0.481011
   6 H :    0.203046
   7 H :    0.203046
   8 H :    0.221646
   9 H :    0.238031
  10 H :    0.233335
  11 H :    0.229545
  12 H :    0.221570
  13 H :    0.238031
Sum of atomic charges:   -0.0000000

--------------------------------
MULLIKEN REDUCED ORBITAL CHARGES
--------------------------------
  0 C s       :     3.206757  s :     3.206757
      pz      :     0.981375  p :     2.607687
      px      :     0.894083
      py      :     0.732229
      dz2     :     0.003471  d :     0.053881
      dxz     :     0.003084
      dyz     :     0.012760
      dx2y2   :     0.016457
      dxy     :     0.018109
  1 C s       :     3.319356  s :     3.319356
      pz      :     1.144434  p :     3.105735
      px      :     0.860520
      py      :     1.100781
      dz2     :     0.008512  d :     0.051002
      dxz     :     0.024553
      dyz     :     0.000170
      dx2y2   :     0.007035
      dxy     :     0.010731
  2 C s       :     3.232041  s :     3.232041
      pz      :     0.937392  p :     2.617239
      px      :     0.939371
      py      :     0.740476
      dz2     :     0.003376  d :     0.054813
      dxz     :     0.002645
      dyz     :     0.013221
      dx2y2   :     0.017490
      dxy     :     0.018080
  3 C s       :     3.287741  s :     3.287741
      pz      :     0.993903  p :     2.961027
      px      :     1.044952
      py      :     0.922172
      dz2     :     0.003751  d :     0.042577
      dxz     :     0.001935
      dyz     :     0.008226
      dx2y2   :     0.016733
      dxy     :     0.011933
  4 C s       :     3.441466  s :     3.441466
      pz      :     1.145784  p :     3.287677
      px      :     1.124912
      py      :     1.016980
      dz2     :     0.007237  d :     0.038240
      dxz     :     0.002907
      dyz     :     0.011284
      dx2y2   :     0.010545
      dxy     :     0.006267
  5 C s       :     3.339572  s :     3.339572
      pz      :     0.991044  p :     3.108897
      px      :     1.094085
      py      :     1.023767
      dz2     :     0.004101  d :     0.032543
      dxz     :     0.001131
      dyz     :     0.004455
      dx2y2   :     0.012438
      dxy     :     0.010418
  6 H s       :     0.796954  s :     0.796954
  7 H s       :     0.796954  s :     0.796954
  8 H s       :     0.778354  s :     0.778354
  9 H s       :     0.761969  s :     0.761969
 10 H s       :     0.766665  s :     0.766665
 11 H s       :     0.770455  s :     0.770455
 12 H s       :     0.778430  s :     0.778430
 13 H s       :     0.761969  s :     0.761969


                     *******************************
                     * LOEWDIN POPULATION ANALYSIS *
                     *******************************

----------------------
LOEWDIN ATOMIC CHARGES
----------------------
   0 C :   -0.048850
   1 C :   -0.246460
   2 C :   -0.029407
   3 C :   -0.147557
   4 C :   -0.355622
   5 C :   -0.239818
   6 H :    0.110175
   7 H :    0.110175
   8 H :    0.139065
   9 H :    0.147002
  10 H :    0.141616
  11 H :    0.138596
  12 H :    0.134082
  13 H :    0.147002

-------------------------------
LOEWDIN REDUCED ORBITAL CHARGES
-------------------------------
  0 C s       :     2.830285  s :     2.830285
      pz      :     0.972310  p :     3.092963
      px      :     1.032072
      py      :     1.088581
      dz2     :     0.008956  d :     0.125602
      dxz     :     0.006574
      dyz     :     0.023308
      dx2y2   :     0.041065
      dxy     :     0.045698
  1 C s       :     2.899085  s :     2.899085
      pz      :     1.113382  p :     3.245514
      px      :     0.967427
      py      :     1.164705
      dz2     :     0.016352  d :     0.101861
      dxz     :     0.047114
      dyz     :     0.000277
      dx2y2   :     0.017204
      dxy     :     0.020914
  2 C s       :     2.841376  s :     2.841376
      pz      :     0.934086  p :     3.064839
      px      :     1.040313
      py      :     1.090440
      dz2     :     0.008614  d :     0.123193
      dxz     :     0.005777
      dyz     :     0.023341
      dx2y2   :     0.041690
      dxy     :     0.043771
  3 C s       :     2.897029  s :     2.897029
      pz      :     0.977747  p :     3.154060
      px      :     1.089965
      py      :     1.086348
      dz2     :     0.006536  d :     0.096467
      dxz     :     0.003003
      dyz     :     0.016851
      dx2y2   :     0.038836
      dxy     :     0.031241
  4 C s       :     2.940546  s :     2.940546
      pz      :     1.135581  p :     3.341924
      px      :     1.122592
      py      :     1.083751
      dz2     :     0.012912  d :     0.073152
      dxz     :     0.004224
      dyz     :     0.021265
      dx2y2   :     0.021012
      dxy     :     0.013739
  5 C s       :     2.965857  s :     2.965857
      pz      :     0.991415  p :     3.208170
      px      :     1.111608
      py      :     1.105147
      dz2     :     0.005641  d :     0.065790
      dxz     :     0.001929
      dyz     :     0.007578
      dx2y2   :     0.027193
      dxy     :     0.023449
  6 H s       :     0.889825  s :     0.889825
  7 H s       :     0.889825  s :     0.889825
  8 H s       :     0.860935  s :     0.860935
  9 H s       :     0.852998  s :     0.852998
 10 H s       :     0.858384  s :     0.858384
 11 H s       :     0.861404  s :     0.861404
 12 H s       :     0.865918  s :     0.865918
 13 H s       :     0.852998  s :     0.852998


                      *****************************
                      * MAYER POPULATION ANALYSIS *
                      *****************************

  NA   - Mulliken gross atomic population
  ZA   - Total nuclear charge
  QA   - Mulliken gross atomic charge
  VA   - Mayer's total valence
  BVA  - Mayer's bonded valence
  FA   - Mayer's free valence

  ATOM       NA         ZA         QA         VA         BVA        FA
  0 C      5.8683     6.0000     0.1317     3.6359     3.6359    -0.0000
  1 C      6.4761     6.0000    -0.4761     3.7259     3.7259    -0.0000
  2 C      5.9041     6.0000     0.0959     3.5794     3.5794    -0.0000
  3 C      6.2913     6.0000    -0.2913     3.7976     3.7976     0.0000
  4 C      6.7674     6.0000    -0.7674     3.7141     3.7141     0.0000
  5 C      6.4810     6.0000    -0.4810     3.7910     3.7910    -0.0000
  6 H      0.7970     1.0000     0.2030     0.9122     0.9122    -0.0000
  7 H      0.7970     1.0000     0.2030     0.9122     0.9122    -0.0000
  8 H      0.7784     1.0000     0.2216     0.9132     0.9132     0.0000
  9 H      0.7620     1.0000     0.2380     0.9028     0.9028     0.0000
 10 H      0.7667     1.0000     0.2333     0.9077     0.9077     0.0000
 11 H      0.7705     1.0000     0.2295     0.9184     0.9184     0.0000
 12 H      0.7784     1.0000     0.2216     0.9199     0.9199     0.0000
 13 H      0.7620     1.0000     0.2380     0.9028     0.9028    -0.0000

  Mayer bond orders larger than 0.100000
B(  0-C ,  1-C ) :   0.9198 B(  0-C ,  2-C ) :   1.6317 B(  0-C ,  3-C ) :   1.1109 
B(  1-C ,  2-C ) :   0.9458 B(  1-C ,  6-H ) :   0.9125 B(  1-C ,  7-H ) :   0.9125 
B(  2-C ,  4-C ) :   0.9914 B(  2-C ,  5-C ) :   0.1136 B(  3-C ,  5-C ) :   1.8424 
B(  3-C ,  8-H ) :   0.9200 B(  4-C ,  9-H ) :   0.9141 B(  4-C , 10-H ) :   0.9235 
B(  4-C , 13-H ) :   0.9141 B(  5-C , 11-H ) :   0.9255 B(  5-C , 12-H ) :   0.9268 


-------
TIMINGS
-------

Total SCF time: 0 days 0 hours 1 min 2 sec 

Total time                  ....      62.908 sec
Sum of individual times     ....      57.374 sec  ( 91.2%)

Fock matrix formation       ....      48.722 sec  ( 77.5%)
  Split-RI-J                ....       5.582 sec  ( 11.5% of F)
  Chain of spheres X        ....      20.343 sec  ( 41.8% of F)
  XC integration            ....      12.644 sec  ( 26.0% of F)
    Basis function eval.    ....       2.666 sec  ( 21.1% of XC)
    Density eval.           ....       1.482 sec  ( 11.7% of XC)
    XC-Functional eval.     ....       1.384 sec  ( 10.9% of XC)
    XC-Potential eval.      ....       0.795 sec  (  6.3% of XC)
Diagonalization             ....       0.613 sec  (  1.0%)
Density matrix formation    ....       0.029 sec  (  0.0%)
Population analysis         ....       0.697 sec  (  1.1%)
Initial guess               ....       0.008 sec  (  0.0%)
Orbital Transformation      ....       0.000 sec  (  0.0%)
Orbital Orthonormalization  ....       0.000 sec  (  0.0%)
DIIS solution               ....       1.036 sec  (  1.6%)
SOSCF solution              ....       1.921 sec  (  3.1%)
Grid generation             ....       4.348 sec  (  6.9%)

Maximum memory used throughout the entire SCF-calculation: 51.7 MB


-------------------------------------------------------------------------------
                          DFT DISPERSION CORRECTION                            
                                                                               
                              DFTD3 V3.1  Rev 1                                
                          USING Becke-Johnson damping                          
-------------------------------------------------------------------------------
The PBEh-3c composite method is recognized
Using three-body term ABC
Active option DFTDOPT                   ...         4   

molecular C6(AA) [au] = 1831.855503 


            DFT-D V3
 parameters
 s6 scaling factor         :     1.0000 
 a1 scaling factor         :     0.4860 
 s8 scaling factor         :     0.0000 
 a2 scaling factor         :     4.5000 
 Damping factor alpha9(ATM):    16.0000 
 ad hoc parameters k1-k3   :    16.0000     1.3333    -4.0000 

 Edisp/kcal,au: -3.620717068546  -0.005769979310 
 E6   /kcal   :  -3.625085054 
 E8   /kcal   :  -0.000000000 
 E6(ABC)      :   0.004367986 
 % E8         :   0.000000000 
 % E6(ABC)    :  -0.120638695 

-------------------------   ----------------
Dispersion correction           -0.005769979
-------------------------   ----------------

------------------   -----------------
gCP correction             0.014037597
------------------   -----------------

-------------------------   --------------------
FINAL SINGLE POINT ENERGY      -232.828283188807
-------------------------   --------------------


                            ***************************************
                            *     ORCA property calculations      *
                            ***************************************

                                    ---------------------
                                    Active property flags
                                    ---------------------
   (+) Dipole Moment


------------------------------------------------------------------------------
                       ORCA ELECTRIC PROPERTIES CALCULATION
------------------------------------------------------------------------------

Dipole Moment Calculation                       ... on
Quadrupole Moment Calculation                   ... off
Polarizability Calculation                      ... off
GBWName                                         ... pbeh-3c.gbw
Electron density                                ... pbeh-3c.scfp
The origin for moment calculation is the CENTER OF MASS  = ( 0.002838,  0.036795  0.000000)

-------------
DIPOLE MOMENT
-------------
                                X             Y             Z
Electronic contribution:      0.38102       1.43249      -0.00000
Nuclear contribution   :     -0.12488      -1.61899       0.00000
                        -----------------------------------------
Total Dipole Moment    :      0.25614      -0.18651      -0.00000
                        -----------------------------------------
Magnitude (a.u.)       :      0.31684
Magnitude (Debye)      :      0.80535



--------------------
Rotational spectrum 
--------------------
 
Rotational constants in cm-1:     0.322216     0.069098     0.058165 
Rotational constants in MHz :  9659.803922  2071.511469  1743.728967 

 Dipole components along the rotational axes: 
x,y,z [a.u.] :     0.182375    -0.259094    -0.000000 
x,y,z [Debye]:     0.463561    -0.658564    -0.000000 

 

Timings for individual modules:

Sum of individual times         ...       65.842 sec (=   1.097 min)
GTO integral calculation        ...        2.319 sec (=   0.039 min)   3.5 %
SCF iterations                  ...       63.523 sec (=   1.059 min)  96.5 %
                             ****ORCA TERMINATED NORMALLY****
TOTAL RUN TIME: 0 days 0 hours 1 minutes 6 seconds 944 msec
