
                                 *****************
                                 * O   R   C   A *
                                 *****************

                                            #,                                       
                                            ###                                      
                                            ####                                     
                                            #####                                    
                                            ######                                   
                                           ########,                                 
                                     ,,################,,,,,                         
                               ,,#################################,,                 
                          ,,##########################################,,             
                       ,#########################################, ''#####,          
                    ,#############################################,,   '####,        
                  ,##################################################,,,,####,       
                ,###########''''           ''''###############################       
              ,#####''   ,,,,##########,,,,          '''####'''          '####       
            ,##' ,,,,###########################,,,                        '##       
           ' ,,###''''                  '''############,,,                           
         ,,##''                                '''############,,,,        ,,,,,,###''
      ,#''                                            '''#######################'''  
     '                                                          ''''####''''         
             ,#######,   #######,   ,#######,      ##                                
            ,#'     '#,  ##    ##  ,#'     '#,    #''#        ######   ,####,        
            ##       ##  ##   ,#'  ##            #'  '#       #        #'  '#        
            ##       ##  #######   ##           ,######,      #####,   #    #        
            '#,     ,#'  ##    ##  '#,     ,#' ,#      #,         ##   #,  ,#        
             '#######'   ##     ##  '#######'  #'      '#     #####' # '####'        



                  #######################################################
                  #                        -***-                        #
                  #          Department of theory and spectroscopy      #
                  #    Directorship and core code : Frank Neese         #
                  #        Max Planck Institute fuer Kohlenforschung    #
                  #                Kaiser Wilhelm Platz 1               #
                  #                 D-45470 Muelheim/Ruhr               #
                  #                      Germany                        #
                  #                                                     #
                  #                  All rights reserved                #
                  #                        -***-                        #
                  #######################################################


                         Program Version 5.0.3 -  RELEASE  -


 With contributions from (in alphabetic order):
   Daniel Aravena         : Magnetic Suceptibility
   Michael Atanasov       : Ab Initio Ligand Field Theory (pilot matlab implementation)
   Alexander A. Auer      : GIAO ZORA, VPT2 properties, NMR spectrum
   Ute Becker             : Parallelization
   Giovanni Bistoni       : ED, misc. LED, open-shell LED, HFLD
   Martin Brehm           : Molecular dynamics
   Dmytro Bykov           : SCF Hessian
   Vijay G. Chilkuri      : MRCI spin determinant printing, contributions to CSF-ICE
   Dipayan Datta          : RHF DLPNO-CCSD density
   Achintya Kumar Dutta   : EOM-CC, STEOM-CC
   Dmitry Ganyushin       : Spin-Orbit,Spin-Spin,Magnetic field MRCI
   Miquel Garcia          : C-PCM and meta-GGA Hessian, CC/C-PCM, Gaussian charge scheme
   Yang Guo               : DLPNO-NEVPT2, F12-NEVPT2, CIM, IAO-localization
   Andreas Hansen         : Spin unrestricted coupled pair/coupled cluster methods
   Benjamin Helmich-Paris : MC-RPA, TRAH-SCF, COSX integrals
   Lee Huntington         : MR-EOM, pCC
   Robert Izsak           : Overlap fitted RIJCOSX, COSX-SCS-MP3, EOM
   Marcus Kettner         : VPT2
   Christian Kollmar      : KDIIS, OOCD, Brueckner-CCSD(T), CCSD density, CASPT2, CASPT2-K
   Simone Kossmann        : Meta GGA functionals, TD-DFT gradient, OOMP2, MP2 Hessian
   Martin Krupicka        : Initial AUTO-CI
   Lucas Lang             : DCDCAS
   Marvin Lechner         : AUTO-CI (C++ implementation), FIC-MRCC
   Dagmar Lenk            : GEPOL surface, SMD
   Dimitrios Liakos       : Extrapolation schemes; Compound Job, initial MDCI parallelization
   Dimitrios Manganas     : Further ROCIS development; embedding schemes
   Dimitrios Pantazis     : SARC Basis sets
   Anastasios Papadopoulos: AUTO-CI, single reference methods and gradients
   Taras Petrenko         : DFT Hessian,TD-DFT gradient, ASA, ECA, R-Raman, ABS, FL, XAS/XES, NRVS
   Peter Pinski           : DLPNO-MP2, DLPNO-MP2 Gradient
   Christoph Reimann      : Effective Core Potentials
   Marius Retegan         : Local ZFS, SOC
   Christoph Riplinger    : Optimizer, TS searches, QM/MM, DLPNO-CCSD(T), (RO)-DLPNO pert. Triples
   Tobias Risthaus        : Range-separated hybrids, TD-DFT gradient, RPA, STAB
   Michael Roemelt        : Original ROCIS implementation
   Masaaki Saitow         : Open-shell DLPNO-CCSD energy and density
   Barbara Sandhoefer     : DKH picture change effects
   Avijit Sen             : IP-ROCIS
   Kantharuban Sivalingam : CASSCF convergence, NEVPT2, FIC-MRCI
   Bernardo de Souza      : ESD, SOC TD-DFT
   Georgi Stoychev        : AutoAux, RI-MP2 NMR, DLPNO-MP2 response
   Willem Van den Heuvel  : Paramagnetic NMR
   Boris Wezisla          : Elementary symmetry handling
   Frank Wennmohs         : Technical directorship


 We gratefully acknowledge several colleagues who have allowed us to
 interface, adapt or use parts of their codes:
   Stefan Grimme, W. Hujo, H. Kruse, P. Pracht,  : VdW corrections, initial TS optimization,
                  C. Bannwarth, S. Ehlert          DFT functionals, gCP, sTDA/sTD-DF
   Ed Valeev, F. Pavosevic, A. Kumar             : LibInt (2-el integral package), F12 methods
   Garnet Chan, S. Sharma, J. Yang, R. Olivares  : DMRG
   Ulf Ekstrom                                   : XCFun DFT Library
   Mihaly Kallay                                 : mrcc  (arbitrary order and MRCC methods)
   Jiri Pittner, Ondrej Demel                    : Mk-CCSD
   Frank Weinhold                                : gennbo (NPA and NBO analysis)
   Christopher J. Cramer and Donald G. Truhlar   : smd solvation model
   Lars Goerigk                                  : TD-DFT with DH, B97 family of functionals
   V. Asgeirsson, H. Jonsson                     : NEB implementation
   FAccTs GmbH                                   : IRC, NEB, NEB-TS, DLPNO-Multilevel, CI-OPT
                                                   MM, QMMM, 2- and 3-layer-ONIOM, Crystal-QMMM,
                                                   LR-CPCM, SF, NACMEs, symmetry and pop. for TD-DFT,
                                                   nearIR, NL-DFT gradient (VV10), updates on ESD,
                                                   ML-optimized integration grids
   S Lehtola, MJT Oliveira, MAL Marques          : LibXC Library
   Liviu Ungur et al                             : ANISO software


 Your calculation uses the libint2 library for the computation of 2-el integrals
 For citations please refer to: http://libint.valeyev.net

 Your ORCA version has been built with support for libXC version: 5.1.0
 For citations please refer to: https://tddft.org/programs/libxc/

 This ORCA versions uses:
   CBLAS   interface :  Fast vector & matrix operations
   LAPACKE interface :  Fast linear algebra routines
   SCALAPACK package :  Parallel linear algebra routines
   Shared memory     :  Shared parallel matrices
   BLAS/LAPACK       :  OpenBLAS 0.3.15  USE64BITINT DYNAMIC_ARCH NO_AFFINITY Haswell SINGLE_THREADED
        Core in use  :  Haswell
   Copyright (c) 2011-2014, The OpenBLAS Project




***************************************
The coordinates will be read from file: E31.xyz
***************************************


Your calculation utilizes the geometrical counterpoise correction gCP
Please cite in your paper:
H.Kruse, S. Grimme J.Chem.Phys., 136, (2012), 154101 
   

Your calculation utilizes the atom-pairwise dispersion correction
with the Becke-Johnson damping scheme (D3BJ)
Cite in your paper:
S.Grimme, S.Ehrlich, L.Goerigk, J Comput Chem, (2011), 32, 1456–1465 
S.Grimme, J.Antony, S.Ehrlich and H.Krieg, J.Chem.Phys., 132, (2010), 154104 
   

Your calculation employs the composite approach PBEh-3c.
Please cite in your paper:
S. Grimme, J. G. Brandenburg, C. Bannwarth, A. Hansen J.Chem.Phys., 143, (2015), 054107 
   

================================================================================

----- Orbital basis set information -----
Your calculation utilizes the basis: def2-mSVP

----- AuxJ basis set information -----
Your calculation utilizes the auxiliary basis: def2/J
   F. Weigend, Phys. Chem. Chem. Phys. 8, 1057 (2006).

================================================================================
                                        WARNINGS
                       Please study these warnings very carefully!
================================================================================


INFO   : the flag for use of the SHARK integral package has been found!

================================================================================
                                       INPUT FILE
================================================================================
NAME = pbeh-3c.inp
|  1> ! PBEh-3c def2/J TightSCF DefGrid3
|  2> 
|  3> %maxcore 60000
|  4> 
|  5> %pal
|  6> nprocs 4
|  7> end
|  8> 
|  9> *xyzfile 0 1 E31.xyz
| 10> 
| 11>                          ****END OF INPUT****
================================================================================

                       ****************************
                       * Single Point Calculation *
                       ****************************

---------------------------------
CARTESIAN COORDINATES (ANGSTROEM)
---------------------------------
  C      0.222593    1.427998    0.027232
  C     -0.974361    0.497517   -0.130402
  C     -0.416802   -0.873834    0.254089
  C      1.068823   -0.721588   -0.095526
  O      1.364539    0.682606    0.077495
  O      0.233352    2.622704    0.095771
  H     -1.290938    0.536928   -1.177031
  H     -1.804531    0.848232    0.479617
  H     -0.534878   -1.044963    1.325940
  H     -0.881928   -1.704727   -0.275738
  H      1.274952   -0.989513   -1.135531
  H      1.739179   -1.281360    0.554085

----------------------------
CARTESIAN COORDINATES (A.U.)
----------------------------
  NO LB      ZA    FRAG     MASS         X           Y           Z
   0 C     6.0000    0    12.011    0.420639    2.698525    0.051461
   1 C     6.0000    0    12.011   -1.841275    0.940171   -0.246425
   2 C     6.0000    0    12.011   -0.787641   -1.651308    0.480159
   3 C     6.0000    0    12.011    2.019783   -1.363604   -0.180519
   4 O     8.0000    0    15.999    2.578605    1.289939    0.146444
   5 O     8.0000    0    15.999    0.440971    4.956192    0.180980
   6 H     1.0000    0     1.008   -2.439519    1.014646   -2.224266
   7 H     1.0000    0     1.008   -3.410070    1.602926    0.906345
   8 H     1.0000    0     1.008   -1.010774   -1.974694    2.505663
   9 H     1.0000    0     1.008   -1.666602   -3.221468   -0.521069
  10 H     1.0000    0     1.008    2.409310   -1.869908   -2.145843
  11 H     1.0000    0     1.008    3.286572   -2.421419    1.047069

--------------------------------
INTERNAL COORDINATES (ANGSTROEM)
--------------------------------
 C      0   0   0     0.000000000000     0.00000000     0.00000000
 C      1   0   0     1.524250663842     0.00000000     0.00000000
 C      2   1   0     1.529480618666   103.59609653     0.00000000
 C      3   2   1     1.533783040811   101.93452734   332.85864262
 O      1   2   3     1.364616006406   109.11714171    16.38867868
 O      1   2   3     1.196718729321   128.49217376   196.04709850
 H      2   1   3     1.094168955082   107.70648986   240.94139819
 H      2   1   3     1.088258846881   110.14144315   123.75709574
 H      3   2   1     1.091829010679   110.35858904    89.83002427
 H      3   2   1     1.089698057755   113.94358677   211.73315125
 H      4   3   2     1.093564183124   112.02642022   271.78457367
 H      4   3   2     1.088446912734   114.17055814   147.28212002

---------------------------
INTERNAL COORDINATES (A.U.)
---------------------------
 C      0   0   0     0.000000000000     0.00000000     0.00000000
 C      1   0   0     2.880416314109     0.00000000     0.00000000
 C      2   1   0     2.890299496420   103.59609653     0.00000000
 C      3   2   1     2.898429895985   101.93452734   332.85864262
 O      1   2   3     2.578750530072   109.11714171    16.38867868
 O      1   2   3     2.261470657750   128.49217376   196.04709850
 H      2   1   3     2.067679669343   107.70648986   240.94139819
 H      2   1   3     2.056511183421   110.14144315   123.75709574
 H      3   2   1     2.063257815254   110.35858904    89.83002427
 H      3   2   1     2.059230897823   113.94358677   211.73315125
 H      4   3   2     2.066536815969   112.02642022   271.78457367
 H      4   3   2     2.056866576379   114.17055814   147.28212002

---------------------
BASIS SET INFORMATION
---------------------
There are 3 groups of distinct atoms

 Group   1 Type C   : 8s4p1d contracted to 4s2p1d pattern {5111/31/1}
 Group   2 Type O   : 8s4p1d contracted to 4s2p1d pattern {5111/31/1}
 Group   3 Type H   : 4s contracted to 2s pattern {31}

Atom   0C    basis set group =>   1
Atom   1C    basis set group =>   1
Atom   2C    basis set group =>   1
Atom   3C    basis set group =>   1
Atom   4O    basis set group =>   2
Atom   5O    basis set group =>   2
Atom   6H    basis set group =>   3
Atom   7H    basis set group =>   3
Atom   8H    basis set group =>   3
Atom   9H    basis set group =>   3
Atom  10H    basis set group =>   3
Atom  11H    basis set group =>   3
---------------------------------
AUXILIARY/J BASIS SET INFORMATION
---------------------------------
There are 3 groups of distinct atoms

 Group   1 Type C   : 12s5p4d2f1g contracted to 6s4p3d1f1g pattern {711111/2111/211/2/1}
 Group   2 Type O   : 12s5p4d2f1g contracted to 6s4p3d1f1g pattern {711111/2111/211/2/1}
 Group   3 Type H   : 5s2p1d contracted to 3s1p1d pattern {311/2/1}

Atom   0C    basis set group =>   1
Atom   1C    basis set group =>   1
Atom   2C    basis set group =>   1
Atom   3C    basis set group =>   1
Atom   4O    basis set group =>   2
Atom   5O    basis set group =>   2
Atom   6H    basis set group =>   3
Atom   7H    basis set group =>   3
Atom   8H    basis set group =>   3
Atom   9H    basis set group =>   3
Atom  10H    basis set group =>   3
Atom  11H    basis set group =>   3


           ************************************************************
           *        Program running with 4 parallel MPI-processes     *
           *              working on a common directory               *
           ************************************************************
------------------------------------------------------------------------------
                           ORCA GTO INTEGRAL CALCULATION
                           -- RI-GTO INTEGRALS CHOSEN --
------------------------------------------------------------------------------
------------------------------------------------------------------------------
                   ___                                                        
                  /   \      - P O W E R E D   B Y -                         
                 /     \                                                     
                 |  |  |   _    _      __       _____    __    __             
                 |  |  |  | |  | |    /  \     |  _  \  |  |  /  |          
                  \  \/   | |  | |   /    \    | | | |  |  | /  /          
                 / \  \   | |__| |  /  /\  \   | |_| |  |  |/  /          
                |  |  |   |  __  | /  /__\  \  |    /   |      \           
                |  |  |   | |  | | |   __   |  |    \   |  |\   \          
                \     /   | |  | | |  |  |  |  | |\  \  |  | \   \       
                 \___/    |_|  |_| |__|  |__|  |_| \__\ |__|  \__/        
                                                                              
                      - O R C A' S   B I G   F R I E N D -                    
                                      &                                       
                       - I N T E G R A L  F E E D E R -                       
                                                                              
 v1 FN, 2020, v2 2021                                                         
------------------------------------------------------------------------------


Reading SHARK input file pbeh-3c.SHARKINP.tmp ... ok
----------------------
SHARK INTEGRAL PACKAGE
----------------------

Number of atoms                             ...     12
Number of basis functions                   ...    102
Number of shells                            ...     54
Maximum angular momentum                    ...      2
Integral batch strategy                     ... SHARK/LIBINT Hybrid
RI-J (if used) integral strategy            ... SPLIT-RIJ (Revised 2003 algorithm where possible)
Printlevel                                  ...      1
Contraction scheme used                     ... SEGMENTED contraction
Coulomb Range Separation                    ... NOT USED
Exchange Range Separation                   ... NOT USED
Finite Nucleus Model                        ... NOT USED
Auxiliary Coulomb fitting basis             ... AVAILABLE
   # of basis functions in Aux-J            ...    360
   # of shells in Aux-J                     ...    120
   Maximum angular momentum in Aux-J        ...      4
Auxiliary J/K fitting basis                 ... NOT available
Auxiliary Correlation fitting basis         ... NOT available
Auxiliary 'external' fitting basis          ... NOT available
Integral threshold                          ...     2.500000e-11
Primitive cut-off                           ...     2.500000e-12
Primitive pair pre-selection threshold      ...     2.500000e-12

Calculating pre-screening integrals         ... done (  0.1 sec) Dimension = 54
Organizing shell pair data                  ... done (  0.6 sec)
Shell pair information
Total number of shell pairs                 ...      1485
Shell pairs after pre-screening             ...      1417
Total number of primitive shell pairs       ...      5349
Primitive shell pairs kept                  ...      3860
          la=0 lb=0:    609 shell pairs
          la=1 lb=0:    427 shell pairs
          la=1 lb=1:     78 shell pairs
          la=2 lb=0:    210 shell pairs
          la=2 lb=1:     72 shell pairs
          la=2 lb=2:     21 shell pairs

Calculating one electron integrals          ... done (  0.0 sec)
Calculating RI/J V-Matrix + Cholesky decomp.... done (  0.5 sec)
Calculating Nuclear repulsion               ... done (  0.1 sec) ENN=    240.471477935898 Eh

SHARK setup successfully completed in   2.4 seconds

Maximum memory used throughout the entire GTOINT-calculation: 10.1 MB


           ************************************************************
           *        Program running with 4 parallel MPI-processes     *
           *              working on a common directory               *
           ************************************************************
-------------------------------------------------------------------------------
                                 ORCA SCF
-------------------------------------------------------------------------------

------------
SCF SETTINGS
------------
Hamiltonian:
 Density Functional     Method          .... DFT(GTOs)
 Exchange Functional    Exchange        .... PBE
   PBE kappa parameter   XKappa         ....  1.024500
   PBE mue parameter    XMuePBE         ....  0.123457
 Correlation Functional Correlation     .... PBE
   PBE beta parameter  CBetaPBE         ....  0.030000
 LDA part of GGA corr.  LDAOpt          .... PW91-LDA
 Gradients option       PostSCFGGA      .... off
 Hybrid DFT is turned on
   Fraction HF Exchange ScalHFX         ....  0.420000
   Scaling of DF-GGA-X  ScalDFX         ....  0.580000
   Scaling of DF-GGA-C  ScalDFC         ....  1.000000
   Scaling of DF-LDA-C  ScalLDAC        ....  1.000000
   Perturbative correction              ....  0.000000
   Density functional embedding theory  .... OFF
 RI-approximation to the Coulomb term is turned on
   Number of AuxJ basis functions       .... 360
   RIJ-ON(X) (HFX calculated with O(N)) .... on
   Number of AuxJ basis functions       .... 360
   RIJ-COSX (HFX calculated with COS-X)).... on


General Settings:
 Integral files         IntName         .... pbeh-3c
 Hartree-Fock type      HFTyp           .... RHF
 Total Charge           Charge          ....    0
 Multiplicity           Mult            ....    1
 Number of Electrons    NEL             ....   46
 Basis Dimension        Dim             ....  102
 Nuclear Repulsion      ENuc            ....    240.4714779359 Eh

Convergence Acceleration:
 DIIS                   CNVDIIS         .... on
   Start iteration      DIISMaxIt       ....    12
   Startup error        DIISStart       ....  0.200000
   # of expansion vecs  DIISMaxEq       ....     5
   Bias factor          DIISBfac        ....   1.050
   Max. coefficient     DIISMaxC        ....  10.000
 Trust-Rad. Augm. Hess. CNVTRAH         .... auto
   Auto Start mean grad. ratio tolernc. ....  1.125000
   Auto Start start iteration           ....    20
   Auto Start num. interpolation iter.  ....    10
   Max. Number of Micro iterations      ....    16
   Max. Number of Macro iterations      .... Maxiter - #DIIS iter
   Number of Davidson start vectors     ....     2
   Converg. threshold I  (grad. norm)   ....   1.000e-05
   Converg. threshold II (energy diff.) ....   1.000e-08
   Grad. Scal. Fac. for Micro threshold ....   0.100
   Minimum threshold for Micro iter.    ....   0.010
   NR start threshold (gradient norm)   ....   0.001
   Initial trust radius                 ....   0.400
   Minimum AH scaling param. (alpha)    ....   1.000
   Maximum AH scaling param. (alpha)    .... 1000.000
   Orbital update algorithm             .... Taylor
   White noise on init. David. guess    .... on
   Maximum white noise                  ....   0.010
   Quad. conv. algorithm                .... NR
   COSX micro iterations for RIJONX calc.... off
 SOSCF                  CNVSOSCF        .... on
   Start iteration      SOSCFMaxIt      ....   150
   Startup grad/error   SOSCFStart      ....  0.003300
 Level Shifting         CNVShift        .... on
   Level shift para.    LevelShift      ....    0.2500
   Turn off err/grad.   ShiftErr        ....    0.0010
 Zerner damping         CNVZerner       .... off
 Static damping         CNVDamp         .... on
   Fraction old density DampFac         ....    0.7000
   Max. Damping (<1)    DampMax         ....    0.9800
   Min. Damping (>=0)   DampMin         ....    0.0000
   Turn off err/grad.   DampErr         ....    0.1000
 Fernandez-Rico         CNVRico         .... off

SCF Procedure:
 Maximum # iterations   MaxIter         ....   125
 SCF integral mode      SCFMode         .... Direct
   Integral package                     .... SHARK and LIBINT hybrid scheme
 Reset frequency        DirectResetFreq ....    20
 Integral Threshold     Thresh          ....  2.500e-11 Eh
 Primitive CutOff       TCut            ....  2.500e-12 Eh

Convergence Tolerance:
 Convergence Check Mode ConvCheckMode   .... Total+1el-Energy
 Convergence forced     ConvForced      .... 0
 Energy Change          TolE            ....  1.000e-08 Eh
 1-El. energy change                    ....  1.000e-05 Eh
 Orbital Gradient       TolG            ....  1.000e-05
 Orbital Rotation angle TolX            ....  1.000e-05
 DIIS Error             TolErr          ....  5.000e-07


Diagonalization of the overlap matrix:
Smallest eigenvalue                        ... 5.280e-03
Time for diagonalization                   ...    0.002 sec
Threshold for overlap eigenvalues          ... 1.000e-08
Number of eigenvalues below threshold      ... 0
Time for construction of square roots      ...    0.149 sec
Total time needed                          ...    0.190 sec

--------------------------------
INITIAL GUESS: MINIMAL BASIS EHT
--------------------------------
The minimal basis has 36 functions
EHT matrix was diagonalized
Basis set overlap was calculated now projecting the orbitals
Using GuessMode=FMatrix for the initial guess
C*T matrix was formed
Effective Fockian was calculated
Effective Fockian was diagonalized
Initial density was built
                      ------------------
                      INITIAL GUESS DONE
                      ------------------
-------------------
DFT GRID GENERATION
-------------------

General Integration Accuracy     IntAcc      ... 4.959
Radial Grid Type                 RadialGrid  ... OptM3 with GC (2021)
Angular Grid (max. ang.)         AngularGrid ... 6 (Lebedev-590)
Angular grid pruning method      GridPruning ... 4 (adaptive)
Weight generation scheme         WeightScheme... Becke
Basis function cutoff            BFCut       ... 1.0000e-11
Integration weight cutoff        WCut        ... 1.0000e-14
Angular grids for H and He will be reduced by one unit
Partially contracted basis set               ... off
Rotationally invariant grid construction     ... off

Total number of grid points                  ...   138483
Total number of batches                      ...     2170
Average number of points per batch           ...       63
Average number of grid points per atom       ...    11540
Time for grid setup =    3.125 sec

--------------------
COSX GRID GENERATION
--------------------

GRIDX 1
-------
General Integration Accuracy     IntAcc      ... 4.020
Radial Grid Type                 RadialGrid  ... OptM3 with GC (2021)
Angular Grid (max. ang.)         AngularGrid ... 2 (Lebedev-110)
Angular grid pruning method      GridPruning ... 4 (adaptive)
Weight generation scheme         WeightScheme... Becke
Basis function cutoff            BFCut       ... 1.0000e-11
Integration weight cutoff        WCut        ... 1.0000e-14
Angular grids for H and He will be reduced by one unit
Partially contracted basis set               ... on
Rotationally invariant grid construction     ... off

Total number of grid points                  ...    15491
Total number of batches                      ...      249
Average number of points per batch           ...       62
Average number of grid points per atom       ...     1291
UseSFitting                                  ... on

GRIDX 2
-------
General Integration Accuracy     IntAcc      ... 4.338
Radial Grid Type                 RadialGrid  ... OptM3 with GC (2021)
Angular Grid (max. ang.)         AngularGrid ... 3 (Lebedev-194)
Angular grid pruning method      GridPruning ... 4 (adaptive)
Weight generation scheme         WeightScheme... Becke
Basis function cutoff            BFCut       ... 1.0000e-11
Integration weight cutoff        WCut        ... 1.0000e-14
Angular grids for H and He will be reduced by one unit
Partially contracted basis set               ... on
Rotationally invariant grid construction     ... off

Total number of grid points                  ...    34084
Total number of batches                      ...      539
Average number of points per batch           ...       63
Average number of grid points per atom       ...     2840
UseSFitting                                  ... on

GRIDX 3
-------
General Integration Accuracy     IntAcc      ... 4.871
Radial Grid Type                 RadialGrid  ... OptM3 with GC (2021)
Angular Grid (max. ang.)         AngularGrid ... 4 (Lebedev-302)
Angular grid pruning method      GridPruning ... 4 (adaptive)
Weight generation scheme         WeightScheme... Becke
Basis function cutoff            BFCut       ... 1.0000e-11
Integration weight cutoff        WCut        ... 1.0000e-14
Angular grids for H and He will be reduced by one unit
Partially contracted basis set               ... on
Rotationally invariant grid construction     ... off

Total number of grid points                  ...    65204
Total number of batches                      ...     1024
Average number of points per batch           ...       63
Average number of grid points per atom       ...     5434
UseSFitting                                  ... on

Time for X-Grid setup             =    3.028 sec

--------------
SCF ITERATIONS
--------------
ITER       Energy         Delta-E        Max-DP      RMS-DP      [F,P]     Damp
               ***  Starting incremental Fock matrix formation  ***
  0   -304.8723744475   0.000000000000 0.18635212  0.00739609  0.5264891 0.7000
  1   -305.2507937743  -0.378419326791 0.10472172  0.00419987  0.2834814 0.7000
                               ***Turning on DIIS***
  2   -305.4325698986  -0.181776124307 0.04884663  0.00228054  0.1998983 0.7000
  3   -305.5580666349  -0.125496736291 0.03382200  0.00152584  0.1401869 0.7000
  4   -305.6482002546  -0.090133619693 0.07197760  0.00365270  0.0979997 0.0000
  5   -305.8632709616  -0.215070706942 0.01021995  0.00034275  0.0104007 0.0000
  6   -305.8634765246  -0.000205563033 0.00345608  0.00010457  0.0062823 0.0000
                      *** Initiating the SOSCF procedure ***
                           *** Shutting down DIIS ***
                      *** Re-Reading the Fockian *** 
                      *** Removing any level shift *** 
ITER      Energy       Delta-E        Grad      Rot      Max-DP    RMS-DP
  7   -305.86356065  -0.0000841294  0.000573  0.000573  0.001574  0.000047
               *** Restarting incremental Fock matrix formation ***
  8   -305.86357303  -0.0000123785  0.000298  0.000401  0.000937  0.000038
  9   -305.86357343  -0.0000004009  0.000454  0.000553  0.000732  0.000019
 10   -305.86357503  -0.0000016016  0.000027  0.000045  0.000090  0.000004
 11   -305.86357504  -0.0000000040  0.000021  0.000019  0.000041  0.000002
 12   -305.86357506  -0.0000000195  0.000003  0.000006  0.000012  0.000000
 13   -305.86357506  -0.0000000007  0.000003  0.000002  0.000006  0.000000
                  ***Gradient check signals convergence***
              ***Rediagonalizing the Fockian in SOSCF/NRSCF***

               *****************************************************
               *                     SUCCESS                       *
               *           SCF CONVERGED AFTER  14 CYCLES          *
               *****************************************************

Old exchange energy                            =    -16.518405292 Eh
New exchange energy                            =    -16.518401326 Eh
Exchange energy change after final integration =      0.000003965 Eh
Total energy after final integration           =   -305.863571092 Eh
Final COS-X integration done in                =     2.062 sec

----------------
TOTAL SCF ENERGY
----------------

Total Energy       :         -305.86357109 Eh           -8322.97090 eV

Components:
Nuclear Repulsion  :          240.47147794 Eh            6543.56158 eV
Electronic Energy  :         -546.33504903 Eh          -14866.53248 eV
One Electron Energy:         -892.63644427 Eh          -24289.87252 eV
Two Electron Energy:          346.30139524 Eh            9423.34004 eV
Max COSX asymmetry :            0.00000107 Eh               0.00003 eV

Virial components:
Potential Energy   :         -609.46898386 Eh          -16584.49419 eV
Kinetic Energy     :          303.60541277 Eh            8261.52329 eV
Virial Ratio       :            2.00743781


DFT components:
N(Alpha)           :       22.999998756291 electrons
N(Beta)            :       22.999998756291 electrons
N(Total)           :       45.999997512581 electrons
E(X)               :      -21.975003224012 Eh       
E(C)               :       -2.029901355301 Eh       
E(XC)              :      -24.004904579313 Eh       
DFET-embed. en.    :        0.000000000000 Eh       

---------------
SCF CONVERGENCE
---------------

  Last Energy change         ...    1.3491e-09  Tolerance :   1.0000e-08
  Last MAX-Density change    ...    1.7764e-15  Tolerance :   1.0000e-07
  Last RMS-Density change    ...    5.8813e-17  Tolerance :   5.0000e-09
  Last Orbital Gradient      ...    2.4422e-07  Tolerance :   1.0000e-05
  Last Orbital Rotation      ...    5.0196e-07  Tolerance :   1.0000e-05

             **** THE GBW FILE WAS UPDATED (pbeh-3c.gbw) ****
             **** DENSITY pbeh-3c.scfp WAS UPDATED ****
             **** ENERGY FILE WAS UPDATED (pbeh-3c.en.tmp) ****
             **** THE GBW FILE WAS UPDATED (pbeh-3c.gbw) ****
             **** DENSITY pbeh-3c.scfp WAS UPDATED ****
----------------
ORBITAL ENERGIES
----------------

  NO   OCC          E(Eh)            E(eV) 
   0   2.0000     -19.539505      -531.6970 
   1   2.0000     -19.480108      -530.0807 
   2   2.0000     -10.577081      -287.8170 
   3   2.0000     -10.511841      -286.0417 
   4   2.0000     -10.466564      -284.8097 
   5   2.0000     -10.466015      -284.7948 
   6   2.0000      -1.214348       -33.0441 
   7   2.0000      -1.132181       -30.8082 
   8   2.0000      -0.906243       -24.6601 
   9   2.0000      -0.821622       -22.3575 
  10   2.0000      -0.709905       -19.3175 
  11   2.0000      -0.636440       -17.3184 
  12   2.0000      -0.590782       -16.0760 
  13   2.0000      -0.570179       -15.5154 
  14   2.0000      -0.522800       -14.2261 
  15   2.0000      -0.502692       -13.6789 
  16   2.0000      -0.485809       -13.2195 
  17   2.0000      -0.469149       -12.7662 
  18   2.0000      -0.437124       -11.8948 
  19   2.0000      -0.417871       -11.3709 
  20   2.0000      -0.406784       -11.0692 
  21   2.0000      -0.351874        -9.5750 
  22   2.0000      -0.326642        -8.8884 
  23   0.0000       0.044953         1.2232 
  24   0.0000       0.116759         3.1772 
  25   0.0000       0.144796         3.9401 
  26   0.0000       0.155045         4.2190 
  27   0.0000       0.175998         4.7891 
  28   0.0000       0.200762         5.4630 
  29   0.0000       0.210329         5.7233 
  30   0.0000       0.223647         6.0857 
  31   0.0000       0.242996         6.6122 
  32   0.0000       0.258407         7.0316 
  33   0.0000       0.281272         7.6538 
  34   0.0000       0.346662         9.4332 
  35   0.0000       0.415688        11.3114 
  36   0.0000       0.482674        13.1342 
  37   0.0000       0.493783        13.4365 
  38   0.0000       0.511570        13.9205 
  39   0.0000       0.531612        14.4659 
  40   0.0000       0.556531        15.1440 
  41   0.0000       0.584607        15.9080 
  42   0.0000       0.608371        16.5546 
  43   0.0000       0.627326        17.0704 
  44   0.0000       0.658467        17.9178 
  45   0.0000       0.713924        19.4269 
  46   0.0000       0.742595        20.2070 
  47   0.0000       0.759035        20.6544 
  48   0.0000       0.815157        22.1815 
  49   0.0000       0.955029        25.9877 
  50   0.0000       0.962860        26.2007 
  51   0.0000       0.968047        26.3419 
  52   0.0000       0.973231        26.4830 
  53   0.0000       1.006505        27.3884 
  54   0.0000       1.027442        27.9581 
  55   0.0000       1.034153        28.1407 
  56   0.0000       1.100629        29.9496 
  57   0.0000       1.121577        30.5197 
  58   0.0000       1.159843        31.5609 
  59   0.0000       1.184369        32.2283 
  60   0.0000       1.221905        33.2497 
  61   0.0000       1.264304        34.4035 
  62   0.0000       1.390915        37.8487 
  63   0.0000       1.435041        39.0495 
  64   0.0000       1.477844        40.2142 
  65   0.0000       1.547784        42.1173 
  66   0.0000       1.576773        42.9062 
  67   0.0000       1.653476        44.9934 
  68   0.0000       1.749665        47.6108 
  69   0.0000       1.806613        49.1604 
  70   0.0000       1.816420        49.4273 
  71   0.0000       1.838748        50.0349 
  72   0.0000       1.880479        51.1704 
  73   0.0000       1.940474        52.8030 
  74   0.0000       1.977464        53.8095 
  75   0.0000       2.006115        54.5892 
  76   0.0000       2.034770        55.3689 
  77   0.0000       2.056264        55.9538 
  78   0.0000       2.088237        56.8238 
  79   0.0000       2.115685        57.5707 
  80   0.0000       2.171598        59.0922 
  81   0.0000       2.210212        60.1429 
  82   0.0000       2.259351        61.4801 
  83   0.0000       2.343301        63.7645 
  84   0.0000       2.390541        65.0499 
  85   0.0000       2.441181        66.4279 
  86   0.0000       2.494003        67.8653 
  87   0.0000       2.530839        68.8676 
  88   0.0000       2.598061        70.6968 
  89   0.0000       2.673974        72.7625 
  90   0.0000       2.757492        75.0352 
  91   0.0000       2.779617        75.6372 
  92   0.0000       2.817812        76.6766 
  93   0.0000       2.931984        79.7833 
  94   0.0000       3.080224        83.8172 
  95   0.0000       3.241246        88.1988 
  96   0.0000      13.576683       369.4403 
  97   0.0000      13.842613       376.6766 
  98   0.0000      13.958881       379.8405 
  99   0.0000      14.073060       382.9474 
 100   0.0000      25.627598       697.3624 
 101   0.0000      25.779848       701.5053 

                    ********************************
                    * MULLIKEN POPULATION ANALYSIS *
                    ********************************

-----------------------
MULLIKEN ATOMIC CHARGES
-----------------------
   0 C :    0.551480
   1 C :   -0.592008
   2 C :   -0.492393
   3 C :   -0.154291
   4 O :   -0.437025
   5 O :   -0.359390
   6 H :    0.264260
   7 H :    0.276074
   8 H :    0.245542
   9 H :    0.244726
  10 H :    0.218148
  11 H :    0.234876
Sum of atomic charges:    0.0000000

--------------------------------
MULLIKEN REDUCED ORBITAL CHARGES
--------------------------------
  0 C s       :     2.970033  s :     2.970033
      pz      :     0.741084  p :     2.342855
      px      :     0.785270
      py      :     0.816500
      dz2     :     0.007267  d :     0.135632
      dxz     :     0.010137
      dyz     :     0.025919
      dx2y2   :     0.032160
      dxy     :     0.060148
  1 C s       :     3.371330  s :     3.371330
      pz      :     1.183029  p :     3.180293
      px      :     1.062237
      py      :     0.935027
      dz2     :     0.010388  d :     0.040386
      dxz     :     0.006865
      dyz     :     0.004591
      dx2y2   :     0.006375
      dxy     :     0.012166
  2 C s       :     3.344402  s :     3.344402
      pz      :     1.151474  p :     3.106234
      px      :     0.936613
      py      :     1.018147
      dz2     :     0.011898  d :     0.041757
      dxz     :     0.004989
      dyz     :     0.006880
      dx2y2   :     0.010279
      dxy     :     0.007711
  3 C s       :     3.278697  s :     3.278697
      pz      :     1.130323  p :     2.811343
      px      :     0.971590
      py      :     0.709430
      dz2     :     0.013453  d :     0.064251
      dxz     :     0.007820
      dyz     :     0.013344
      dx2y2   :     0.016911
      dxy     :     0.012722
  4 O s       :     3.794480  s :     3.794480
      pz      :     1.759105  p :     4.609924
      px      :     1.564292
      py      :     1.286526
      dz2     :     0.004592  d :     0.032621
      dxz     :     0.005266
      dyz     :     0.003623
      dx2y2   :     0.009257
      dxy     :     0.009883
  5 O s       :     3.751470  s :     3.751470
      pz      :     1.406333  p :     4.576370
      px      :     1.785211
      py      :     1.384826
      dz2     :     0.002747  d :     0.031550
      dxz     :     0.000088
      dyz     :     0.012335
      dx2y2   :     0.008738
      dxy     :     0.007643
  6 H s       :     0.735740  s :     0.735740
  7 H s       :     0.723926  s :     0.723926
  8 H s       :     0.754458  s :     0.754458
  9 H s       :     0.755274  s :     0.755274
 10 H s       :     0.781852  s :     0.781852
 11 H s       :     0.765124  s :     0.765124


                     *******************************
                     * LOEWDIN POPULATION ANALYSIS *
                     *******************************

----------------------
LOEWDIN ATOMIC CHARGES
----------------------
   0 C :    0.146482
   1 C :   -0.283065
   2 C :   -0.257993
   3 C :   -0.068584
   4 O :   -0.182638
   5 O :   -0.192487
   6 H :    0.156638
   7 H :    0.157223
   8 H :    0.137467
   9 H :    0.138155
  10 H :    0.118936
  11 H :    0.129866

-------------------------------
LOEWDIN REDUCED ORBITAL CHARGES
-------------------------------
  0 C s       :     2.841612  s :     2.841612
      pz      :     0.759144  p :     2.706442
      px      :     0.926919
      py      :     1.020379
      dz2     :     0.017577  d :     0.305465
      dxz     :     0.019850
      dyz     :     0.052290
      dx2y2   :     0.070672
      dxy     :     0.145075
  1 C s       :     2.927783  s :     2.927783
      pz      :     1.130263  p :     3.272635
      px      :     1.093137
      py      :     1.049234
      dz2     :     0.018847  d :     0.082647
      dxz     :     0.012680
      dyz     :     0.009311
      dx2y2   :     0.014384
      dxy     :     0.027426
  2 C s       :     2.920656  s :     2.920656
      pz      :     1.125541  p :     3.251741
      px      :     1.052810
      py      :     1.073389
      dz2     :     0.021649  d :     0.085596
      dxz     :     0.010373
      dyz     :     0.013092
      dx2y2   :     0.024161
      dxy     :     0.016321
  3 C s       :     2.920555  s :     2.920555
      pz      :     1.124987  p :     3.015400
      px      :     1.068604
      py      :     0.821809
      dz2     :     0.025673  d :     0.132629
      dxz     :     0.014306
      dyz     :     0.027145
      dx2y2   :     0.038549
      dxy     :     0.026957
  4 O s       :     3.461903  s :     3.461903
      pz      :     1.737886  p :     4.651633
      px      :     1.588902
      py      :     1.324845
      dz2     :     0.008229  d :     0.069101
      dxz     :     0.006375
      dyz     :     0.009442
      dx2y2   :     0.021953
      dxy     :     0.023102
  5 O s       :     3.509483  s :     3.509483
      pz      :     1.394475  p :     4.625149
      px      :     1.755316
      py      :     1.475358
      dz2     :     0.006770  d :     0.057854
      dxz     :     0.000127
      dyz     :     0.016076
      dx2y2   :     0.020892
      dxy     :     0.013990
  6 H s       :     0.843362  s :     0.843362
  7 H s       :     0.842777  s :     0.842777
  8 H s       :     0.862533  s :     0.862533
  9 H s       :     0.861845  s :     0.861845
 10 H s       :     0.881064  s :     0.881064
 11 H s       :     0.870134  s :     0.870134


                      *****************************
                      * MAYER POPULATION ANALYSIS *
                      *****************************

  NA   - Mulliken gross atomic population
  ZA   - Total nuclear charge
  QA   - Mulliken gross atomic charge
  VA   - Mayer's total valence
  BVA  - Mayer's bonded valence
  FA   - Mayer's free valence

  ATOM       NA         ZA         QA         VA         BVA        FA
  0 C      5.4485     6.0000     0.5515     4.0884     4.0884     0.0000
  1 C      6.5920     6.0000    -0.5920     3.6602     3.6602    -0.0000
  2 C      6.4924     6.0000    -0.4924     3.6908     3.6908    -0.0000
  3 C      6.1543     6.0000    -0.1543     3.6662     3.6662     0.0000
  4 O      8.4370     8.0000    -0.4370     2.1321     2.1321    -0.0000
  5 O      8.3594     8.0000    -0.3594     2.2548     2.2548     0.0000
  6 H      0.7357     1.0000     0.2643     0.8920     0.8920     0.0000
  7 H      0.7239     1.0000     0.2761     0.8955     0.8955    -0.0000
  8 H      0.7545     1.0000     0.2455     0.8978     0.8978    -0.0000
  9 H      0.7553     1.0000     0.2447     0.9054     0.9054     0.0000
 10 H      0.7819     1.0000     0.2181     0.9001     0.9001     0.0000
 11 H      0.7651     1.0000     0.2349     0.9043     0.9043     0.0000

  Mayer bond orders larger than 0.100000
B(  0-C ,  1-C ) :   0.9254 B(  0-C ,  4-O ) :   1.0890 B(  0-C ,  5-O ) :   2.1122 
B(  1-C ,  2-C ) :   0.9587 B(  1-C ,  6-H ) :   0.8977 B(  1-C ,  7-H ) :   0.9065 
B(  2-C ,  3-C ) :   0.9535 B(  2-C ,  8-H ) :   0.9136 B(  2-C ,  9-H ) :   0.9175 
B(  3-C ,  4-O ) :   0.9289 B(  3-C , 10-H ) :   0.9056 B(  3-C , 11-H ) :   0.9161 


-------
TIMINGS
-------

Total SCF time: 0 days 0 hours 1 min 9 sec 

Total time                  ....      69.994 sec
Sum of individual times     ....      63.575 sec  ( 90.8%)

Fock matrix formation       ....      53.300 sec  ( 76.1%)
  Split-RI-J                ....       7.300 sec  ( 13.7% of F)
  Chain of spheres X        ....      18.241 sec  ( 34.2% of F)
  XC integration            ....      15.529 sec  ( 29.1% of F)
    Basis function eval.    ....       2.301 sec  ( 14.8% of XC)
    Density eval.           ....       1.383 sec  (  8.9% of XC)
    XC-Functional eval.     ....       1.340 sec  (  8.6% of XC)
    XC-Potential eval.      ....       0.897 sec  (  5.8% of XC)
Diagonalization             ....       0.454 sec  (  0.6%)
Density matrix formation    ....       0.046 sec  (  0.1%)
Population analysis         ....       0.877 sec  (  1.3%)
Initial guess               ....       0.040 sec  (  0.1%)
Orbital Transformation      ....       0.000 sec  (  0.0%)
Orbital Orthonormalization  ....       0.000 sec  (  0.0%)
DIIS solution               ....       2.074 sec  (  3.0%)
SOSCF solution              ....       0.632 sec  (  0.9%)
Grid generation             ....       6.152 sec  (  8.8%)

Maximum memory used throughout the entire SCF-calculation: 50.7 MB


-------------------------------------------------------------------------------
                          DFT DISPERSION CORRECTION                            
                                                                               
                              DFTD3 V3.1  Rev 1                                
                          USING Becke-Johnson damping                          
-------------------------------------------------------------------------------
The PBEh-3c composite method is recognized
Using three-body term ABC
Active option DFTDOPT                   ...         4   

molecular C6(AA) [au] = 1226.382265 


            DFT-D V3
 parameters
 s6 scaling factor         :     1.0000 
 a1 scaling factor         :     0.4860 
 s8 scaling factor         :     0.0000 
 a2 scaling factor         :     4.5000 
 Damping factor alpha9(ATM):    16.0000 
 ad hoc parameters k1-k3   :    16.0000     1.3333    -4.0000 

 Edisp/kcal,au: -3.160006006678  -0.005035789578 
 E6   /kcal   :  -3.170792239 
 E8   /kcal   :  -0.000000000 
 E6(ABC)      :   0.010786232 
 % E8         :   0.000000000 
 % E6(ABC)    :  -0.341335818 

-------------------------   ----------------
Dispersion correction           -0.005035790
-------------------------   ----------------

------------------   -----------------
gCP correction             0.026361625
------------------   -----------------

-------------------------   --------------------
FINAL SINGLE POINT ENERGY      -305.842245256970
-------------------------   --------------------


                            ***************************************
                            *     ORCA property calculations      *
                            ***************************************

                                    ---------------------
                                    Active property flags
                                    ---------------------
   (+) Dipole Moment


------------------------------------------------------------------------------
                       ORCA ELECTRIC PROPERTIES CALCULATION
------------------------------------------------------------------------------

Dipole Moment Calculation                       ... on
Quadrupole Moment Calculation                   ... off
Polarizability Calculation                      ... off
GBWName                                         ... pbeh-3c.gbw
Electron density                                ... pbeh-3c.scfp
The origin for moment calculation is the CENTER OF MASS  = ( 0.501713,  1.167375  0.070393)

-------------
DIPOLE MOMENT
-------------
                                X             Y             Z
Electronic contribution:      2.27403       5.12218       0.26734
Nuclear contribution   :     -2.88423      -6.85738      -0.42275
                        -----------------------------------------
Total Dipole Moment    :     -0.61020      -1.73520      -0.15540
                        -----------------------------------------
Magnitude (a.u.)       :      1.84592
Magnitude (Debye)      :      4.69195



--------------------
Rotational spectrum 
--------------------
 
Rotational constants in cm-1:     0.242806     0.119103     0.084989 
Rotational constants in MHz :  7279.144788  3570.604541  2547.899562 

 Dipole components along the rotational axes: 
x,y,z [a.u.] :    -1.735200    -0.610202    -0.155405 
x,y,z [Debye]:    -4.410528    -1.551011    -0.395007 

 

Timings for individual modules:

Sum of individual times         ...       74.314 sec (=   1.239 min)
GTO integral calculation        ...        3.268 sec (=   0.054 min)   4.4 %
SCF iterations                  ...       71.046 sec (=   1.184 min)  95.6 %
                             ****ORCA TERMINATED NORMALLY****
TOTAL RUN TIME: 0 days 0 hours 1 minutes 16 seconds 342 msec
