
                                 *****************
                                 * O   R   C   A *
                                 *****************

                                            #,                                       
                                            ###                                      
                                            ####                                     
                                            #####                                    
                                            ######                                   
                                           ########,                                 
                                     ,,################,,,,,                         
                               ,,#################################,,                 
                          ,,##########################################,,             
                       ,#########################################, ''#####,          
                    ,#############################################,,   '####,        
                  ,##################################################,,,,####,       
                ,###########''''           ''''###############################       
              ,#####''   ,,,,##########,,,,          '''####'''          '####       
            ,##' ,,,,###########################,,,                        '##       
           ' ,,###''''                  '''############,,,                           
         ,,##''                                '''############,,,,        ,,,,,,###''
      ,#''                                            '''#######################'''  
     '                                                          ''''####''''         
             ,#######,   #######,   ,#######,      ##                                
            ,#'     '#,  ##    ##  ,#'     '#,    #''#        ######   ,####,        
            ##       ##  ##   ,#'  ##            #'  '#       #        #'  '#        
            ##       ##  #######   ##           ,######,      #####,   #    #        
            '#,     ,#'  ##    ##  '#,     ,#' ,#      #,         ##   #,  ,#        
             '#######'   ##     ##  '#######'  #'      '#     #####' # '####'        



                  #######################################################
                  #                        -***-                        #
                  #          Department of theory and spectroscopy      #
                  #    Directorship and core code : Frank Neese         #
                  #        Max Planck Institute fuer Kohlenforschung    #
                  #                Kaiser Wilhelm Platz 1               #
                  #                 D-45470 Muelheim/Ruhr               #
                  #                      Germany                        #
                  #                                                     #
                  #                  All rights reserved                #
                  #                        -***-                        #
                  #######################################################


                         Program Version 5.0.3 -  RELEASE  -


 With contributions from (in alphabetic order):
   Daniel Aravena         : Magnetic Suceptibility
   Michael Atanasov       : Ab Initio Ligand Field Theory (pilot matlab implementation)
   Alexander A. Auer      : GIAO ZORA, VPT2 properties, NMR spectrum
   Ute Becker             : Parallelization
   Giovanni Bistoni       : ED, misc. LED, open-shell LED, HFLD
   Martin Brehm           : Molecular dynamics
   Dmytro Bykov           : SCF Hessian
   Vijay G. Chilkuri      : MRCI spin determinant printing, contributions to CSF-ICE
   Dipayan Datta          : RHF DLPNO-CCSD density
   Achintya Kumar Dutta   : EOM-CC, STEOM-CC
   Dmitry Ganyushin       : Spin-Orbit,Spin-Spin,Magnetic field MRCI
   Miquel Garcia          : C-PCM and meta-GGA Hessian, CC/C-PCM, Gaussian charge scheme
   Yang Guo               : DLPNO-NEVPT2, F12-NEVPT2, CIM, IAO-localization
   Andreas Hansen         : Spin unrestricted coupled pair/coupled cluster methods
   Benjamin Helmich-Paris : MC-RPA, TRAH-SCF, COSX integrals
   Lee Huntington         : MR-EOM, pCC
   Robert Izsak           : Overlap fitted RIJCOSX, COSX-SCS-MP3, EOM
   Marcus Kettner         : VPT2
   Christian Kollmar      : KDIIS, OOCD, Brueckner-CCSD(T), CCSD density, CASPT2, CASPT2-K
   Simone Kossmann        : Meta GGA functionals, TD-DFT gradient, OOMP2, MP2 Hessian
   Martin Krupicka        : Initial AUTO-CI
   Lucas Lang             : DCDCAS
   Marvin Lechner         : AUTO-CI (C++ implementation), FIC-MRCC
   Dagmar Lenk            : GEPOL surface, SMD
   Dimitrios Liakos       : Extrapolation schemes; Compound Job, initial MDCI parallelization
   Dimitrios Manganas     : Further ROCIS development; embedding schemes
   Dimitrios Pantazis     : SARC Basis sets
   Anastasios Papadopoulos: AUTO-CI, single reference methods and gradients
   Taras Petrenko         : DFT Hessian,TD-DFT gradient, ASA, ECA, R-Raman, ABS, FL, XAS/XES, NRVS
   Peter Pinski           : DLPNO-MP2, DLPNO-MP2 Gradient
   Christoph Reimann      : Effective Core Potentials
   Marius Retegan         : Local ZFS, SOC
   Christoph Riplinger    : Optimizer, TS searches, QM/MM, DLPNO-CCSD(T), (RO)-DLPNO pert. Triples
   Tobias Risthaus        : Range-separated hybrids, TD-DFT gradient, RPA, STAB
   Michael Roemelt        : Original ROCIS implementation
   Masaaki Saitow         : Open-shell DLPNO-CCSD energy and density
   Barbara Sandhoefer     : DKH picture change effects
   Avijit Sen             : IP-ROCIS
   Kantharuban Sivalingam : CASSCF convergence, NEVPT2, FIC-MRCI
   Bernardo de Souza      : ESD, SOC TD-DFT
   Georgi Stoychev        : AutoAux, RI-MP2 NMR, DLPNO-MP2 response
   Willem Van den Heuvel  : Paramagnetic NMR
   Boris Wezisla          : Elementary symmetry handling
   Frank Wennmohs         : Technical directorship


 We gratefully acknowledge several colleagues who have allowed us to
 interface, adapt or use parts of their codes:
   Stefan Grimme, W. Hujo, H. Kruse, P. Pracht,  : VdW corrections, initial TS optimization,
                  C. Bannwarth, S. Ehlert          DFT functionals, gCP, sTDA/sTD-DF
   Ed Valeev, F. Pavosevic, A. Kumar             : LibInt (2-el integral package), F12 methods
   Garnet Chan, S. Sharma, J. Yang, R. Olivares  : DMRG
   Ulf Ekstrom                                   : XCFun DFT Library
   Mihaly Kallay                                 : mrcc  (arbitrary order and MRCC methods)
   Jiri Pittner, Ondrej Demel                    : Mk-CCSD
   Frank Weinhold                                : gennbo (NPA and NBO analysis)
   Christopher J. Cramer and Donald G. Truhlar   : smd solvation model
   Lars Goerigk                                  : TD-DFT with DH, B97 family of functionals
   V. Asgeirsson, H. Jonsson                     : NEB implementation
   FAccTs GmbH                                   : IRC, NEB, NEB-TS, DLPNO-Multilevel, CI-OPT
                                                   MM, QMMM, 2- and 3-layer-ONIOM, Crystal-QMMM,
                                                   LR-CPCM, SF, NACMEs, symmetry and pop. for TD-DFT,
                                                   nearIR, NL-DFT gradient (VV10), updates on ESD,
                                                   ML-optimized integration grids
   S Lehtola, MJT Oliveira, MAL Marques          : LibXC Library
   Liviu Ungur et al                             : ANISO software


 Your calculation uses the libint2 library for the computation of 2-el integrals
 For citations please refer to: http://libint.valeyev.net

 Your ORCA version has been built with support for libXC version: 5.1.0
 For citations please refer to: https://tddft.org/programs/libxc/

 This ORCA versions uses:
   CBLAS   interface :  Fast vector & matrix operations
   LAPACKE interface :  Fast linear algebra routines
   SCALAPACK package :  Parallel linear algebra routines
   Shared memory     :  Shared parallel matrices
   BLAS/LAPACK       :  OpenBLAS 0.3.15  USE64BITINT DYNAMIC_ARCH NO_AFFINITY Haswell SINGLE_THREADED
        Core in use  :  Haswell
   Copyright (c) 2011-2014, The OpenBLAS Project




***************************************
The coordinates will be read from file: 7.xyz
***************************************


Your calculation utilizes the geometrical counterpoise correction gCP
Please cite in your paper:
H.Kruse, S. Grimme J.Chem.Phys., 136, (2012), 154101 
   

Your calculation utilizes the atom-pairwise dispersion correction
with the Becke-Johnson damping scheme (D3BJ)
Cite in your paper:
S.Grimme, S.Ehrlich, L.Goerigk, J Comput Chem, (2011), 32, 1456–1465 
S.Grimme, J.Antony, S.Ehrlich and H.Krieg, J.Chem.Phys., 132, (2010), 154104 
   

Your calculation employs the composite approach PBEh-3c.
Please cite in your paper:
S. Grimme, J. G. Brandenburg, C. Bannwarth, A. Hansen J.Chem.Phys., 143, (2015), 054107 
   

================================================================================

----- Orbital basis set information -----
Your calculation utilizes the basis: def2-mSVP

----- AuxJ basis set information -----
Your calculation utilizes the auxiliary basis: def2/J
   F. Weigend, Phys. Chem. Chem. Phys. 8, 1057 (2006).

================================================================================
                                        WARNINGS
                       Please study these warnings very carefully!
================================================================================


INFO   : the flag for use of the SHARK integral package has been found!

================================================================================
                                       INPUT FILE
================================================================================
NAME = pbeh-3c.inp
|  1> ! PBEh-3c def2/J TightSCF DefGrid3
|  2> 
|  3> %maxcore 60000
|  4> 
|  5> %pal
|  6> nprocs 4
|  7> end
|  8> 
|  9> *xyzfile 0 1 7.xyz
| 10> 
| 11>                          ****END OF INPUT****
================================================================================

                       ****************************
                       * Single Point Calculation *
                       ****************************

---------------------------------
CARTESIAN COORDINATES (ANGSTROEM)
---------------------------------
  C     -0.125400    4.288863    0.397010
  C     -1.397951    3.993787   -0.100538
  C     -1.251682    3.574918   -1.493335
  C      0.845272    4.050811   -0.675867
  C      0.147956    3.518731   -1.815082
  C      1.945656    3.365600   -0.119918
  C      0.360189    3.668939    1.599535
  C      1.703786    3.172612    1.319013
  C     -0.522295    2.856533    2.339191
  C     -2.247211    3.046131    0.562166
  C     -1.844840    2.544780    1.808485
  C     -2.090805    2.461639   -1.711188
  C     -2.740233    2.101987   -0.447596
  C     -1.654527    1.433644   -2.561732
  C      0.666768    2.339905   -2.485980
  C     -0.272149    1.376535   -2.970139
  C      2.555994    2.321630   -0.857870
  C      1.943651    1.825652   -2.055777
  C      3.149687    1.188193   -0.180904
  C      2.158652    2.005274    1.927367
  C      2.949469    1.029996    1.187158
  C     -0.035316    1.640682    2.964005
  C      1.296534    1.247268    2.807215
  C     -2.152295    1.174928    2.138747
  C     -1.070097    0.629253    2.910613
  C     -3.043331    0.759294   -0.147818
  C     -2.867705    0.325811    1.245034
  C     -2.114269    0.100752   -2.361143
  C     -2.861828   -0.251495   -1.213783
  C      0.067730   -0.023896   -3.127327
  C     -1.083041   -0.814334   -2.849215
  C      2.280223    0.418843   -2.183574
  C      3.048612    0.024361   -1.039656
  C      1.378487   -0.512820   -2.782578
  C      2.997023   -1.301412   -0.524975
  C      2.678719   -0.293522    1.712652
  C      1.624472   -0.159799    2.676600
  C      2.812416   -1.469295    0.924154
  C     -0.772250   -0.767395    2.908451
  C      0.640575   -1.183933    2.830434
  C     -2.785893   -1.059233    1.521191
  C     -1.771287   -1.617494    2.376344
  C     -2.865416   -1.642193   -0.868310
  C     -2.999846   -2.011680    0.471769
  C     -0.993079   -2.172958   -2.420024
  C     -1.970251   -2.638586   -1.502916
  C      1.507653   -1.869393   -2.427868
  C      2.415187   -2.283853   -1.391997
  C      0.329992   -2.766839   -2.375781
  C      1.905997   -3.512085   -0.862980
  C      0.608031   -3.817337   -1.496165
  C      2.097574   -2.615864    1.403535
  C      0.968535   -2.448170    2.285005
  C      1.763065   -3.680020    0.503605
  C     -1.429532   -2.954517    1.861924
  C     -2.217282   -3.212613    0.718023
  C     -1.637646   -3.658907   -0.516066
  C     -0.335254   -4.204844   -0.475512
  C     -0.084768   -3.397516    1.869611
  C      0.389575   -4.145351    0.774776

----------------------------
CARTESIAN COORDINATES (A.U.)
----------------------------
  NO LB      ZA    FRAG     MASS         X           Y           Z
   0 C     6.0000    0    12.011   -0.236973    8.104777    0.750241
   1 C     6.0000    0    12.011   -2.641745    7.547163   -0.189989
   2 C     6.0000    0    12.011   -2.365336    6.755616   -2.821994
   3 C     6.0000    0    12.011    1.597334    7.654923   -1.277203
   4 C     6.0000    0    12.011    0.279597    6.649437   -3.430008
   5 C     6.0000    0    12.011    3.676758    6.360062   -0.226611
   6 C     6.0000    0    12.011    0.680658    6.933290    3.022682
   7 C     6.0000    0    12.011    3.219689    5.995369    2.492573
   8 C     6.0000    0    12.011   -0.986995    5.398066    4.420431
   9 C     6.0000    0    12.011   -4.246614    5.756354    1.062340
  10 C     6.0000    0    12.011   -3.486242    4.808937    3.417542
  11 C     6.0000    0    12.011   -3.951049    4.651824   -3.233676
  12 C     6.0000    0    12.011   -5.178290    3.972181   -0.845835
  13 C     6.0000    0    12.011   -3.126603    2.709194   -4.840972
  14 C     6.0000    0    12.011    1.260009    4.421780   -4.697821
  15 C     6.0000    0    12.011   -0.514287    2.601275   -5.612749
  16 C     6.0000    0    12.011    4.830129    4.387245   -1.621140
  17 C     6.0000    0    12.011    3.672968    3.449982   -3.884856
  18 C     6.0000    0    12.011    5.952045    2.245359   -0.341859
  19 C     6.0000    0    12.011    4.079261    3.789419    3.642197
  20 C     6.0000    0    12.011    5.573688    1.946410    2.243404
  21 C     6.0000    0    12.011   -0.066738    3.100440    5.601157
  22 C     6.0000    0    12.011    2.450094    2.356995    5.304868
  23 C     6.0000    0    12.011   -4.067248    2.220292    4.041647
  24 C     6.0000    0    12.011   -2.022190    1.189116    5.500262
  25 C     6.0000    0    12.011   -5.751063    1.434858   -0.279336
  26 C     6.0000    0    12.011   -5.419178    0.615694    2.352773
  27 C     6.0000    0    12.011   -3.995389    0.190393   -4.461913
  28 C     6.0000    0    12.011   -5.408072   -0.475257   -2.293718
  29 C     6.0000    0    12.011    0.127991   -0.045156   -5.909792
  30 C     6.0000    0    12.011   -2.046651   -1.538868   -5.384236
  31 C     6.0000    0    12.011    4.308998    0.791498   -4.126357
  32 C     6.0000    0    12.011    5.761043    0.046036   -1.964665
  33 C     6.0000    0    12.011    2.604964   -0.969089   -5.258310
  34 C     6.0000    0    12.011    5.663553   -2.459313   -0.992059
  35 C     6.0000    0    12.011    5.062046   -0.554675    3.236442
  36 C     6.0000    0    12.011    3.069807   -0.301976    5.058041
  37 C     6.0000    0    12.011    5.314695   -2.776564    1.746397
  38 C     6.0000    0    12.011   -1.459340   -1.450167    5.496175
  39 C     6.0000    0    12.011    1.210511   -2.237309    5.348745
  40 C     6.0000    0    12.011   -5.264574   -2.001660    2.874634
  41 C     6.0000    0    12.011   -3.347247   -3.056620    4.490639
  42 C     6.0000    0    12.011   -5.414852   -3.103296   -1.640868
  43 C     6.0000    0    12.011   -5.668888   -3.801525    0.891514
  44 C     6.0000    0    12.011   -1.876647   -4.106295   -4.573183
  45 C     6.0000    0    12.011   -3.723235   -4.986205   -2.840100
  46 C     6.0000    0    12.011    2.849052   -3.532640   -4.588005
  47 C     6.0000    0    12.011    4.564043   -4.315857   -2.630493
  48 C     6.0000    0    12.011    0.623594   -5.228568   -4.489575
  49 C     6.0000    0    12.011    3.601811   -6.636879   -1.630797
  50 C     6.0000    0    12.011    1.149012   -7.213721   -2.827342
  51 C     6.0000    0    12.011    3.963840   -4.943268    2.652297
  52 C     6.0000    0    12.011    1.830267   -4.626371    4.318034
  53 C     6.0000    0    12.011    3.331709   -6.954231    0.951676
  54 C     6.0000    0    12.011   -2.701424   -5.583228    3.518527
  55 C     6.0000    0    12.011   -4.190055   -6.070960    1.356867
  56 C     6.0000    0    12.011   -3.094703   -6.914332   -0.975224
  57 C     6.0000    0    12.011   -0.633537   -7.946004   -0.898588
  58 C     6.0000    0    12.011   -0.160189   -6.420374    3.533052
  59 C     6.0000    0    12.011    0.736189   -7.833578    1.464114

--------------------------------
INTERNAL COORDINATES (ANGSTROEM)
--------------------------------
 C      0   0   0     0.000000000000     0.00000000     0.00000000
 C      1   0   0     1.397859333705     0.00000000     0.00000000
 C      2   1   0     1.461755398858   107.97121922     0.00000000
 C      1   2   3     1.466267232957   107.93555128   359.62597408
 C      3   2   1     1.437242622281   108.78100247     4.37645950
 C      4   1   2     1.410474414982   107.87409346   223.80876166
 C      1   2   3     1.437417024032   120.94866117   233.86492927
 C      7   1   2     1.459550229438   107.26853025   131.73531727
 C      7   1   2     1.409209834972   118.43620272   353.87354772
 C      2   1   3     1.434736959800   120.92304148   125.05000748
 C     10   2   1     1.402343551928   118.47703178     7.79420431
 C      3   2   1     1.411019633341   108.28168006   137.51800895
 C     12   3   2     1.465526915103   108.90707583   357.17208173
 C     12   3   2     1.403759290192   119.11152741   216.63988672
 C      5   3   2     1.452205012357   118.88589816   131.84569053
 C     15   5   3     1.429704884018   117.95677102     9.01508304
 C      6   4   1     1.416672008430   119.26081337   139.99283233
 C     17   6   4     1.433855055877   120.40460241   350.36163347
 C     17   6   4     1.447561309239   120.67005310   212.14353450
 C      8   7   1     1.392722782870   120.11417515   213.56419817
 C     19  17   6     1.391656952928   119.32298605     9.28104661
 C      9   7   1     1.451149225774   119.92477907   141.61276723
 C     22   9   7     1.397563375190   120.48777813   358.19614859
 C     11  10   2     1.442253728388   118.81015925   215.17950132
 C     24  11  10     1.436903096785   108.85338834   144.31858353
 C     13  12   3     1.408744114317   120.84526055   213.03137257
 C     24  11  10     1.425319245119   121.95467145   359.08101864
 C     14  12   3     1.424148716777   119.98148718   151.57717564
 C     28  14  12     1.413986063862   121.20583563   351.35681903
 C     16  15   5     1.449631850698   122.25582450   206.61141307
 C     30  16  15     1.423521255964   109.00819344   146.28185186
 C     18  17   6     1.452144676841   108.03799637   211.00735802
 C     32  18  17     1.433382848380   108.70117432     2.56079739
 C     32  18  17     1.428260552440   121.50126315   147.51178052
 C     33  32  18     1.423106960218   121.70720666   149.42260922
 C     21  19  17     1.449533379784   119.14652528   138.38979094
 C     36  21  19     1.434753200476   107.20027866   222.86084371
 C     36  21  19     1.421986572794   122.43795224    10.01187076
 C     25  24  11     1.428056309860   121.84843152   207.41635382
 C     37  36  21     1.428484802223   120.77282921   144.83770385
 C     27  24  11     1.414674102708   115.58385090   163.49172922
 C     39  25  24     1.415584599110   116.14820631   345.41307599
 C     29  28  14     1.432970755581   116.02219758   201.36771521
 C     43  29  28     1.396568734276   119.23158949   150.29980200
 C     31  30  16     1.427640351697   122.42664775   204.38060655
 C     45  31  30     1.418718238481   117.59842248   145.56006268
 C     34  32  18     1.408116981718   117.70165306   204.02380670
 C     35  33  32     1.433684273321   115.74621353    15.08238140
 C     45  31  30     1.450919861400   117.13928619   355.21430796
 C     48  35  33     1.430974061581   120.59771455   200.73152531
 C     49  45  31     1.398060994162   120.53689368   153.33920934
 C     38  36  21     1.433676327661   115.40269225   200.41958786
 C     40  37  36     1.415396410965   116.05781241    17.24665220
 C     50  48  35     1.384264260998   120.38708613    10.75860466
 C     42  39  25     1.472771065379   120.84411260   157.27022345
 C     55  42  39     1.412682825486   108.62022385   217.68064953
 C     56  55  42     1.434618984715   121.87635688   129.14494098
 C     57  56  55     1.412770012764   117.90382156    17.97165883
 C     55  42  39     1.415873059139   120.16818312   358.74697780
 C     59  55  42     1.408162781700   118.80796434   218.88424414

---------------------------
INTERNAL COORDINATES (A.U.)
---------------------------
 C      0   0   0     0.000000000000     0.00000000     0.00000000
 C      1   0   0     2.641571314448     0.00000000     0.00000000
 C      2   1   0     2.762317378623   107.97121922     0.00000000
 C      1   2   3     2.770843509431   107.93555128   359.62597408
 C      3   2   1     2.715994944109   108.78100247     4.37645950
 C      4   1   2     2.665410363219   107.87409346   223.80876166
 C      1   2   3     2.716324515657   120.94866117   233.86492927
 C      7   1   2     2.758150212340   107.26853025   131.73531727
 C      7   1   2     2.663020653326   118.43620272   353.87354772
 C      2   1   3     2.711259928236   120.92304148   125.05000748
 C     10   2   1     2.650045258814   118.47703178     7.79420431
 C      3   2   1     2.666440676600   108.28168006   137.51800895
 C     12   3   2     2.769444511435   108.90707583   357.17208173
 C     12   3   2     2.652720616410   119.11152741   216.63988672
 C      5   3   2     2.744269763662   118.88589816   131.84569053
 C     15   5   3     2.701750683123   117.95677102     9.01508304
 C      6   4   1     2.677122117526   119.26081337   139.99283233
 C     17   6   4     2.709593371346   120.40460241   350.36163347
 C     17   6   4     2.735494436522   120.67005310   212.14353450
 C      8   7   1     2.631864640097   120.11417515   213.56419817
 C     19  17   6     2.629850513402   119.32298605     9.28104661
 C      9   7   1     2.742274616164   119.92477907   141.61276723
 C     22   9   7     2.641012033908   120.48777813   358.19614859
 C     11  10   2     2.725464562279   118.81015925   215.17950132
 C     24  11  10     2.715353333907   108.85338834   144.31858353
 C     13  12   3     2.662140568833   120.84526055   213.03137257
 C     24  11  10     2.693463026682   121.95467145   359.08101864
 C     14  12   3     2.691251048685   119.98148718   151.57717564
 C     28  14  12     2.672046417880   121.20583563   351.35681903
 C     16  15   5     2.739407192829   122.25582450   206.61141307
 C     30  16  15     2.690065319588   109.00819344   146.28185186
 C     18  17   6     2.744155746061   108.03799637   211.00735802
 C     32  18  17     2.708701028497   108.70117432     2.56079739
 C     32  18  17     2.699021291994   121.50126315   147.51178052
 C     33  32  18     2.689282414089   121.70720666   149.42260922
 C     21  19  17     2.739221109769   119.14652528   138.38979094
 C     36  21  19     2.711290618667   107.20027866   222.86084371
 C     36  21  19     2.687165188694   122.43795224    10.01187076
 C     25  24  11     2.698635329453   121.84843152   207.41635382
 C     37  36  21     2.699445062669   120.77282921   144.83770385
 C     27  24  11     2.673346622869   115.58385090   163.49172922
 C     39  25  24     2.675067211714   116.14820631   345.41307599
 C     29  28  14     2.707922285966   116.02219758   201.36771521
 C     43  29  28     2.639132434979   119.23158949   150.29980200
 C     31  30  16     2.697849282443   122.42664775   204.38060655
 C     45  31  30     2.680988931928   117.59842248   145.56006268
 C     34  32  18     2.660955459971   117.70165306   204.02380670
 C     35  33  32     2.709270639087   115.74621353    15.08238140
 C     45  31  30     2.741841180312   117.13928619   355.21430796
 C     48  35  33     2.704149081133   120.59771455   200.73152531
 C     49  45  31     2.641952397485   120.53689368   153.33920934
 C     38  36  21     2.709255623965   115.40269225   200.41958786
 C     40  37  36     2.674711587659   116.05781241    17.24665220
 C     50  48  35     2.615880350262   120.38708613    10.75860466
 C     42  39  25     2.783133971529   120.84411260   157.27022345
 C     55  42  39     2.669583654262   108.62022385   217.68064953
 C     56  55  42     2.711036987635   121.87635688   129.14494098
 C     57  56  55     2.669748414341   117.90382156    17.97165883
 C     55  42  39     2.675612322170   120.16818312   358.74697780
 C     59  55  42     2.661042009393   118.80796434   218.88424414

---------------------
BASIS SET INFORMATION
---------------------
There are 1 groups of distinct atoms

 Group   1 Type C   : 8s4p1d contracted to 4s2p1d pattern {5111/31/1}

Atom   0C    basis set group =>   1
Atom   1C    basis set group =>   1
Atom   2C    basis set group =>   1
Atom   3C    basis set group =>   1
Atom   4C    basis set group =>   1
Atom   5C    basis set group =>   1
Atom   6C    basis set group =>   1
Atom   7C    basis set group =>   1
Atom   8C    basis set group =>   1
Atom   9C    basis set group =>   1
Atom  10C    basis set group =>   1
Atom  11C    basis set group =>   1
Atom  12C    basis set group =>   1
Atom  13C    basis set group =>   1
Atom  14C    basis set group =>   1
Atom  15C    basis set group =>   1
Atom  16C    basis set group =>   1
Atom  17C    basis set group =>   1
Atom  18C    basis set group =>   1
Atom  19C    basis set group =>   1
Atom  20C    basis set group =>   1
Atom  21C    basis set group =>   1
Atom  22C    basis set group =>   1
Atom  23C    basis set group =>   1
Atom  24C    basis set group =>   1
Atom  25C    basis set group =>   1
Atom  26C    basis set group =>   1
Atom  27C    basis set group =>   1
Atom  28C    basis set group =>   1
Atom  29C    basis set group =>   1
Atom  30C    basis set group =>   1
Atom  31C    basis set group =>   1
Atom  32C    basis set group =>   1
Atom  33C    basis set group =>   1
Atom  34C    basis set group =>   1
Atom  35C    basis set group =>   1
Atom  36C    basis set group =>   1
Atom  37C    basis set group =>   1
Atom  38C    basis set group =>   1
Atom  39C    basis set group =>   1
Atom  40C    basis set group =>   1
Atom  41C    basis set group =>   1
Atom  42C    basis set group =>   1
Atom  43C    basis set group =>   1
Atom  44C    basis set group =>   1
Atom  45C    basis set group =>   1
Atom  46C    basis set group =>   1
Atom  47C    basis set group =>   1
Atom  48C    basis set group =>   1
Atom  49C    basis set group =>   1
Atom  50C    basis set group =>   1
Atom  51C    basis set group =>   1
Atom  52C    basis set group =>   1
Atom  53C    basis set group =>   1
Atom  54C    basis set group =>   1
Atom  55C    basis set group =>   1
Atom  56C    basis set group =>   1
Atom  57C    basis set group =>   1
Atom  58C    basis set group =>   1
Atom  59C    basis set group =>   1
---------------------------------
AUXILIARY/J BASIS SET INFORMATION
---------------------------------
There are 1 groups of distinct atoms

 Group   1 Type C   : 12s5p4d2f1g contracted to 6s4p3d1f1g pattern {711111/2111/211/2/1}

Atom   0C    basis set group =>   1
Atom   1C    basis set group =>   1
Atom   2C    basis set group =>   1
Atom   3C    basis set group =>   1
Atom   4C    basis set group =>   1
Atom   5C    basis set group =>   1
Atom   6C    basis set group =>   1
Atom   7C    basis set group =>   1
Atom   8C    basis set group =>   1
Atom   9C    basis set group =>   1
Atom  10C    basis set group =>   1
Atom  11C    basis set group =>   1
Atom  12C    basis set group =>   1
Atom  13C    basis set group =>   1
Atom  14C    basis set group =>   1
Atom  15C    basis set group =>   1
Atom  16C    basis set group =>   1
Atom  17C    basis set group =>   1
Atom  18C    basis set group =>   1
Atom  19C    basis set group =>   1
Atom  20C    basis set group =>   1
Atom  21C    basis set group =>   1
Atom  22C    basis set group =>   1
Atom  23C    basis set group =>   1
Atom  24C    basis set group =>   1
Atom  25C    basis set group =>   1
Atom  26C    basis set group =>   1
Atom  27C    basis set group =>   1
Atom  28C    basis set group =>   1
Atom  29C    basis set group =>   1
Atom  30C    basis set group =>   1
Atom  31C    basis set group =>   1
Atom  32C    basis set group =>   1
Atom  33C    basis set group =>   1
Atom  34C    basis set group =>   1
Atom  35C    basis set group =>   1
Atom  36C    basis set group =>   1
Atom  37C    basis set group =>   1
Atom  38C    basis set group =>   1
Atom  39C    basis set group =>   1
Atom  40C    basis set group =>   1
Atom  41C    basis set group =>   1
Atom  42C    basis set group =>   1
Atom  43C    basis set group =>   1
Atom  44C    basis set group =>   1
Atom  45C    basis set group =>   1
Atom  46C    basis set group =>   1
Atom  47C    basis set group =>   1
Atom  48C    basis set group =>   1
Atom  49C    basis set group =>   1
Atom  50C    basis set group =>   1
Atom  51C    basis set group =>   1
Atom  52C    basis set group =>   1
Atom  53C    basis set group =>   1
Atom  54C    basis set group =>   1
Atom  55C    basis set group =>   1
Atom  56C    basis set group =>   1
Atom  57C    basis set group =>   1
Atom  58C    basis set group =>   1
Atom  59C    basis set group =>   1


           ************************************************************
           *        Program running with 4 parallel MPI-processes     *
           *              working on a common directory               *
           ************************************************************
------------------------------------------------------------------------------
                           ORCA GTO INTEGRAL CALCULATION
                           -- RI-GTO INTEGRALS CHOSEN --
------------------------------------------------------------------------------
------------------------------------------------------------------------------
                   ___                                                        
                  /   \      - P O W E R E D   B Y -                         
                 /     \                                                     
                 |  |  |   _    _      __       _____    __    __             
                 |  |  |  | |  | |    /  \     |  _  \  |  |  /  |          
                  \  \/   | |  | |   /    \    | | | |  |  | /  /          
                 / \  \   | |__| |  /  /\  \   | |_| |  |  |/  /          
                |  |  |   |  __  | /  /__\  \  |    /   |      \           
                |  |  |   | |  | | |   __   |  |    \   |  |\   \          
                \     /   | |  | | |  |  |  |  | |\  \  |  | \   \       
                 \___/    |_|  |_| |__|  |__|  |_| \__\ |__|  \__/        
                                                                              
                      - O R C A' S   B I G   F R I E N D -                    
                                      &                                       
                       - I N T E G R A L  F E E D E R -                       
                                                                              
 v1 FN, 2020, v2 2021                                                         
------------------------------------------------------------------------------


Reading SHARK input file pbeh-3c.SHARKINP.tmp ... ok
----------------------
SHARK INTEGRAL PACKAGE
----------------------

Number of atoms                             ...     60
Number of basis functions                   ...    900
Number of shells                            ...    420
Maximum angular momentum                    ...      2
Integral batch strategy                     ... SHARK/LIBINT Hybrid
RI-J (if used) integral strategy            ... SPLIT-RIJ (Revised 2003 algorithm where possible)
Printlevel                                  ...      1
Contraction scheme used                     ... SEGMENTED contraction
Coulomb Range Separation                    ... NOT USED
Exchange Range Separation                   ... NOT USED
Finite Nucleus Model                        ... NOT USED
Auxiliary Coulomb fitting basis             ... AVAILABLE
   # of basis functions in Aux-J            ...   2940
   # of shells in Aux-J                     ...    900
   Maximum angular momentum in Aux-J        ...      4
Auxiliary J/K fitting basis                 ... NOT available
Auxiliary Correlation fitting basis         ... NOT available
Auxiliary 'external' fitting basis          ... NOT available
Integral threshold                          ...     2.500000e-11
Primitive cut-off                           ...     2.500000e-12
Primitive pair pre-selection threshold      ...     2.500000e-12

Calculating pre-screening integrals         ... done (  0.1 sec) Dimension = 420
Organizing shell pair data                  ... done (  3.1 sec)
Shell pair information
Total number of shell pairs                 ...     88410
Shell pairs after pre-screening             ...     56300
Total number of primitive shell pairs       ...    305370
Primitive shell pairs kept                  ...    117502
          la=0 lb=0:  14779 shell pairs
          la=1 lb=0:  21698 shell pairs
          la=1 lb=1:   6549 shell pairs
          la=2 lb=0:   6872 shell pairs
          la=2 lb=1:   5516 shell pairs
          la=2 lb=2:    886 shell pairs

Calculating one electron integrals          ... done (  0.3 sec)
Calculating RI/J V-Matrix + Cholesky decomp.... done (  4.6 sec)
Calculating Nuclear repulsion               ... done (  0.0 sec) ENN=   8318.298313764162 Eh

SHARK setup successfully completed in  14.4 seconds

Maximum memory used throughout the entire GTOINT-calculation: 115.3 MB


           ************************************************************
           *        Program running with 4 parallel MPI-processes     *
           *              working on a common directory               *
           ************************************************************
-------------------------------------------------------------------------------
                                 ORCA SCF
-------------------------------------------------------------------------------

------------
SCF SETTINGS
------------
Hamiltonian:
 Density Functional     Method          .... DFT(GTOs)
 Exchange Functional    Exchange        .... PBE
   PBE kappa parameter   XKappa         ....  1.024500
   PBE mue parameter    XMuePBE         ....  0.123457
 Correlation Functional Correlation     .... PBE
   PBE beta parameter  CBetaPBE         ....  0.030000
 LDA part of GGA corr.  LDAOpt          .... PW91-LDA
 Gradients option       PostSCFGGA      .... off
 Hybrid DFT is turned on
   Fraction HF Exchange ScalHFX         ....  0.420000
   Scaling of DF-GGA-X  ScalDFX         ....  0.580000
   Scaling of DF-GGA-C  ScalDFC         ....  1.000000
   Scaling of DF-LDA-C  ScalLDAC        ....  1.000000
   Perturbative correction              ....  0.000000
   Density functional embedding theory  .... OFF
 RI-approximation to the Coulomb term is turned on
   Number of AuxJ basis functions       .... 2940
   RIJ-ON(X) (HFX calculated with O(N)) .... on
   Number of AuxJ basis functions       .... 2940
   RIJ-COSX (HFX calculated with COS-X)).... on


General Settings:
 Integral files         IntName         .... pbeh-3c
 Hartree-Fock type      HFTyp           .... RHF
 Total Charge           Charge          ....    0
 Multiplicity           Mult            ....    1
 Number of Electrons    NEL             ....  360
 Basis Dimension        Dim             ....  900
 Nuclear Repulsion      ENuc            ....   8318.2983137642 Eh

Convergence Acceleration:
 DIIS                   CNVDIIS         .... on
   Start iteration      DIISMaxIt       ....    12
   Startup error        DIISStart       ....  0.200000
   # of expansion vecs  DIISMaxEq       ....     5
   Bias factor          DIISBfac        ....   1.050
   Max. coefficient     DIISMaxC        ....  10.000
 Trust-Rad. Augm. Hess. CNVTRAH         .... auto
   Auto Start mean grad. ratio tolernc. ....  1.125000
   Auto Start start iteration           ....    20
   Auto Start num. interpolation iter.  ....    10
   Max. Number of Micro iterations      ....    16
   Max. Number of Macro iterations      .... Maxiter - #DIIS iter
   Number of Davidson start vectors     ....     2
   Converg. threshold I  (grad. norm)   ....   1.000e-05
   Converg. threshold II (energy diff.) ....   1.000e-08
   Grad. Scal. Fac. for Micro threshold ....   0.100
   Minimum threshold for Micro iter.    ....   0.010
   NR start threshold (gradient norm)   ....   0.001
   Initial trust radius                 ....   0.400
   Minimum AH scaling param. (alpha)    ....   1.000
   Maximum AH scaling param. (alpha)    .... 1000.000
   Orbital update algorithm             .... Taylor
   White noise on init. David. guess    .... on
   Maximum white noise                  ....   0.010
   Quad. conv. algorithm                .... NR
   COSX micro iterations for RIJONX calc.... off
 SOSCF                  CNVSOSCF        .... on
   Start iteration      SOSCFMaxIt      ....   150
   Startup grad/error   SOSCFStart      ....  0.003300
 Level Shifting         CNVShift        .... on
   Level shift para.    LevelShift      ....    0.2500
   Turn off err/grad.   ShiftErr        ....    0.0010
 Zerner damping         CNVZerner       .... off
 Static damping         CNVDamp         .... on
   Fraction old density DampFac         ....    0.7000
   Max. Damping (<1)    DampMax         ....    0.9800
   Min. Damping (>=0)   DampMin         ....    0.0000
   Turn off err/grad.   DampErr         ....    0.1000
 Fernandez-Rico         CNVRico         .... off

SCF Procedure:
 Maximum # iterations   MaxIter         ....   125
 SCF integral mode      SCFMode         .... Direct
   Integral package                     .... SHARK and LIBINT hybrid scheme
 Reset frequency        DirectResetFreq ....    20
 Integral Threshold     Thresh          ....  2.500e-11 Eh
 Primitive CutOff       TCut            ....  2.500e-12 Eh

Convergence Tolerance:
 Convergence Check Mode ConvCheckMode   .... Total+1el-Energy
 Convergence forced     ConvForced      .... 0
 Energy Change          TolE            ....  1.000e-08 Eh
 1-El. energy change                    ....  1.000e-05 Eh
 Orbital Gradient       TolG            ....  1.000e-05
 Orbital Rotation angle TolX            ....  1.000e-05
 DIIS Error             TolErr          ....  5.000e-07


Diagonalization of the overlap matrix:
Smallest eigenvalue                        ... 1.843e-04
Time for diagonalization                   ...    0.565 sec
Threshold for overlap eigenvalues          ... 1.000e-08
Number of eigenvalues below threshold      ... 0
Time for construction of square roots      ...    0.879 sec
Total time needed                          ...    1.451 sec

--------------------------------
INITIAL GUESS: MINIMAL BASIS EHT
--------------------------------
The minimal basis has 300 functions
EHT matrix was diagonalized
Basis set overlap was calculated now projecting the orbitals
Using GuessMode=FMatrix for the initial guess
C*T matrix was formed
Effective Fockian was calculated
Effective Fockian was diagonalized
Initial density was built
                      ------------------
                      INITIAL GUESS DONE
                      ------------------
-------------------
DFT GRID GENERATION
-------------------

General Integration Accuracy     IntAcc      ... 4.959
Radial Grid Type                 RadialGrid  ... OptM3 with GC (2021)
Angular Grid (max. ang.)         AngularGrid ... 6 (Lebedev-590)
Angular grid pruning method      GridPruning ... 4 (adaptive)
Weight generation scheme         WeightScheme... Becke
Basis function cutoff            BFCut       ... 1.0000e-11
Integration weight cutoff        WCut        ... 1.0000e-14
Angular grids for H and He will be reduced by one unit
Partially contracted basis set               ... off
Rotationally invariant grid construction     ... off

Total number of grid points                  ...   821748
Total number of batches                      ...    12870
Average number of points per batch           ...       63
Average number of grid points per atom       ...    13696
Time for grid setup =   33.086 sec

--------------------
COSX GRID GENERATION
--------------------

GRIDX 1
-------
General Integration Accuracy     IntAcc      ... 4.020
Radial Grid Type                 RadialGrid  ... OptM3 with GC (2021)
Angular Grid (max. ang.)         AngularGrid ... 2 (Lebedev-110)
Angular grid pruning method      GridPruning ... 4 (adaptive)
Weight generation scheme         WeightScheme... Becke
Basis function cutoff            BFCut       ... 1.0000e-11
Integration weight cutoff        WCut        ... 1.0000e-14
Angular grids for H and He will be reduced by one unit
Partially contracted basis set               ... on
Rotationally invariant grid construction     ... off

Total number of grid points                  ...   100360
Total number of batches                      ...     1603
Average number of points per batch           ...       62
Average number of grid points per atom       ...     1673
UseSFitting                                  ... on

GRIDX 2
-------
General Integration Accuracy     IntAcc      ... 4.338
Radial Grid Type                 RadialGrid  ... OptM3 with GC (2021)
Angular Grid (max. ang.)         AngularGrid ... 3 (Lebedev-194)
Angular grid pruning method      GridPruning ... 4 (adaptive)
Weight generation scheme         WeightScheme... Becke
Basis function cutoff            BFCut       ... 1.0000e-11
Integration weight cutoff        WCut        ... 1.0000e-14
Angular grids for H and He will be reduced by one unit
Partially contracted basis set               ... on
Rotationally invariant grid construction     ... off

Total number of grid points                  ...   220187
Total number of batches                      ...     3471
Average number of points per batch           ...       63
Average number of grid points per atom       ...     3670
UseSFitting                                  ... on

GRIDX 3
-------
General Integration Accuracy     IntAcc      ... 4.871
Radial Grid Type                 RadialGrid  ... OptM3 with GC (2021)
Angular Grid (max. ang.)         AngularGrid ... 4 (Lebedev-302)
Angular grid pruning method      GridPruning ... 4 (adaptive)
Weight generation scheme         WeightScheme... Becke
Basis function cutoff            BFCut       ... 1.0000e-11
Integration weight cutoff        WCut        ... 1.0000e-14
Angular grids for H and He will be reduced by one unit
Partially contracted basis set               ... on
Rotationally invariant grid construction     ... off

Total number of grid points                  ...   379615
Total number of batches                      ...     5963
Average number of points per batch           ...       63
Average number of grid points per atom       ...     6327
UseSFitting                                  ... on

Time for X-Grid setup             =   34.958 sec

--------------
SCF ITERATIONS
--------------
ITER       Energy         Delta-E        Max-DP      RMS-DP      [F,P]     Damp
               ***  Starting incremental Fock matrix formation  ***
  0  -2275.4578651707   0.000000000000 0.15704500  0.00270685  0.4334846 0.7000
  1  -2277.0777294301  -1.619864259434 0.11973105  0.00200382  0.3064408 0.7000
                      *** Initiating the SOSCF procedure ***
                      *** Re-Reading the Fockian *** 
                      *** Removing any level shift *** 
ITER      Energy       Delta-E        Grad      Rot      Max-DP    RMS-DP
  2  -2278.22890196  -1.1511725288  0.002594  0.002594  0.297994  0.004937
               *** Restarting incremental Fock matrix formation ***
  3  -2280.98540712  -2.7565051619  0.005227  0.031421  0.048137  0.000733
  4  -2280.99615243  -0.0107453072  0.006869  0.026621  0.018460  0.000299
  5  -2281.00140389  -0.0052514615  0.005753  0.020109  0.017109  0.000288
  6  -2281.00302555  -0.0016216645  0.003577  0.011831  0.005249  0.000138
  7  -2281.00522551  -0.0021999585  0.001422  0.007764  0.005136  0.000097
  8  -2281.00508048   0.0001450286  0.001790  0.005995  0.002960  0.000060
  9  -2281.00560856  -0.0005280739  0.000488  0.002253  0.001967  0.000037
 10  -2281.00560779   0.0000007722  0.000568  0.002133  0.001202  0.000020
 11  -2281.00566219  -0.0000544041  0.000215  0.001273  0.001012  0.000016
 12  -2281.00566482  -0.0000026292  0.000171  0.000514  0.000466  0.000008
 13  -2281.00567275  -0.0000079279  0.000091  0.000292  0.000349  0.000006
 14  -2281.00567305  -0.0000003061  0.000065  0.000267  0.000298  0.000004
 15  -2281.00567446  -0.0000014086  0.000034  0.000181  0.000134  0.000003
 16  -2281.00567440   0.0000000568  0.000041  0.000092  0.000087  0.000002
 17  -2281.00567472  -0.0000003177  0.000008  0.000055  0.000040  0.000001
 18  -2281.00567463   0.0000000960  0.000015  0.000033  0.000026  0.000000
                  ***Gradient check signals convergence***
              ***Rediagonalizing the Fockian in SOSCF/NRSCF***

               *****************************************************
               *                     SUCCESS                       *
               *           SCF CONVERGED AFTER  19 CYCLES          *
               *****************************************************

Old exchange energy                            =   -130.589147511 Eh
New exchange energy                            =   -130.589125986 Eh
Exchange energy change after final integration =      0.000021525 Eh
Total energy after final integration           =  -2281.005653157 Eh
Final COS-X integration done in                =   289.547 sec

----------------
TOTAL SCF ENERGY
----------------

Total Energy       :        -2281.00565316 Eh          -62069.31937 eV

Components:
Nuclear Repulsion  :         8318.29831376 Eh          226352.40465 eV
Electronic Energy  :       -10599.30396692 Eh         -288421.72402 eV
One Electron Energy:       -19651.63885661 Eh         -534748.27937 eV
Two Electron Energy:         9052.33488969 Eh          246326.55535 eV
Max COSX asymmetry :            0.00000321 Eh               0.00009 eV

Virial components:
Potential Energy   :        -4542.45732001 Eh         -123606.54771 eV
Kinetic Energy     :         2261.45166685 Eh           61537.22835 eV
Virial Ratio       :            2.00864665


DFT components:
N(Alpha)           :      179.999854678859 electrons
N(Beta)            :      179.999854678859 electrons
N(Total)           :      359.999709357718 electrons
E(X)               :     -173.786688561653 Eh       
E(C)               :      -16.218710454609 Eh       
E(XC)              :     -190.005399016262 Eh       
DFET-embed. en.    :        0.000000000000 Eh       

---------------
SCF CONVERGENCE
---------------

  Last Energy change         ...   -5.6098e-08  Tolerance :   1.0000e-08
  Last MAX-Density change    ...    3.3307e-15  Tolerance :   1.0000e-07
  Last RMS-Density change    ...    2.6856e-17  Tolerance :   5.0000e-09
  Last Orbital Gradient      ...    2.3809e-06  Tolerance :   1.0000e-05
  Last Orbital Rotation      ...    1.2712e-05  Tolerance :   1.0000e-05

             **** THE GBW FILE WAS UPDATED (pbeh-3c.gbw) ****
             **** DENSITY pbeh-3c.scfp WAS UPDATED ****
             **** ENERGY FILE WAS UPDATED (pbeh-3c.en.tmp) ****
             **** THE GBW FILE WAS UPDATED (pbeh-3c.gbw) ****
             **** DENSITY pbeh-3c.scfp WAS UPDATED ****
----------------
ORBITAL ENERGIES
----------------

  NO   OCC          E(Eh)            E(eV) 
   0   2.0000     -10.533115      -286.6206 
   1   2.0000     -10.530908      -286.5606 
   2   2.0000     -10.529860      -286.5321 
   3   2.0000     -10.529110      -286.5116 
   4   2.0000     -10.528439      -286.4934 
   5   2.0000     -10.528239      -286.4880 
   6   2.0000     -10.527606      -286.4707 
   7   2.0000     -10.526991      -286.4540 
   8   2.0000     -10.526690      -286.4458 
   9   2.0000     -10.526143      -286.4309 
  10   2.0000     -10.525645      -286.4174 
  11   2.0000     -10.525549      -286.4147 
  12   2.0000     -10.524899      -286.3971 
  13   2.0000     -10.523208      -286.3510 
  14   2.0000     -10.522825      -286.3406 
  15   2.0000     -10.522664      -286.3362 
  16   2.0000     -10.522123      -286.3215 
  17   2.0000     -10.521562      -286.3063 
  18   2.0000     -10.521377      -286.3012 
  19   2.0000     -10.521044      -286.2922 
  20   2.0000     -10.520987      -286.2906 
  21   2.0000     -10.520558      -286.2789 
  22   2.0000     -10.520255      -286.2707 
  23   2.0000     -10.520110      -286.2668 
  24   2.0000     -10.519445      -286.2486 
  25   2.0000     -10.518597      -286.2256 
  26   2.0000     -10.518334      -286.2184 
  27   2.0000     -10.518228      -286.2155 
  28   2.0000     -10.517810      -286.2041 
  29   2.0000     -10.517432      -286.1939 
  30   2.0000     -10.516694      -286.1738 
  31   2.0000     -10.516506      -286.1687 
  32   2.0000     -10.516202      -286.1604 
  33   2.0000     -10.515891      -286.1519 
  34   2.0000     -10.515561      -286.1430 
  35   2.0000     -10.515405      -286.1387 
  36   2.0000     -10.515375      -286.1379 
  37   2.0000     -10.515265      -286.1349 
  38   2.0000     -10.515013      -286.1281 
  39   2.0000     -10.514708      -286.1198 
  40   2.0000     -10.514561      -286.1157 
  41   2.0000     -10.514483      -286.1136 
  42   2.0000     -10.514371      -286.1106 
  43   2.0000     -10.513545      -286.0881 
  44   2.0000     -10.513343      -286.0826 
  45   2.0000     -10.513113      -286.0764 
  46   2.0000     -10.512946      -286.0718 
  47   2.0000     -10.512674      -286.0644 
  48   2.0000     -10.511752      -286.0393 
  49   2.0000     -10.511677      -286.0373 
  50   2.0000     -10.511382      -286.0293 
  51   2.0000     -10.511104      -286.0217 
  52   2.0000     -10.510024      -285.9923 
  53   2.0000     -10.509514      -285.9784 
  54   2.0000     -10.508999      -285.9644 
  55   2.0000     -10.505961      -285.8817 
  56   2.0000     -10.504449      -285.8406 
  57   2.0000     -10.504008      -285.8286 
  58   2.0000     -10.501505      -285.7605 
  59   2.0000     -10.497594      -285.6540 
  60   2.0000      -1.101549       -29.9747 
  61   2.0000      -1.088325       -29.6148 
  62   2.0000      -1.075888       -29.2764 
  63   2.0000      -1.070812       -29.1383 
  64   2.0000      -1.055624       -28.7250 
  65   2.0000      -1.043864       -28.4050 
  66   2.0000      -1.035677       -28.1822 
  67   2.0000      -1.026356       -27.9286 
  68   2.0000      -1.016074       -27.6488 
  69   2.0000      -0.997931       -27.1551 
  70   2.0000      -0.989671       -26.9303 
  71   2.0000      -0.982383       -26.7320 
  72   2.0000      -0.971879       -26.4462 
  73   2.0000      -0.966463       -26.2988 
  74   2.0000      -0.946850       -25.7651 
  75   2.0000      -0.944724       -25.7073 
  76   2.0000      -0.924801       -25.1651 
  77   2.0000      -0.921388       -25.0722 
  78   2.0000      -0.915993       -24.9254 
  79   2.0000      -0.907269       -24.6880 
  80   2.0000      -0.897366       -24.4186 
  81   2.0000      -0.886848       -24.1324 
  82   2.0000      -0.882089       -24.0029 
  83   2.0000      -0.867212       -23.5980 
  84   2.0000      -0.850899       -23.1541 
  85   2.0000      -0.846933       -23.0462 
  86   2.0000      -0.841955       -22.9108 
  87   2.0000      -0.835591       -22.7376 
  88   2.0000      -0.827589       -22.5198 
  89   2.0000      -0.822193       -22.3730 
  90   2.0000      -0.806188       -21.9375 
  91   2.0000      -0.790832       -21.5196 
  92   2.0000      -0.780152       -21.2290 
  93   2.0000      -0.771546       -20.9948 
  94   2.0000      -0.757827       -20.6215 
  95   2.0000      -0.753738       -20.5103 
  96   2.0000      -0.748768       -20.3750 
  97   2.0000      -0.740503       -20.1501 
  98   2.0000      -0.726586       -19.7714 
  99   2.0000      -0.724635       -19.7183 
 100   2.0000      -0.712209       -19.3802 
 101   2.0000      -0.707024       -19.2391 
 102   2.0000      -0.701885       -19.0993 
 103   2.0000      -0.690382       -18.7863 
 104   2.0000      -0.681268       -18.5383 
 105   2.0000      -0.671042       -18.2600 
 106   2.0000      -0.658770       -17.9260 
 107   2.0000      -0.648077       -17.6351 
 108   2.0000      -0.642871       -17.4934 
 109   2.0000      -0.635325       -17.2881 
 110   2.0000      -0.630479       -17.1562 
 111   2.0000      -0.626491       -17.0477 
 112   2.0000      -0.619806       -16.8658 
 113   2.0000      -0.610401       -16.6098 
 114   2.0000      -0.605706       -16.4821 
 115   2.0000      -0.597015       -16.2456 
 116   2.0000      -0.592205       -16.1147 
 117   2.0000      -0.576714       -15.6932 
 118   2.0000      -0.572698       -15.5839 
 119   2.0000      -0.570241       -15.5170 
 120   2.0000      -0.566116       -15.4048 
 121   2.0000      -0.557936       -15.1822 
 122   2.0000      -0.553181       -15.0528 
 123   2.0000      -0.550906       -14.9909 
 124   2.0000      -0.546937       -14.8829 
 125   2.0000      -0.543968       -14.8021 
 126   2.0000      -0.541199       -14.7268 
 127   2.0000      -0.537488       -14.6258 
 128   2.0000      -0.535720       -14.5777 
 129   2.0000      -0.532636       -14.4938 
 130   2.0000      -0.530456       -14.4344 
 131   2.0000      -0.523815       -14.2537 
 132   2.0000      -0.520487       -14.1632 
 133   2.0000      -0.514480       -13.9997 
 134   2.0000      -0.512778       -13.9534 
 135   2.0000      -0.508116       -13.8266 
 136   2.0000      -0.505514       -13.7557 
 137   2.0000      -0.503479       -13.7004 
 138   2.0000      -0.501779       -13.6541 
 139   2.0000      -0.498538       -13.5659 
 140   2.0000      -0.495965       -13.4959 
 141   2.0000      -0.494127       -13.4459 
 142   2.0000      -0.489722       -13.3260 
 143   2.0000      -0.482764       -13.1367 
 144   2.0000      -0.477194       -12.9851 
 145   2.0000      -0.473678       -12.8894 
 146   2.0000      -0.470181       -12.7943 
 147   2.0000      -0.469413       -12.7734 
 148   2.0000      -0.464353       -12.6357 
 149   2.0000      -0.449276       -12.2254 
 150   2.0000      -0.448494       -12.2041 
 151   2.0000      -0.443518       -12.0687 
 152   2.0000      -0.440690       -11.9918 
 153   2.0000      -0.438161       -11.9230 
 154   2.0000      -0.435071       -11.8389 
 155   2.0000      -0.430206       -11.7065 
 156   2.0000      -0.429256       -11.6806 
 157   2.0000      -0.426322       -11.6008 
 158   2.0000      -0.425692       -11.5837 
 159   2.0000      -0.422118       -11.4864 
 160   2.0000      -0.415483       -11.3059 
 161   2.0000      -0.414306       -11.2738 
 162   2.0000      -0.410675       -11.1750 
 163   2.0000      -0.405674       -11.0389 
 164   2.0000      -0.384168       -10.4537 
 165   2.0000      -0.379846       -10.3361 
 166   2.0000      -0.358978        -9.7683 
 167   2.0000      -0.357003        -9.7146 
 168   2.0000      -0.349986        -9.5236 
 169   2.0000      -0.338316        -9.2060 
 170   2.0000      -0.331418        -9.0183 
 171   2.0000      -0.317132        -8.6296 
 172   2.0000      -0.308990        -8.4080 
 173   2.0000      -0.295297        -8.0354 
 174   2.0000      -0.286511        -7.7964 
 175   2.0000      -0.278753        -7.5853 
 176   2.0000      -0.273906        -7.4534 
 177   2.0000      -0.272117        -7.4047 
 178   2.0000      -0.260135        -7.0786 
 179   2.0000      -0.246829        -6.7166 
 180   0.0000      -0.167827        -4.5668 
 181   0.0000      -0.149599        -4.0708 
 182   0.0000      -0.118545        -3.2258 
 183   0.0000      -0.100527        -2.7355 
 184   0.0000      -0.078200        -2.1279 
 185   0.0000      -0.066619        -1.8128 
 186   0.0000      -0.057350        -1.5606 
 187   0.0000      -0.048887        -1.3303 
 188   0.0000      -0.041263        -1.1228 
 189   0.0000      -0.038689        -1.0528 
 190   0.0000      -0.030752        -0.8368 
 191   0.0000      -0.024044        -0.6543 
 192   0.0000      -0.011411        -0.3105 
 193   0.0000      -0.010166        -0.2766 
 194   0.0000      -0.002316        -0.0630 
 195   0.0000       0.003266         0.0889 
 196   0.0000       0.009793         0.2665 
 197   0.0000       0.024146         0.6570 
 198   0.0000       0.032760         0.8915 
 199   0.0000       0.039752         1.0817 
 200   0.0000       0.047887         1.3031 
 201   0.0000       0.062096         1.6897 
 202   0.0000       0.067844         1.8461 
 203   0.0000       0.075961         2.0670 
 204   0.0000       0.078901         2.1470 
 205   0.0000       0.089328         2.4307 
 206   0.0000       0.094090         2.5603 
 207   0.0000       0.099102         2.6967 
 208   0.0000       0.108796         2.9605 
 209   0.0000       0.114900         3.1266 
 210   0.0000       0.121349         3.3021 
 211   0.0000       0.133144         3.6230 
 212   0.0000       0.153638         4.1807 
 213   0.0000       0.159249         4.3334 
 214   0.0000       0.163624         4.4524 
 215   0.0000       0.166089         4.5195 
 216   0.0000       0.170757         4.6465 
 217   0.0000       0.174416         4.7461 
 218   0.0000       0.177475         4.8294 
 219   0.0000       0.181694         4.9441 
 220   0.0000       0.191168         5.2019 
 221   0.0000       0.196824         5.3559 
 222   0.0000       0.200059         5.4439 
 223   0.0000       0.201976         5.4961 
 224   0.0000       0.205344         5.5877 
 225   0.0000       0.210871         5.7381 
 226   0.0000       0.217000         5.9049 
 227   0.0000       0.219790         5.9808 
 228   0.0000       0.226470         6.1626 
 229   0.0000       0.230008         6.2588 
 230   0.0000       0.235578         6.4104 
 231   0.0000       0.238360         6.4861 
 232   0.0000       0.244868         6.6632 
 233   0.0000       0.248303         6.7567 
 234   0.0000       0.256528         6.9805 
 235   0.0000       0.257349         7.0028 
 236   0.0000       0.264508         7.1976 
 237   0.0000       0.269285         7.3276 
 238   0.0000       0.280688         7.6379 
 239   0.0000       0.288643         7.8544 
 240   0.0000       0.292986         7.9725 
 241   0.0000       0.297511         8.0957 
 242   0.0000       0.311396         8.4735 
 243   0.0000       0.318961         8.6794 
 244   0.0000       0.332197         9.0395 
 245   0.0000       0.335602         9.1322 
 246   0.0000       0.340653         9.2696 
 247   0.0000       0.348897         9.4940 
 248   0.0000       0.351923         9.5763 
 249   0.0000       0.364196         9.9103 
 250   0.0000       0.375957        10.2303 
 251   0.0000       0.380307        10.3487 
 252   0.0000       0.388441        10.5700 
 253   0.0000       0.397595        10.8191 
 254   0.0000       0.400931        10.9099 
 255   0.0000       0.407285        11.0828 
 256   0.0000       0.414183        11.2705 
 257   0.0000       0.418187        11.3794 
 258   0.0000       0.422492        11.4966 
 259   0.0000       0.427994        11.6463 
 260   0.0000       0.434510        11.8236 
 261   0.0000       0.436062        11.8659 
 262   0.0000       0.440629        11.9901 
 263   0.0000       0.443075        12.0567 
 264   0.0000       0.446436        12.1481 
 265   0.0000       0.449250        12.2247 
 266   0.0000       0.454471        12.3668 
 267   0.0000       0.456232        12.4147 
 268   0.0000       0.460853        12.5404 
 269   0.0000       0.465160        12.6577 
 270   0.0000       0.467193        12.7130 
 271   0.0000       0.468442        12.7470 
 272   0.0000       0.470292        12.7973 
 273   0.0000       0.473469        12.8837 
 274   0.0000       0.477483        12.9930 
 275   0.0000       0.477931        13.0052 
 276   0.0000       0.482642        13.1334 
 277   0.0000       0.484730        13.1902 
 278   0.0000       0.486165        13.2292 
 279   0.0000       0.490576        13.3493 
 280   0.0000       0.490822        13.3559 
 281   0.0000       0.492839        13.4108 
 282   0.0000       0.493463        13.4278 
 283   0.0000       0.495436        13.4815 
 284   0.0000       0.498284        13.5590 
 285   0.0000       0.499541        13.5932 
 286   0.0000       0.500193        13.6109 
 287   0.0000       0.502967        13.6864 
 288   0.0000       0.504030        13.7153 
 289   0.0000       0.505149        13.7458 
 290   0.0000       0.506616        13.7857 
 291   0.0000       0.508189        13.8285 
 292   0.0000       0.510261        13.8849 
 293   0.0000       0.511022        13.9056 
 294   0.0000       0.513763        13.9802 
 295   0.0000       0.514626        14.0037 
 296   0.0000       0.517925        14.0935 
 297   0.0000       0.520143        14.1538 
 298   0.0000       0.521562        14.1924 
 299   0.0000       0.524335        14.2679 
 300   0.0000       0.526104        14.3160 
 301   0.0000       0.526563        14.3285 
 302   0.0000       0.528778        14.3888 
 303   0.0000       0.529978        14.4214 
 304   0.0000       0.532150        14.4805 
 305   0.0000       0.533252        14.5105 
 306   0.0000       0.535578        14.5738 
 307   0.0000       0.537811        14.6346 
 308   0.0000       0.539464        14.6796 
 309   0.0000       0.541423        14.7329 
 310   0.0000       0.543941        14.8014 
 311   0.0000       0.545246        14.8369 
 312   0.0000       0.546415        14.8687 
 313   0.0000       0.548573        14.9274 
 314   0.0000       0.551168        14.9980 
 315   0.0000       0.553924        15.0730 
 316   0.0000       0.555767        15.1232 
 317   0.0000       0.556289        15.1374 
 318   0.0000       0.559894        15.2355 
 319   0.0000       0.561012        15.2659 
 320   0.0000       0.562620        15.3097 
 321   0.0000       0.564924        15.3724 
 322   0.0000       0.566850        15.4248 
 323   0.0000       0.568271        15.4634 
 324   0.0000       0.569726        15.5030 
 325   0.0000       0.574424        15.6309 
 326   0.0000       0.576151        15.6779 
 327   0.0000       0.577724        15.7207 
 328   0.0000       0.582031        15.8379 
 329   0.0000       0.583976        15.8908 
 330   0.0000       0.585161        15.9230 
 331   0.0000       0.588814        16.0225 
 332   0.0000       0.589829        16.0501 
 333   0.0000       0.592201        16.1146 
 334   0.0000       0.593191        16.1416 
 335   0.0000       0.595064        16.1925 
 336   0.0000       0.597183        16.2502 
 337   0.0000       0.600882        16.3508 
 338   0.0000       0.602721        16.4009 
 339   0.0000       0.604670        16.4539 
 340   0.0000       0.606710        16.5094 
 341   0.0000       0.607800        16.5391 
 342   0.0000       0.610918        16.6239 
 343   0.0000       0.611258        16.6332 
 344   0.0000       0.613163        16.6850 
 345   0.0000       0.615007        16.7352 
 346   0.0000       0.618424        16.8282 
 347   0.0000       0.619736        16.8639 
 348   0.0000       0.623056        16.9542 
 349   0.0000       0.626226        17.0405 
 350   0.0000       0.626841        17.0572 
 351   0.0000       0.632143        17.2015 
 352   0.0000       0.633774        17.2459 
 353   0.0000       0.635076        17.2813 
 354   0.0000       0.635931        17.3046 
 355   0.0000       0.639560        17.4033 
 356   0.0000       0.642009        17.4700 
 357   0.0000       0.644439        17.5361 
 358   0.0000       0.646329        17.5875 
 359   0.0000       0.647560        17.6210 
 360   0.0000       0.649359        17.6700 
 361   0.0000       0.652126        17.7453 
 362   0.0000       0.652955        17.7678 
 363   0.0000       0.656802        17.8725 
 364   0.0000       0.659263        17.9395 
 365   0.0000       0.662494        18.0274 
 366   0.0000       0.665008        18.0958 
 367   0.0000       0.666523        18.1370 
 368   0.0000       0.671680        18.2773 
 369   0.0000       0.672002        18.2861 
 370   0.0000       0.674188        18.3456 
 371   0.0000       0.675421        18.3791 
 372   0.0000       0.677763        18.4429 
 373   0.0000       0.683411        18.5965 
 374   0.0000       0.685459        18.6523 
 375   0.0000       0.686576        18.6827 
 376   0.0000       0.687326        18.7031 
 377   0.0000       0.692792        18.8518 
 378   0.0000       0.694692        18.9035 
 379   0.0000       0.700672        19.0663 
 380   0.0000       0.703231        19.1359 
 381   0.0000       0.705517        19.1981 
 382   0.0000       0.709000        19.2929 
 383   0.0000       0.713394        19.4124 
 384   0.0000       0.714535        19.4435 
 385   0.0000       0.716932        19.5087 
 386   0.0000       0.718739        19.5579 
 387   0.0000       0.723672        19.6921 
 388   0.0000       0.726291        19.7634 
 389   0.0000       0.729432        19.8489 
 390   0.0000       0.732413        19.9300 
 391   0.0000       0.736184        20.0326 
 392   0.0000       0.739130        20.1127 
 393   0.0000       0.739636        20.1265 
 394   0.0000       0.743960        20.2442 
 395   0.0000       0.745474        20.2854 
 396   0.0000       0.748707        20.3733 
 397   0.0000       0.750100        20.4112 
 398   0.0000       0.754123        20.5207 
 399   0.0000       0.755011        20.5449 
 400   0.0000       0.759930        20.6787 
 401   0.0000       0.763583        20.7782 
 402   0.0000       0.766393        20.8546 
 403   0.0000       0.770193        20.9580 
 404   0.0000       0.771906        21.0046 
 405   0.0000       0.777324        21.1521 
 406   0.0000       0.783949        21.3323 
 407   0.0000       0.791829        21.5468 
 408   0.0000       0.792590        21.5675 
 409   0.0000       0.796279        21.6678 
 410   0.0000       0.801623        21.8133 
 411   0.0000       0.804814        21.9001 
 412   0.0000       0.810873        22.0650 
 413   0.0000       0.813596        22.1391 
 414   0.0000       0.817740        22.2518 
 415   0.0000       0.826161        22.4810 
 416   0.0000       0.840476        22.8705 
 417   0.0000       0.844713        22.9858 
 418   0.0000       0.854411        23.2497 
 419   0.0000       0.859237        23.3810 
 420   0.0000       0.866674        23.5834 
 421   0.0000       0.880474        23.9589 
 422   0.0000       0.886448        24.1215 
 423   0.0000       0.894394        24.3377 
 424   0.0000       0.903689        24.5906 
 425   0.0000       0.906571        24.6690 
 426   0.0000       0.913071        24.8459 
 427   0.0000       0.917457        24.9653 
 428   0.0000       0.921073        25.0637 
 429   0.0000       0.924792        25.1649 
 430   0.0000       0.928196        25.2575 
 431   0.0000       0.932006        25.3612 
 432   0.0000       0.936072        25.4718 
 433   0.0000       0.938815        25.5465 
 434   0.0000       0.948362        25.8062 
 435   0.0000       0.949631        25.8408 
 436   0.0000       0.953464        25.9451 
 437   0.0000       0.957187        26.0464 
 438   0.0000       0.957364        26.0512 
 439   0.0000       0.961953        26.1761 
 440   0.0000       0.964693        26.2506 
 441   0.0000       0.973471        26.4895 
 442   0.0000       0.978768        26.6336 
 443   0.0000       0.982806        26.7435 
 444   0.0000       0.988239        26.8914 
 445   0.0000       0.995355        27.0850 
 446   0.0000       0.998262        27.1641 
 447   0.0000       1.001948        27.2644 
 448   0.0000       1.010031        27.4843 
 449   0.0000       1.013200        27.5706 
 450   0.0000       1.014020        27.5929 
 451   0.0000       1.018087        27.7035 
 452   0.0000       1.024899        27.8889 
 453   0.0000       1.026959        27.9450 
 454   0.0000       1.032365        28.0921 
 455   0.0000       1.033626        28.1264 
 456   0.0000       1.048240        28.5241 
 457   0.0000       1.048880        28.5415 
 458   0.0000       1.054059        28.6824 
 459   0.0000       1.056942        28.7609 
 460   0.0000       1.059341        28.8261 
 461   0.0000       1.065843        29.0030 
 462   0.0000       1.068256        29.0687 
 463   0.0000       1.071727        29.1632 
 464   0.0000       1.076693        29.2983 
 465   0.0000       1.084537        29.5117 
 466   0.0000       1.085713        29.5438 
 467   0.0000       1.093241        29.7486 
 468   0.0000       1.097703        29.8700 
 469   0.0000       1.099716        29.9248 
 470   0.0000       1.102669        30.0052 
 471   0.0000       1.112404        30.2701 
 472   0.0000       1.113684        30.3049 
 473   0.0000       1.115484        30.3539 
 474   0.0000       1.123183        30.5634 
 475   0.0000       1.124759        30.6063 
 476   0.0000       1.128567        30.7099 
 477   0.0000       1.135601        30.9013 
 478   0.0000       1.137526        30.9536 
 479   0.0000       1.141717        31.0677 
 480   0.0000       1.146507        31.1980 
 481   0.0000       1.149678        31.2843 
 482   0.0000       1.156054        31.4578 
 483   0.0000       1.158533        31.5253 
 484   0.0000       1.165419        31.7127 
 485   0.0000       1.171199        31.8699 
 486   0.0000       1.174870        31.9698 
 487   0.0000       1.178579        32.0708 
 488   0.0000       1.188836        32.3499 
 489   0.0000       1.194012        32.4907 
 490   0.0000       1.199227        32.6326 
 491   0.0000       1.201691        32.6997 
 492   0.0000       1.204097        32.7651 
 493   0.0000       1.208990        32.8983 
 494   0.0000       1.212844        33.0032 
 495   0.0000       1.222907        33.2770 
 496   0.0000       1.228535        33.4301 
 497   0.0000       1.231478        33.5102 
 498   0.0000       1.240581        33.7579 
 499   0.0000       1.246365        33.9153 
 500   0.0000       1.249740        34.0071 
 501   0.0000       1.256094        34.1800 
 502   0.0000       1.260018        34.2868 
 503   0.0000       1.262896        34.3652 
 504   0.0000       1.268683        34.5226 
 505   0.0000       1.273219        34.6461 
 506   0.0000       1.274498        34.6809 
 507   0.0000       1.281220        34.8638 
 508   0.0000       1.283926        34.9374 
 509   0.0000       1.290373        35.1128 
 510   0.0000       1.296915        35.2909 
 511   0.0000       1.304150        35.4877 
 512   0.0000       1.305497        35.5244 
 513   0.0000       1.317915        35.8623 
 514   0.0000       1.323083        36.0029 
 515   0.0000       1.326688        36.1010 
 516   0.0000       1.332632        36.2628 
 517   0.0000       1.344172        36.5768 
 518   0.0000       1.351435        36.7744 
 519   0.0000       1.356658        36.9166 
 520   0.0000       1.359252        36.9871 
 521   0.0000       1.364040        37.1174 
 522   0.0000       1.365486        37.1568 
 523   0.0000       1.379093        37.5270 
 524   0.0000       1.383295        37.6414 
 525   0.0000       1.391572        37.8666 
 526   0.0000       1.394342        37.9420 
 527   0.0000       1.399337        38.0779 
 528   0.0000       1.403436        38.1894 
 529   0.0000       1.416465        38.5440 
 530   0.0000       1.429586        38.9010 
 531   0.0000       1.434512        39.0351 
 532   0.0000       1.445318        39.3291 
 533   0.0000       1.451952        39.5096 
 534   0.0000       1.461637        39.7732 
 535   0.0000       1.477143        40.1951 
 536   0.0000       1.482645        40.3448 
 537   0.0000       1.485719        40.4285 
 538   0.0000       1.492685        40.6180 
 539   0.0000       1.501087        40.8466 
 540   0.0000       1.510802        41.1110 
 541   0.0000       1.519001        41.3341 
 542   0.0000       1.528369        41.5890 
 543   0.0000       1.532251        41.6947 
 544   0.0000       1.545357        42.0513 
 545   0.0000       1.552484        42.2452 
 546   0.0000       1.554582        42.3023 
 547   0.0000       1.567484        42.6534 
 548   0.0000       1.580380        43.0043 
 549   0.0000       1.581896        43.0456 
 550   0.0000       1.592635        43.3378 
 551   0.0000       1.600403        43.5492 
 552   0.0000       1.614707        43.9384 
 553   0.0000       1.622842        44.1598 
 554   0.0000       1.630812        44.3766 
 555   0.0000       1.643491        44.7217 
 556   0.0000       1.652196        44.9585 
 557   0.0000       1.656904        45.0867 
 558   0.0000       1.664878        45.3036 
 559   0.0000       1.670292        45.4509 
 560   0.0000       1.672543        45.5122 
 561   0.0000       1.676207        45.6119 
 562   0.0000       1.680955        45.7411 
 563   0.0000       1.682925        45.7947 
 564   0.0000       1.685323        45.8600 
 565   0.0000       1.690553        46.0023 
 566   0.0000       1.693701        46.0880 
 567   0.0000       1.696610        46.1671 
 568   0.0000       1.699865        46.2557 
 569   0.0000       1.700882        46.2834 
 570   0.0000       1.703459        46.3535 
 571   0.0000       1.707904        46.4744 
 572   0.0000       1.710008        46.5317 
 573   0.0000       1.715191        46.6727 
 574   0.0000       1.716420        46.7062 
 575   0.0000       1.719671        46.7946 
 576   0.0000       1.722587        46.8740 
 577   0.0000       1.723569        46.9007 
 578   0.0000       1.725749        46.9600 
 579   0.0000       1.726475        46.9798 
 580   0.0000       1.729350        47.0580 
 581   0.0000       1.732825        47.1526 
 582   0.0000       1.739100        47.3233 
 583   0.0000       1.739327        47.3295 
 584   0.0000       1.741045        47.3762 
 585   0.0000       1.744436        47.4685 
 586   0.0000       1.747624        47.5553 
 587   0.0000       1.748245        47.5722 
 588   0.0000       1.752228        47.6806 
 589   0.0000       1.753911        47.7263 
 590   0.0000       1.758037        47.8386 
 591   0.0000       1.759009        47.8651 
 592   0.0000       1.761039        47.9203 
 593   0.0000       1.765421        48.0396 
 594   0.0000       1.767239        48.0890 
 595   0.0000       1.768727        48.1295 
 596   0.0000       1.772383        48.2290 
 597   0.0000       1.773506        48.2595 
 598   0.0000       1.776145        48.3314 
 599   0.0000       1.780428        48.4479 
 600   0.0000       1.782293        48.4987 
 601   0.0000       1.784977        48.5717 
 602   0.0000       1.785706        48.5915 
 603   0.0000       1.790684        48.7270 
 604   0.0000       1.793180        48.7949 
 605   0.0000       1.794297        48.8253 
 606   0.0000       1.797404        48.9098 
 607   0.0000       1.798879        48.9500 
 608   0.0000       1.802198        49.0403 
 609   0.0000       1.806064        49.1455 
 610   0.0000       1.808320        49.2069 
 611   0.0000       1.811030        49.2806 
 612   0.0000       1.814882        49.3855 
 613   0.0000       1.816281        49.4235 
 614   0.0000       1.820460        49.5372 
 615   0.0000       1.825579        49.6765 
 616   0.0000       1.829749        49.7900 
 617   0.0000       1.834455        49.9181 
 618   0.0000       1.837028        49.9881 
 619   0.0000       1.841582        50.1120 
 620   0.0000       1.847634        50.2767 
 621   0.0000       1.854484        50.4631 
 622   0.0000       1.855759        50.4978 
 623   0.0000       1.860788        50.6346 
 624   0.0000       1.863593        50.7109 
 625   0.0000       1.873064        50.9687 
 626   0.0000       1.876311        51.0570 
 627   0.0000       1.882334        51.2209 
 628   0.0000       1.892696        51.5029 
 629   0.0000       1.901119        51.7321 
 630   0.0000       1.912099        52.0309 
 631   0.0000       1.915190        52.1150 
 632   0.0000       1.924786        52.3761 
 633   0.0000       1.927883        52.4604 
 634   0.0000       1.938779        52.7569 
 635   0.0000       1.944937        52.9244 
 636   0.0000       1.946864        52.9769 
 637   0.0000       1.952888        53.1408 
 638   0.0000       1.959138        53.3109 
 639   0.0000       1.970118        53.6096 
 640   0.0000       1.978271        53.8315 
 641   0.0000       1.979613        53.8680 
 642   0.0000       1.981539        53.9204 
 643   0.0000       1.984939        54.0129 
 644   0.0000       1.988882        54.1202 
 645   0.0000       1.993126        54.2357 
 646   0.0000       1.998756        54.3889 
 647   0.0000       2.003371        54.5145 
 648   0.0000       2.005129        54.5623 
 649   0.0000       2.012837        54.7721 
 650   0.0000       2.015900        54.8554 
 651   0.0000       2.017751        54.9058 
 652   0.0000       2.022826        55.0439 
 653   0.0000       2.024348        55.0853 
 654   0.0000       2.027991        55.1844 
 655   0.0000       2.033003        55.3208 
 656   0.0000       2.040946        55.5370 
 657   0.0000       2.048004        55.7290 
 658   0.0000       2.051729        55.8304 
 659   0.0000       2.057267        55.9811 
 660   0.0000       2.057929        55.9991 
 661   0.0000       2.066146        56.2227 
 662   0.0000       2.071324        56.3636 
 663   0.0000       2.074508        56.4502 
 664   0.0000       2.078346        56.5547 
 665   0.0000       2.085137        56.7395 
 666   0.0000       2.085435        56.7476 
 667   0.0000       2.090563        56.8871 
 668   0.0000       2.093064        56.9552 
 669   0.0000       2.097497        57.0758 
 670   0.0000       2.099910        57.1415 
 671   0.0000       2.107147        57.3384 
 672   0.0000       2.109089        57.3912 
 673   0.0000       2.113353        57.5073 
 674   0.0000       2.116170        57.5839 
 675   0.0000       2.121517        57.7294 
 676   0.0000       2.124185        57.8020 
 677   0.0000       2.128470        57.9186 
 678   0.0000       2.133893        58.0662 
 679   0.0000       2.140754        58.2529 
 680   0.0000       2.144856        58.3645 
 681   0.0000       2.148217        58.4560 
 682   0.0000       2.151015        58.5321 
 683   0.0000       2.159510        58.7632 
 684   0.0000       2.160252        58.7834 
 685   0.0000       2.166231        58.9461 
 686   0.0000       2.169372        59.0316 
 687   0.0000       2.174840        59.1804 
 688   0.0000       2.177881        59.2631 
 689   0.0000       2.185040        59.4580 
 690   0.0000       2.199215        59.8437 
 691   0.0000       2.209258        60.1170 
 692   0.0000       2.243069        61.0370 
 693   0.0000       2.267778        61.7094 
[...]
      px      :     1.020034
      py      :     1.034027
      dz2     :     0.015933  d :     0.110058
      dxz     :     0.017301
      dyz     :     0.016785
      dx2y2   :     0.030515
      dxy     :     0.029525
 37 C s       :     2.842131  s :     2.842131
      pz      :     1.025856  p :     3.050400
      px      :     0.985572
      py      :     1.038972
      dz2     :     0.029906  d :     0.108328
      dxz     :     0.012764
      dyz     :     0.032278
      dx2y2   :     0.014763
      dxy     :     0.018618
 38 C s       :     2.841583  s :     2.841583
      pz      :     0.963347  p :     3.044484
      px      :     1.032158
      py      :     1.048979
      dz2     :     0.008661  d :     0.108905
      dxz     :     0.015284
      dyz     :     0.015369
      dx2y2   :     0.036785
      dxy     :     0.032806
 39 C s       :     2.839992  s :     2.839992
      pz      :     0.993434  p :     3.068268
      px      :     1.028492
      py      :     1.046342
      dz2     :     0.008658  d :     0.107099
      dxz     :     0.012545
      dyz     :     0.016631
      dx2y2   :     0.034096
      dxy     :     0.035169
 40 C s       :     2.837154  s :     2.837154
      pz      :     1.011232  p :     3.062077
      px      :     1.007385
      py      :     1.043460
      dz2     :     0.019821  d :     0.113220
      dxz     :     0.013776
      dyz     :     0.034094
      dx2y2   :     0.024571
      dxy     :     0.020958
 41 C s       :     2.846530  s :     2.846530
      pz      :     1.005484  p :     3.052010
      px      :     1.026224
      py      :     1.020302
      dz2     :     0.013948  d :     0.109001
      dxz     :     0.018358
      dyz     :     0.022174
      dx2y2   :     0.026773
      dxy     :     0.027748
 42 C s       :     2.843274  s :     2.843274
      pz      :     1.035729  p :     3.051557
      px      :     0.983174
      py      :     1.032655
      dz2     :     0.029946  d :     0.110717
      dxz     :     0.013706
      dyz     :     0.029984
      dx2y2   :     0.017953
      dxy     :     0.019128
 43 C s       :     2.850441  s :     2.850441
      pz      :     1.053075  p :     3.007197
      px      :     0.925414
      py      :     1.028708
      dz2     :     0.032496  d :     0.117288
      dxz     :     0.017685
      dyz     :     0.033632
      dx2y2   :     0.012928
      dxy     :     0.020548
 44 C s       :     2.838941  s :     2.838941
      pz      :     0.992632  p :     3.058507
      px      :     1.033665
      py      :     1.032211
      dz2     :     0.015474  d :     0.111291
      dxz     :     0.020322
      dyz     :     0.015475
      dx2y2   :     0.033144
      dxy     :     0.026876
 45 C s       :     2.856974  s :     2.856974
      pz      :     1.000247  p :     3.011623
      px      :     1.005843
      py      :     1.005533
      dz2     :     0.018611  d :     0.107530
      dxz     :     0.021463
      dyz     :     0.027511
      dx2y2   :     0.017890
      dxy     :     0.022055
 46 C s       :     2.847812  s :     2.847812
      pz      :     0.993972  p :     3.035768
      px      :     1.007370
      py      :     1.034426
      dz2     :     0.017617  d :     0.109118
      dxz     :     0.017081
      dyz     :     0.017901
      dx2y2   :     0.026636
      dxy     :     0.029883
 47 C s       :     2.841939  s :     2.841939
      pz      :     1.018928  p :     3.049529
      px      :     1.001177
      py      :     1.029424
      dz2     :     0.019337  d :     0.111476
      dxz     :     0.020011
      dyz     :     0.029188
      dx2y2   :     0.021243
      dxy     :     0.021698
 48 C s       :     2.849996  s :     2.849996
      pz      :     0.977324  p :     3.030604
      px      :     1.025423
      py      :     1.027857
      dz2     :     0.014345  d :     0.108790
      dxz     :     0.015721
      dyz     :     0.016833
      dx2y2   :     0.025884
      dxy     :     0.036007
 49 C s       :     2.852044  s :     2.852044
      pz      :     1.043661  p :     3.022133
      px      :     0.982236
      py      :     0.996236
      dz2     :     0.030543  d :     0.116705
      dxz     :     0.025638
      dyz     :     0.023064
      dx2y2   :     0.024252
      dxy     :     0.013207
 50 C s       :     2.855201  s :     2.855201
      pz      :     1.006875  p :     3.031734
      px      :     1.012574
      py      :     1.012285
      dz2     :     0.019723  d :     0.113091
      dxz     :     0.033110
      dyz     :     0.019080
      dx2y2   :     0.023492
      dxy     :     0.017685
 51 C s       :     2.840546  s :     2.840546
      pz      :     1.018851  p :     3.071537
      px      :     1.025092
      py      :     1.027594
      dz2     :     0.016559  d :     0.110070
      dxz     :     0.021083
      dyz     :     0.026483
      dx2y2   :     0.025502
      dxy     :     0.020443
 52 C s       :     2.851240  s :     2.851240
      pz      :     0.973258  p :     3.016087
      px      :     1.017594
      py      :     1.025235
      dz2     :     0.014974  d :     0.109393
      dxz     :     0.023222
      dyz     :     0.016170
      dx2y2   :     0.026081
      dxy     :     0.028947
 53 C s       :     2.852926  s :     2.852926
      pz      :     1.051612  p :     3.012632
      px      :     0.979241
      py      :     0.981778
      dz2     :     0.033509  d :     0.117041
      dxz     :     0.021857
      dyz     :     0.026603
      dx2y2   :     0.022313
      dxy     :     0.012759
 54 C s       :     2.846700  s :     2.846700
      pz      :     0.996044  p :     3.022175
      px      :     1.033097
      py      :     0.993034
      dz2     :     0.022267  d :     0.113841
      dxz     :     0.024792
      dyz     :     0.015002
      dx2y2   :     0.030670
      dxy     :     0.021110
 55 C s       :     2.850919  s :     2.850919
      pz      :     1.030596  p :     3.033325
      px      :     1.014123
      py      :     0.988606
      dz2     :     0.029867  d :     0.113626
      dxz     :     0.029931
      dyz     :     0.020569
      dx2y2   :     0.015287
      dxy     :     0.017971
 56 C s       :     2.840635  s :     2.840635
      pz      :     1.023527  p :     3.078741
      px      :     1.032139
      py      :     1.023074
      dz2     :     0.023706  d :     0.111681
      dxz     :     0.024223
      dyz     :     0.027018
      dx2y2   :     0.022003
      dxy     :     0.014731
 57 C s       :     2.845211  s :     2.845211
      pz      :     1.021420  p :     3.044467
      px      :     1.044554
      py      :     0.978493
      dz2     :     0.024431  d :     0.114328
      dxz     :     0.040523
      dyz     :     0.013111
      dx2y2   :     0.014183
      dxy     :     0.022081
 58 C s       :     2.844782  s :     2.844782
      pz      :     1.009463  p :     3.054142
      px      :     1.036441
      py      :     1.008238
      dz2     :     0.020405  d :     0.111970
      dxz     :     0.023851
      dyz     :     0.013296
      dx2y2   :     0.022368
      dxy     :     0.032050
 59 C s       :     2.859658  s :     2.859658
      pz      :     1.024259  p :     3.010300
      px      :     1.015621
      py      :     0.970420
      dz2     :     0.029247  d :     0.111727
      dxz     :     0.030053
      dyz     :     0.019114
      dx2y2   :     0.016320
      dxy     :     0.016993


                      *****************************
                      * MAYER POPULATION ANALYSIS *
                      *****************************

  NA   - Mulliken gross atomic population
  ZA   - Total nuclear charge
  QA   - Mulliken gross atomic charge
  VA   - Mayer's total valence
  BVA  - Mayer's bonded valence
  FA   - Mayer's free valence

  ATOM       NA         ZA         QA         VA         BVA        FA
  0 C      6.0138     6.0000    -0.0138     3.7875     3.7875    -0.0000
  1 C      6.0115     6.0000    -0.0115     3.7794     3.7794     0.0000
  2 C      6.0209     6.0000    -0.0209     3.7819     3.7819     0.0000
  3 C      6.0240     6.0000    -0.0240     3.7798     3.7798    -0.0000
  4 C      6.0099     6.0000    -0.0099     3.7582     3.7582     0.0000
  5 C      5.9866     6.0000     0.0134     3.7633     3.7633    -0.0000
  6 C      5.9884     6.0000     0.0116     3.7622     3.7622    -0.0000
  7 C      6.0103     6.0000    -0.0103     3.7626     3.7626     0.0000
  8 C      6.0156     6.0000    -0.0156     3.7753     3.7753    -0.0000
  9 C      5.9853     6.0000     0.0147     3.7512     3.7512     0.0000
 10 C      6.0104     6.0000    -0.0104     3.7760     3.7760     0.0000
 11 C      5.9907     6.0000     0.0093     3.7594     3.7594     0.0000
 12 C      6.0146     6.0000    -0.0146     3.7566     3.7566    -0.0000
 13 C      6.0269     6.0000    -0.0269     3.7718     3.7718     0.0000
 14 C      5.9553     6.0000     0.0447     3.7016     3.7016    -0.0000
 15 C      6.0111     6.0000    -0.0111     3.7663     3.7663     0.0000
 16 C      6.0167     6.0000    -0.0167     3.7668     3.7668    -0.0000
 17 C      6.0025     6.0000    -0.0025     3.7638     3.7638    -0.0000
 18 C      5.9808     6.0000     0.0192     3.7384     3.7384     0.0000
 19 C      6.0059     6.0000    -0.0059     3.7615     3.7615     0.0000
 20 C      5.9860     6.0000     0.0140     3.7475     3.7475    -0.0000
 21 C      5.9894     6.0000     0.0106     3.7561     3.7561     0.0000
 22 C      5.9858     6.0000     0.0142     3.7418     3.7418    -0.0000
 23 C      5.9974     6.0000     0.0026     3.7554     3.7554     0.0000
 24 C      6.0136     6.0000    -0.0136     3.7550     3.7550     0.0000
 25 C      5.9785     6.0000     0.0215     3.6970     3.6970    -0.0000
 26 C      5.9898     6.0000     0.0102     3.7317     3.7317    -0.0000
 27 C      5.9869     6.0000     0.0131     3.7402     3.7402    -0.0000
 28 C      5.9785     6.0000     0.0215     3.7068     3.7068     0.0000
 29 C      5.9972     6.0000     0.0028     3.7356     3.7356     0.0000
 30 C      6.0250     6.0000    -0.0250     3.7586     3.7586     0.0000
 31 C      6.0108     6.0000    -0.0108     3.7503     3.7503     0.0000
 32 C      6.0237     6.0000    -0.0237     3.7714     3.7714     0.0000
 33 C      5.9543     6.0000     0.0457     3.6844     3.6844     0.0000
 34 C      5.9836     6.0000     0.0164     3.7283     3.7283     0.0000
 35 C      5.9982     6.0000     0.0018     3.7501     3.7501     0.0000
 36 C      6.0184     6.0000    -0.0184     3.7656     3.7656     0.0000
 37 C      6.0060     6.0000    -0.0060     3.7494     3.7494     0.0000
 38 C      5.9824     6.0000     0.0176     3.7064     3.7064     0.0000
 39 C      5.9536     6.0000     0.0464     3.6699     3.6699     0.0000
 40 C      6.0108     6.0000    -0.0108     3.7520     3.7520    -0.0000
 41 C      6.0129     6.0000    -0.0129     3.7391     3.7391     0.0000
 42 C      5.9857     6.0000     0.0143     3.7256     3.7256     0.0000
 43 C      6.0046     6.0000    -0.0046     3.7768     3.7768    -0.0000
 44 C      5.9591     6.0000     0.0409     3.6880     3.6880    -0.0000
 45 C      6.0198     6.0000    -0.0198     3.7660     3.7660    -0.0000
 46 C      6.0256     6.0000    -0.0256     3.7609     3.7609     0.0000
 47 C      6.0005     6.0000    -0.0005     3.7576     3.7576     0.0000
 48 C      6.0024     6.0000    -0.0024     3.7608     3.7608    -0.0000
 49 C      6.0045     6.0000    -0.0045     3.7715     3.7715    -0.0000
 50 C      6.0162     6.0000    -0.0162     3.7775     3.7775    -0.0000
 51 C      5.9955     6.0000     0.0045     3.7408     3.7408     0.0000
 52 C      6.0244     6.0000    -0.0244     3.7605     3.7605    -0.0000
 53 C      5.9986     6.0000     0.0014     3.7731     3.7731     0.0000
 54 C      5.9870     6.0000     0.0130     3.7580     3.7580     0.0000
 55 C      6.0185     6.0000    -0.0185     3.7818     3.7818    -0.0000
 56 C      6.0007     6.0000    -0.0007     3.7663     3.7663     0.0000
 57 C      5.9945     6.0000     0.0055     3.7692     3.7692    -0.0000
 58 C      5.9826     6.0000     0.0174     3.7479     3.7479    -0.0000
 59 C      6.0160     6.0000    -0.0160     3.7817     3.7817    -0.0000

  Mayer bond orders larger than 0.100000
B(  0-C ,  1-C ) :   1.3839 B(  0-C ,  3-C ) :   1.1224 B(  0-C ,  6-C ) :   1.1853 
B(  1-C ,  2-C ) :   1.1130 B(  1-C ,  9-C ) :   1.1956 B(  2-C ,  4-C ) :   1.2634 
B(  2-C , 11-C ) :   1.2857 B(  3-C ,  4-C ) :   1.2431 B(  3-C ,  5-C ) :   1.3154 
B(  4-C , 14-C ) :   1.1821 B(  5-C ,  7-C ) :   1.1287 B(  5-C , 16-C ) :   1.2304 
B(  6-C ,  7-C ) :   1.1684 B(  6-C ,  8-C ) :   1.3507 B(  7-C , 19-C ) :   1.3885 
B(  8-C , 10-C ) :   1.1913 B(  8-C , 21-C ) :   1.1662 B(  9-C , 10-C ) :   1.3584 
B(  9-C , 12-C ) :   1.1411 B( 10-C , 23-C ) :   1.1532 B( 11-C , 12-C ) :   1.1513 
B( 11-C , 13-C ) :   1.2484 B( 12-C , 25-C ) :   1.3522 B( 13-C , 15-C ) :   1.2473 
B( 13-C , 27-C ) :   1.2111 B( 14-C , 15-C ) :   1.2595 B( 14-C , 17-C ) :   1.2110 
B( 15-C , 29-C ) :   1.1569 B( 16-C , 17-C ) :   1.2956 B( 16-C , 18-C ) :   1.1586 
B( 17-C , 31-C ) :   1.1557 B( 18-C , 20-C ) :   1.3963 B( 18-C , 32-C ) :   1.1363 
B( 19-C , 20-C ) :   1.1276 B( 19-C , 22-C ) :   1.1793 B( 20-C , 35-C ) :   1.1420 
B( 21-C , 22-C ) :   1.3650 B( 21-C , 24-C ) :   1.1572 B( 22-C , 36-C ) :   1.1352 
B( 23-C , 24-C ) :   1.2821 B( 23-C , 26-C ) :   1.2573 B( 24-C , 38-C ) :   1.2303 
B( 25-C , 26-C ) :   1.1737 B( 25-C , 28-C ) :   1.1517 B( 26-C , 40-C ) :   1.2513 
B( 27-C , 28-C ) :   1.3375 B( 27-C , 30-C ) :   1.1334 B( 28-C , 42-C ) :   1.1543 
B( 29-C , 30-C ) :   1.3555 B( 29-C , 33-C ) :   1.1501 B( 30-C , 44-C ) :   1.1586 
B( 31-C , 32-C ) :   1.3065 B( 31-C , 33-C ) :   1.2212 B( 32-C , 34-C ) :   1.2411 
B( 33-C , 46-C ) :   1.2787 B( 34-C , 37-C ) :   1.2020 B( 34-C , 47-C ) :   1.2506 
B( 35-C , 36-C ) :   1.2916 B( 35-C , 37-C ) :   1.2512 B( 36-C , 39-C ) :   1.2380 
B( 37-C , 51-C ) :   1.2418 B( 38-C , 39-C ) :   1.1335 B( 38-C , 41-C ) :   1.2942 
B( 39-C , 52-C ) :   1.2784 B( 40-C , 41-C ) :   1.2836 B( 40-C , 43-C ) :   1.1485 
B( 41-C , 54-C ) :   1.0867 B( 42-C , 43-C ) :   1.3930 B( 42-C , 45-C ) :   1.1095 
B( 43-C , 55-C ) :   1.1060 B( 44-C , 45-C ) :   1.3374 B( 44-C , 48-C ) :   1.1591 
B( 45-C , 56-C ) :   1.2003 B( 46-C , 47-C ) :   1.2755 B( 46-C , 48-C ) :   1.1140 
B( 47-C , 49-C ) :   1.1637 B( 48-C , 50-C ) :   1.4130 B( 49-C , 50-C ) :   1.0821 
B( 49-C , 53-C ) :   1.4270 B( 50-C , 57-C ) :   1.1795 B( 51-C , 52-C ) :   1.2796 
B( 51-C , 53-C ) :   1.1720 B( 52-C , 58-C ) :   1.0957 B( 53-C , 59-C ) :   1.0736 
B( 54-C , 55-C ) :   1.3611 B( 54-C , 58-C ) :   1.2265 B( 55-C , 56-C ) :   1.2107 
B( 56-C , 57-C ) :   1.3071 B( 57-C , 59-C ) :   1.2191 B( 58-C , 59-C ) :   1.3713 


-------
TIMINGS
-------

Total SCF time: 0 days 1 hours 6 min 40 sec 

Total time                  ....    4000.392 sec
Sum of individual times     ....    3980.047 sec  ( 99.5%)

Fock matrix formation       ....    3890.726 sec  ( 97.3%)
  Split-RI-J                ....     201.457 sec  (  5.2% of F)
  Chain of spheres X        ....    3410.186 sec  ( 87.6% of F)
  XC integration            ....     258.750 sec  (  6.7% of F)
    Basis function eval.    ....      80.237 sec  ( 31.0% of XC)
    Density eval.           ....      92.456 sec  ( 35.7% of XC)
    XC-Functional eval.     ....       7.196 sec  (  2.8% of XC)
    XC-Potential eval.      ....      43.585 sec  ( 16.8% of XC)
Diagonalization             ....       3.004 sec  (  0.1%)
Density matrix formation    ....       0.835 sec  (  0.0%)
Population analysis         ....       0.736 sec  (  0.0%)
Initial guess               ....       1.075 sec  (  0.0%)
Orbital Transformation      ....       0.000 sec  (  0.0%)
Orbital Orthonormalization  ....       0.000 sec  (  0.0%)
DIIS solution               ....       2.467 sec  (  0.1%)
SOSCF solution              ....      13.160 sec  (  0.3%)
Grid generation             ....      68.043 sec  (  1.7%)

Maximum memory used throughout the entire SCF-calculation: 371.5 MB


-------------------------------------------------------------------------------
                          DFT DISPERSION CORRECTION                            
                                                                               
                              DFTD3 V3.1  Rev 1                                
                          USING Becke-Johnson damping                          
-------------------------------------------------------------------------------
The PBEh-3c composite method is recognized
Using three-body term ABC
Active option DFTDOPT                   ...         4   

molecular C6(AA) [au] = 83874.555146 


            DFT-D V3
 parameters
 s6 scaling factor         :     1.0000 
 a1 scaling factor         :     0.4860 
 s8 scaling factor         :     0.0000 
 a2 scaling factor         :     4.5000 
 Damping factor alpha9(ATM):    16.0000 
 ad hoc parameters k1-k3   :    16.0000     1.3333    -4.0000 

 Edisp/kcal,au: -61.028077417791  -0.097254421535 
 E6   /kcal   : -63.777830531 
 E8   /kcal   :  -0.000000000 
 E6(ABC)      :   2.749753113 
 % E8         :   0.000000000 
 % E6(ABC)    :  -4.505718072 

-------------------------   ----------------
Dispersion correction           -0.097254422
-------------------------   ----------------

------------------   -----------------
gCP correction             0.069824414
------------------   -----------------

-------------------------   --------------------
FINAL SINGLE POINT ENERGY     -2281.033083164460
-------------------------   --------------------


                            ***************************************
                            *     ORCA property calculations      *
                            ***************************************

                                    ---------------------
                                    Active property flags
                                    ---------------------
   (+) Dipole Moment


------------------------------------------------------------------------------
                       ORCA ELECTRIC PROPERTIES CALCULATION
------------------------------------------------------------------------------

Dipole Moment Calculation                       ... on
Quadrupole Moment Calculation                   ... off
Polarizability Calculation                      ... off
GBWName                                         ... pbeh-3c.gbw
Electron density                                ... pbeh-3c.scfp
The origin for moment calculation is the CENTER OF MASS  = (-0.000000, -0.000000  0.000000)

-------------
DIPOLE MOMENT
-------------
                                X             Y             Z
Electronic contribution:      0.01117      -0.42760       0.08508
Nuclear contribution   :     -0.00000      -0.00000      -0.00000
                        -----------------------------------------
Total Dipole Moment    :      0.01117      -0.42760       0.08508
                        -----------------------------------------
Magnitude (a.u.)       :      0.43613
Magnitude (Debye)      :      1.10855



--------------------
Rotational spectrum 
--------------------
 
Rotational constants in cm-1:     0.003371     0.002526     0.002465 
Rotational constants in MHz :   101.063383    75.724763    73.901680 

 Dipole components along the rotational axes: 
x,y,z [a.u.] :    -0.426948     0.000690     0.089014 
x,y,z [Debye]:    -1.085216     0.001755     0.226257 

 

Timings for individual modules:

Sum of individual times         ...     4017.998 sec (=  66.967 min)
GTO integral calculation        ...       16.406 sec (=   0.273 min)   0.4 %
SCF iterations                  ...     4001.593 sec (=  66.693 min)  99.6 %
                             ****ORCA TERMINATED NORMALLY****
TOTAL RUN TIME: 0 days 1 hours 7 minutes 2 seconds 898 msec
