
                                 *****************
                                 * O   R   C   A *
                                 *****************

                                            #,                                       
                                            ###                                      
                                            ####                                     
                                            #####                                    
                                            ######                                   
                                           ########,                                 
                                     ,,################,,,,,                         
                               ,,#################################,,                 
                          ,,##########################################,,             
                       ,#########################################, ''#####,          
                    ,#############################################,,   '####,        
                  ,##################################################,,,,####,       
                ,###########''''           ''''###############################       
              ,#####''   ,,,,##########,,,,          '''####'''          '####       
            ,##' ,,,,###########################,,,                        '##       
           ' ,,###''''                  '''############,,,                           
         ,,##''                                '''############,,,,        ,,,,,,###''
      ,#''                                            '''#######################'''  
     '                                                          ''''####''''         
             ,#######,   #######,   ,#######,      ##                                
            ,#'     '#,  ##    ##  ,#'     '#,    #''#        ######   ,####,        
            ##       ##  ##   ,#'  ##            #'  '#       #        #'  '#        
            ##       ##  #######   ##           ,######,      #####,   #    #        
            '#,     ,#'  ##    ##  '#,     ,#' ,#      #,         ##   #,  ,#        
             '#######'   ##     ##  '#######'  #'      '#     #####' # '####'        



                  #######################################################
                  #                        -***-                        #
                  #          Department of theory and spectroscopy      #
                  #    Directorship and core code : Frank Neese         #
                  #        Max Planck Institute fuer Kohlenforschung    #
                  #                Kaiser Wilhelm Platz 1               #
                  #                 D-45470 Muelheim/Ruhr               #
                  #                      Germany                        #
                  #                                                     #
                  #                  All rights reserved                #
                  #                        -***-                        #
                  #######################################################


                         Program Version 5.0.3 -  RELEASE  -


 With contributions from (in alphabetic order):
   Daniel Aravena         : Magnetic Suceptibility
   Michael Atanasov       : Ab Initio Ligand Field Theory (pilot matlab implementation)
   Alexander A. Auer      : GIAO ZORA, VPT2 properties, NMR spectrum
   Ute Becker             : Parallelization
   Giovanni Bistoni       : ED, misc. LED, open-shell LED, HFLD
   Martin Brehm           : Molecular dynamics
   Dmytro Bykov           : SCF Hessian
   Vijay G. Chilkuri      : MRCI spin determinant printing, contributions to CSF-ICE
   Dipayan Datta          : RHF DLPNO-CCSD density
   Achintya Kumar Dutta   : EOM-CC, STEOM-CC
   Dmitry Ganyushin       : Spin-Orbit,Spin-Spin,Magnetic field MRCI
   Miquel Garcia          : C-PCM and meta-GGA Hessian, CC/C-PCM, Gaussian charge scheme
   Yang Guo               : DLPNO-NEVPT2, F12-NEVPT2, CIM, IAO-localization
   Andreas Hansen         : Spin unrestricted coupled pair/coupled cluster methods
   Benjamin Helmich-Paris : MC-RPA, TRAH-SCF, COSX integrals
   Lee Huntington         : MR-EOM, pCC
   Robert Izsak           : Overlap fitted RIJCOSX, COSX-SCS-MP3, EOM
   Marcus Kettner         : VPT2
   Christian Kollmar      : KDIIS, OOCD, Brueckner-CCSD(T), CCSD density, CASPT2, CASPT2-K
   Simone Kossmann        : Meta GGA functionals, TD-DFT gradient, OOMP2, MP2 Hessian
   Martin Krupicka        : Initial AUTO-CI
   Lucas Lang             : DCDCAS
   Marvin Lechner         : AUTO-CI (C++ implementation), FIC-MRCC
   Dagmar Lenk            : GEPOL surface, SMD
   Dimitrios Liakos       : Extrapolation schemes; Compound Job, initial MDCI parallelization
   Dimitrios Manganas     : Further ROCIS development; embedding schemes
   Dimitrios Pantazis     : SARC Basis sets
   Anastasios Papadopoulos: AUTO-CI, single reference methods and gradients
   Taras Petrenko         : DFT Hessian,TD-DFT gradient, ASA, ECA, R-Raman, ABS, FL, XAS/XES, NRVS
   Peter Pinski           : DLPNO-MP2, DLPNO-MP2 Gradient
   Christoph Reimann      : Effective Core Potentials
   Marius Retegan         : Local ZFS, SOC
   Christoph Riplinger    : Optimizer, TS searches, QM/MM, DLPNO-CCSD(T), (RO)-DLPNO pert. Triples
   Tobias Risthaus        : Range-separated hybrids, TD-DFT gradient, RPA, STAB
   Michael Roemelt        : Original ROCIS implementation
   Masaaki Saitow         : Open-shell DLPNO-CCSD energy and density
   Barbara Sandhoefer     : DKH picture change effects
   Avijit Sen             : IP-ROCIS
   Kantharuban Sivalingam : CASSCF convergence, NEVPT2, FIC-MRCI
   Bernardo de Souza      : ESD, SOC TD-DFT
   Georgi Stoychev        : AutoAux, RI-MP2 NMR, DLPNO-MP2 response
   Willem Van den Heuvel  : Paramagnetic NMR
   Boris Wezisla          : Elementary symmetry handling
   Frank Wennmohs         : Technical directorship


 We gratefully acknowledge several colleagues who have allowed us to
 interface, adapt or use parts of their codes:
   Stefan Grimme, W. Hujo, H. Kruse, P. Pracht,  : VdW corrections, initial TS optimization,
                  C. Bannwarth, S. Ehlert          DFT functionals, gCP, sTDA/sTD-DF
   Ed Valeev, F. Pavosevic, A. Kumar             : LibInt (2-el integral package), F12 methods
   Garnet Chan, S. Sharma, J. Yang, R. Olivares  : DMRG
   Ulf Ekstrom                                   : XCFun DFT Library
   Mihaly Kallay                                 : mrcc  (arbitrary order and MRCC methods)
   Jiri Pittner, Ondrej Demel                    : Mk-CCSD
   Frank Weinhold                                : gennbo (NPA and NBO analysis)
   Christopher J. Cramer and Donald G. Truhlar   : smd solvation model
   Lars Goerigk                                  : TD-DFT with DH, B97 family of functionals
   V. Asgeirsson, H. Jonsson                     : NEB implementation
   FAccTs GmbH                                   : IRC, NEB, NEB-TS, DLPNO-Multilevel, CI-OPT
                                                   MM, QMMM, 2- and 3-layer-ONIOM, Crystal-QMMM,
                                                   LR-CPCM, SF, NACMEs, symmetry and pop. for TD-DFT,
                                                   nearIR, NL-DFT gradient (VV10), updates on ESD,
                                                   ML-optimized integration grids
   S Lehtola, MJT Oliveira, MAL Marques          : LibXC Library
   Liviu Ungur et al                             : ANISO software


 Your calculation uses the libint2 library for the computation of 2-el integrals
 For citations please refer to: http://libint.valeyev.net

 Your ORCA version has been built with support for libXC version: 5.1.0
 For citations please refer to: https://tddft.org/programs/libxc/

 This ORCA versions uses:
   CBLAS   interface :  Fast vector & matrix operations
   LAPACKE interface :  Fast linear algebra routines
   SCALAPACK package :  Parallel linear algebra routines
   Shared memory     :  Shared parallel matrices
   BLAS/LAPACK       :  OpenBLAS 0.3.15  USE64BITINT DYNAMIC_ARCH NO_AFFINITY Haswell SINGLE_THREADED
        Core in use  :  Haswell
   Copyright (c) 2011-2014, The OpenBLAS Project




***************************************
The coordinates will be read from file: 66.xyz
***************************************


Your calculation utilizes the geometrical counterpoise correction gCP
Please cite in your paper:
H.Kruse, S. Grimme J.Chem.Phys., 136, (2012), 154101 
   

Your calculation utilizes the atom-pairwise dispersion correction
with the Becke-Johnson damping scheme (D3BJ)
Cite in your paper:
S.Grimme, S.Ehrlich, L.Goerigk, J Comput Chem, (2011), 32, 1456–1465 
S.Grimme, J.Antony, S.Ehrlich and H.Krieg, J.Chem.Phys., 132, (2010), 154104 
   

Your calculation employs the composite approach PBEh-3c.
Please cite in your paper:
S. Grimme, J. G. Brandenburg, C. Bannwarth, A. Hansen J.Chem.Phys., 143, (2015), 054107 
   

================================================================================

----- Orbital basis set information -----
Your calculation utilizes the basis: def2-mSVP

----- AuxJ basis set information -----
Your calculation utilizes the auxiliary basis: def2/J
   F. Weigend, Phys. Chem. Chem. Phys. 8, 1057 (2006).

================================================================================
                                        WARNINGS
                       Please study these warnings very carefully!
================================================================================


INFO   : the flag for use of the SHARK integral package has been found!

================================================================================
                                       INPUT FILE
================================================================================
NAME = pbeh-3c.inp
|  1> ! PBEh-3c def2/J TightSCF DefGrid3
|  2> 
|  3> %maxcore 60000
|  4> 
|  5> %pal
|  6> nprocs 4
|  7> end
|  8> 
|  9> *xyzfile 0 1 66.xyz
| 10> 
| 11>                          ****END OF INPUT****
================================================================================

                       ****************************
                       * Single Point Calculation *
                       ****************************

---------------------------------
CARTESIAN COORDINATES (ANGSTROEM)
---------------------------------
  N     -2.558303   -0.118383   -0.520577
  H     -1.961690   -0.934077   -0.441875
  H     -3.486913   -0.422668   -0.258439
  C     -2.096043    0.894431    0.426877
  H     -2.737396    1.771454    0.360398
  H     -2.068002    0.575864    1.473932
  H     -1.090813    1.208644    0.150417
  N      0.324607   -1.404759   -0.281429
  C      0.663043   -0.592415   -1.293141
  H      0.120376   -0.736953   -2.218523
  C      1.634372    0.399719   -1.192774
  H      1.859225    1.024059   -2.045625
  C      2.295212    0.569260    0.019490
  H      3.053066    1.331497    0.135874
  C      1.955079   -0.265703    1.078613
  H      2.437668   -0.175240    2.041313
  C      0.971298   -1.230491    0.879429
  H      0.685214   -1.894239    1.686040

----------------------------
CARTESIAN COORDINATES (A.U.)
----------------------------
  NO LB      ZA    FRAG     MASS         X           Y           Z
   0 N     7.0000    0    14.007   -4.834491   -0.223711   -0.983748
   1 H     1.0000    0     1.008   -3.707057   -1.765150   -0.835023
   2 H     1.0000    0     1.008   -6.589310   -0.798726   -0.488378
   3 C     6.0000    0    12.011   -3.960947    1.690230    0.806680
   4 H     1.0000    0     1.008   -5.172929    3.347564    0.681054
   5 H     1.0000    0     1.008   -3.907957    1.088225    2.785329
   6 H     1.0000    0     1.008   -2.061337    2.284007    0.284247
   7 N     7.0000    0    14.007    0.613418   -2.654610   -0.531824
   8 C     6.0000    0    12.011    1.252970   -1.119502   -2.443683
   9 H     1.0000    0     1.008    0.227477   -1.392640   -4.192400
  10 C     6.0000    0    12.011    3.088516    0.755359   -2.254017
  11 H     1.0000    0     1.008    3.513425    1.935191   -3.865671
  12 C     6.0000    0    12.011    4.337322    1.075745    0.036831
  13 H     1.0000    0     1.008    5.769459    2.516165    0.256765
  14 C     6.0000    0    12.011    3.694564   -0.502105    2.038283
  15 H     1.0000    0     1.008    4.606524   -0.331156    3.857523
  16 C     6.0000    0    12.011    1.835487   -2.325292    1.661881
  17 H     1.0000    0     1.008    1.294866   -3.579593    3.186154

--------------------------------
INTERNAL COORDINATES (ANGSTROEM)
--------------------------------
 N      0   0   0     0.000000000000     0.00000000     0.00000000
 H      1   0   0     1.013655552925     0.00000000     0.00000000
 H      1   2   0     1.011742247993   106.14560898     0.00000000
 C      1   2   3     1.461897913307   108.72802117   117.49289392
 H      4   1   2     1.088542093186   109.40854195   180.70396139
 H      4   1   2     1.094804512743   115.23533997   302.50653111
 H      4   1   2     1.088874363443   109.10424452    63.69851984
 N      2   1   3     2.339751523737   137.93055575   197.98167012
 C      8   2   1     1.340896671563    94.18735645   312.53266281
 H      9   8   2     1.082455285396   115.95031447   308.12021029
 C      9   8   2     1.392078737796   123.60608772   127.26650058
 H     11   9   8     1.080607920576   120.00400959   180.16309504
 C     11   9   8     1.391056756423   118.76202936   359.85911062
 H     13  11   9     1.081153779066   120.84677530   180.20098518
 C     13  11   9     1.390896862953   118.31107041     0.12421641
 H     15  13  11     1.080679146964   121.25742691   180.04245976
 C      8   2   1     1.340212994187   120.31435562    77.20800943
 H     17   8   2     1.083063139085   115.97240105    66.87474113

---------------------------
INTERNAL COORDINATES (A.U.)
---------------------------
 N      0   0   0     0.000000000000     0.00000000     0.00000000
 H      1   0   0     1.915531389156     0.00000000     0.00000000
 H      1   2   0     1.911915766824   106.14560898     0.00000000
 C      1   2   3     2.762586691902   108.72802117   117.49289392
 H      4   1   2     2.057046441368   109.40854195   180.70396139
 H      4   1   2     2.068880699266   115.23533997   302.50653111
 H      4   1   2     2.057674341155   109.10424452    63.69851984
 N      2   1   3     4.421489601287   137.93055575   197.98167012
 C      8   2   1     2.533927483140    94.18735645   312.53266281
 H      9   8   2     2.045544041614   115.95031447   308.12021029
 C      9   8   2     2.630647571290   123.60608772   127.26650058
 H     11   9   8     2.042053028036   120.00400959   180.16309504
 C     11   9   8     2.628716306380   118.76202936   359.85911062
 H     13  11   9     2.043084551089   120.84677530   180.20098518
 C     13  11   9     2.628414151512   118.31107041     0.12421641
 H     15  13  11     2.042187626402   121.25742691   180.04245976
 C      8   2   1     2.532635520135   120.31435562    77.20800943
 H     17   8   2     2.046692718616   115.97240105    66.87474113

---------------------
BASIS SET INFORMATION
---------------------
There are 3 groups of distinct atoms

 Group   1 Type N   : 8s4p1d contracted to 4s2p1d pattern {5111/31/1}
 Group   2 Type H   : 4s contracted to 2s pattern {31}
 Group   3 Type C   : 8s4p1d contracted to 4s2p1d pattern {5111/31/1}

Atom   0N    basis set group =>   1
Atom   1H    basis set group =>   2
Atom   2H    basis set group =>   2
Atom   3C    basis set group =>   3
Atom   4H    basis set group =>   2
Atom   5H    basis set group =>   2
Atom   6H    basis set group =>   2
Atom   7N    basis set group =>   1
Atom   8C    basis set group =>   3
Atom   9H    basis set group =>   2
Atom  10C    basis set group =>   3
Atom  11H    basis set group =>   2
Atom  12C    basis set group =>   3
Atom  13H    basis set group =>   2
Atom  14C    basis set group =>   3
Atom  15H    basis set group =>   2
Atom  16C    basis set group =>   3
Atom  17H    basis set group =>   2
---------------------------------
AUXILIARY/J BASIS SET INFORMATION
---------------------------------
There are 3 groups of distinct atoms

 Group   1 Type N   : 12s5p4d2f1g contracted to 6s4p3d1f1g pattern {711111/2111/211/2/1}
 Group   2 Type H   : 5s2p1d contracted to 3s1p1d pattern {311/2/1}
 Group   3 Type C   : 12s5p4d2f1g contracted to 6s4p3d1f1g pattern {711111/2111/211/2/1}

Atom   0N    basis set group =>   1
Atom   1H    basis set group =>   2
Atom   2H    basis set group =>   2
Atom   3C    basis set group =>   3
Atom   4H    basis set group =>   2
Atom   5H    basis set group =>   2
Atom   6H    basis set group =>   2
Atom   7N    basis set group =>   1
Atom   8C    basis set group =>   3
Atom   9H    basis set group =>   2
Atom  10C    basis set group =>   3
Atom  11H    basis set group =>   2
Atom  12C    basis set group =>   3
Atom  13H    basis set group =>   2
Atom  14C    basis set group =>   3
Atom  15H    basis set group =>   2
Atom  16C    basis set group =>   3
Atom  17H    basis set group =>   2


           ************************************************************
           *        Program running with 4 parallel MPI-processes     *
           *              working on a common directory               *
           ************************************************************
------------------------------------------------------------------------------
                           ORCA GTO INTEGRAL CALCULATION
                           -- RI-GTO INTEGRALS CHOSEN --
------------------------------------------------------------------------------
------------------------------------------------------------------------------
                   ___                                                        
                  /   \      - P O W E R E D   B Y -                         
                 /     \                                                     
                 |  |  |   _    _      __       _____    __    __             
                 |  |  |  | |  | |    /  \     |  _  \  |  |  /  |          
                  \  \/   | |  | |   /    \    | | | |  |  | /  /          
                 / \  \   | |__| |  /  /\  \   | |_| |  |  |/  /          
                |  |  |   |  __  | /  /__\  \  |    /   |      \           
                |  |  |   | |  | | |   __   |  |    \   |  |\   \          
                \     /   | |  | | |  |  |  |  | |\  \  |  | \   \       
                 \___/    |_|  |_| |__|  |__|  |_| \__\ |__|  \__/        
                                                                              
                      - O R C A' S   B I G   F R I E N D -                    
                                      &                                       
                       - I N T E G R A L  F E E D E R -                       
                                                                              
 v1 FN, 2020, v2 2021                                                         
------------------------------------------------------------------------------


Reading SHARK input file pbeh-3c.SHARKINP.tmp ... ok
----------------------
SHARK INTEGRAL PACKAGE
----------------------

Number of atoms                             ...     18
Number of basis functions                   ...    140
Number of shells                            ...     76
Maximum angular momentum                    ...      2
Integral batch strategy                     ... SHARK/LIBINT Hybrid
RI-J (if used) integral strategy            ... SPLIT-RIJ (Revised 2003 algorithm where possible)
Printlevel                                  ...      1
Contraction scheme used                     ... SEGMENTED contraction
Coulomb Range Separation                    ... NOT USED
Exchange Range Separation                   ... NOT USED
Finite Nucleus Model                        ... NOT USED
Auxiliary Coulomb fitting basis             ... AVAILABLE
   # of basis functions in Aux-J            ...    502
   # of shells in Aux-J                     ...    170
   Maximum angular momentum in Aux-J        ...      4
Auxiliary J/K fitting basis                 ... NOT available
Auxiliary Correlation fitting basis         ... NOT available
Auxiliary 'external' fitting basis          ... NOT available
Integral threshold                          ...     2.500000e-11
Primitive cut-off                           ...     2.500000e-12
Primitive pair pre-selection threshold      ...     2.500000e-12

Calculating pre-screening integrals         ... done (  0.1 sec) Dimension = 76
Organizing shell pair data                  ... done (  0.2 sec)
Shell pair information
Total number of shell pairs                 ...      2926
Shell pairs after pre-screening             ...      2613
Total number of primitive shell pairs       ...     10574
Primitive shell pairs kept                  ...      6590
          la=0 lb=0:   1156 shell pairs
          la=1 lb=0:    794 shell pairs
          la=1 lb=1:    136 shell pairs
          la=2 lb=0:    366 shell pairs
          la=2 lb=1:    126 shell pairs
          la=2 lb=2:     35 shell pairs

Calculating one electron integrals          ... done (  0.0 sec)
Calculating RI/J V-Matrix + Cholesky decomp.... done (  0.4 sec)
Calculating Nuclear repulsion               ... done (  0.1 sec) ENN=    349.098699055786 Eh

SHARK setup successfully completed in   2.1 seconds

Maximum memory used throughout the entire GTOINT-calculation: 11.3 MB


           ************************************************************
           *        Program running with 4 parallel MPI-processes     *
           *              working on a common directory               *
           ************************************************************
-------------------------------------------------------------------------------
                                 ORCA SCF
-------------------------------------------------------------------------------

------------
SCF SETTINGS
------------
Hamiltonian:
 Density Functional     Method          .... DFT(GTOs)
 Exchange Functional    Exchange        .... PBE
   PBE kappa parameter   XKappa         ....  1.024500
   PBE mue parameter    XMuePBE         ....  0.123457
 Correlation Functional Correlation     .... PBE
   PBE beta parameter  CBetaPBE         ....  0.030000
 LDA part of GGA corr.  LDAOpt          .... PW91-LDA
 Gradients option       PostSCFGGA      .... off
 Hybrid DFT is turned on
   Fraction HF Exchange ScalHFX         ....  0.420000
   Scaling of DF-GGA-X  ScalDFX         ....  0.580000
   Scaling of DF-GGA-C  ScalDFC         ....  1.000000
   Scaling of DF-LDA-C  ScalLDAC        ....  1.000000
   Perturbative correction              ....  0.000000
   Density functional embedding theory  .... OFF
 RI-approximation to the Coulomb term is turned on
   Number of AuxJ basis functions       .... 502
   RIJ-ON(X) (HFX calculated with O(N)) .... on
   Number of AuxJ basis functions       .... 502
   RIJ-COSX (HFX calculated with COS-X)).... on


General Settings:
 Integral files         IntName         .... pbeh-3c
 Hartree-Fock type      HFTyp           .... RHF
 Total Charge           Charge          ....    0
 Multiplicity           Mult            ....    1
 Number of Electrons    NEL             ....   60
 Basis Dimension        Dim             ....  140
 Nuclear Repulsion      ENuc            ....    349.0986990558 Eh

Convergence Acceleration:
 DIIS                   CNVDIIS         .... on
   Start iteration      DIISMaxIt       ....    12
   Startup error        DIISStart       ....  0.200000
   # of expansion vecs  DIISMaxEq       ....     5
   Bias factor          DIISBfac        ....   1.050
   Max. coefficient     DIISMaxC        ....  10.000
 Trust-Rad. Augm. Hess. CNVTRAH         .... auto
   Auto Start mean grad. ratio tolernc. ....  1.125000
   Auto Start start iteration           ....    20
   Auto Start num. interpolation iter.  ....    10
   Max. Number of Micro iterations      ....    16
   Max. Number of Macro iterations      .... Maxiter - #DIIS iter
   Number of Davidson start vectors     ....     2
   Converg. threshold I  (grad. norm)   ....   1.000e-05
   Converg. threshold II (energy diff.) ....   1.000e-08
   Grad. Scal. Fac. for Micro threshold ....   0.100
   Minimum threshold for Micro iter.    ....   0.010
   NR start threshold (gradient norm)   ....   0.001
   Initial trust radius                 ....   0.400
   Minimum AH scaling param. (alpha)    ....   1.000
   Maximum AH scaling param. (alpha)    .... 1000.000
   Orbital update algorithm             .... Taylor
   White noise on init. David. guess    .... on
   Maximum white noise                  ....   0.010
   Quad. conv. algorithm                .... NR
   COSX micro iterations for RIJONX calc.... off
 SOSCF                  CNVSOSCF        .... on
   Start iteration      SOSCFMaxIt      ....   150
   Startup grad/error   SOSCFStart      ....  0.003300
 Level Shifting         CNVShift        .... on
   Level shift para.    LevelShift      ....    0.2500
   Turn off err/grad.   ShiftErr        ....    0.0010
 Zerner damping         CNVZerner       .... off
 Static damping         CNVDamp         .... on
   Fraction old density DampFac         ....    0.7000
   Max. Damping (<1)    DampMax         ....    0.9800
   Min. Damping (>=0)   DampMin         ....    0.0000
   Turn off err/grad.   DampErr         ....    0.1000
 Fernandez-Rico         CNVRico         .... off

SCF Procedure:
 Maximum # iterations   MaxIter         ....   125
 SCF integral mode      SCFMode         .... Direct
   Integral package                     .... SHARK and LIBINT hybrid scheme
 Reset frequency        DirectResetFreq ....    20
 Integral Threshold     Thresh          ....  2.500e-11 Eh
 Primitive CutOff       TCut            ....  2.500e-12 Eh

Convergence Tolerance:
 Convergence Check Mode ConvCheckMode   .... Total+1el-Energy
 Convergence forced     ConvForced      .... 0
 Energy Change          TolE            ....  1.000e-08 Eh
 1-El. energy change                    ....  1.000e-05 Eh
 Orbital Gradient       TolG            ....  1.000e-05
 Orbital Rotation angle TolX            ....  1.000e-05
 DIIS Error             TolErr          ....  5.000e-07


Diagonalization of the overlap matrix:
Smallest eigenvalue                        ... 1.031e-03
Time for diagonalization                   ...    0.004 sec
Threshold for overlap eigenvalues          ... 1.000e-08
Number of eigenvalues below threshold      ... 0
Time for construction of square roots      ...    0.231 sec
Total time needed                          ...    0.235 sec

--------------------------------
INITIAL GUESS: MINIMAL BASIS EHT
--------------------------------
The minimal basis has 50 functions
EHT matrix was diagonalized
Basis set overlap was calculated now projecting the orbitals
Using GuessMode=FMatrix for the initial guess
C*T matrix was formed
Effective Fockian was calculated
Effective Fockian was diagonalized
Initial density was built
                      ------------------
                      INITIAL GUESS DONE
                      ------------------
-------------------
DFT GRID GENERATION
-------------------

General Integration Accuracy     IntAcc      ... 4.959
Radial Grid Type                 RadialGrid  ... OptM3 with GC (2021)
Angular Grid (max. ang.)         AngularGrid ... 6 (Lebedev-590)
Angular grid pruning method      GridPruning ... 4 (adaptive)
Weight generation scheme         WeightScheme... Becke
Basis function cutoff            BFCut       ... 1.0000e-11
Integration weight cutoff        WCut        ... 1.0000e-14
Angular grids for H and He will be reduced by one unit
Partially contracted basis set               ... off
Rotationally invariant grid construction     ... off

Total number of grid points                  ...   201903
Total number of batches                      ...     3163
Average number of points per batch           ...       63
Average number of grid points per atom       ...    11217
Time for grid setup =    3.955 sec

--------------------
COSX GRID GENERATION
--------------------

GRIDX 1
-------
General Integration Accuracy     IntAcc      ... 4.020
Radial Grid Type                 RadialGrid  ... OptM3 with GC (2021)
Angular Grid (max. ang.)         AngularGrid ... 2 (Lebedev-110)
Angular grid pruning method      GridPruning ... 4 (adaptive)
Weight generation scheme         WeightScheme... Becke
Basis function cutoff            BFCut       ... 1.0000e-11
Integration weight cutoff        WCut        ... 1.0000e-14
Angular grids for H and He will be reduced by one unit
Partially contracted basis set               ... on
Rotationally invariant grid construction     ... off

Total number of grid points                  ...    22010
Total number of batches                      ...      352
Average number of points per batch           ...       62
Average number of grid points per atom       ...     1223
UseSFitting                                  ... on

GRIDX 2
-------
General Integration Accuracy     IntAcc      ... 4.338
Radial Grid Type                 RadialGrid  ... OptM3 with GC (2021)
Angular Grid (max. ang.)         AngularGrid ... 3 (Lebedev-194)
Angular grid pruning method      GridPruning ... 4 (adaptive)
Weight generation scheme         WeightScheme... Becke
Basis function cutoff            BFCut       ... 1.0000e-11
Integration weight cutoff        WCut        ... 1.0000e-14
Angular grids for H and He will be reduced by one unit
Partially contracted basis set               ... on
Rotationally invariant grid construction     ... off

Total number of grid points                  ...    48243
Total number of batches                      ...      763
Average number of points per batch           ...       63
Average number of grid points per atom       ...     2680
UseSFitting                                  ... on

GRIDX 3
-------
General Integration Accuracy     IntAcc      ... 4.871
Radial Grid Type                 RadialGrid  ... OptM3 with GC (2021)
Angular Grid (max. ang.)         AngularGrid ... 4 (Lebedev-302)
Angular grid pruning method      GridPruning ... 4 (adaptive)
Weight generation scheme         WeightScheme... Becke
Basis function cutoff            BFCut       ... 1.0000e-11
Integration weight cutoff        WCut        ... 1.0000e-14
Angular grids for H and He will be reduced by one unit
Partially contracted basis set               ... on
Rotationally invariant grid construction     ... off

Total number of grid points                  ...    93269
Total number of batches                      ...     1466
Average number of points per batch           ...       63
Average number of grid points per atom       ...     5182
UseSFitting                                  ... on

Time for X-Grid setup             =    5.370 sec

--------------
SCF ITERATIONS
--------------
ITER       Energy         Delta-E        Max-DP      RMS-DP      [F,P]     Damp
               ***  Starting incremental Fock matrix formation  ***
  0   -342.3914077133   0.000000000000 0.15664435  0.00499755  0.4132044 0.7000
  1   -342.7268479829  -0.335440269583 0.09345505  0.00326480  0.2919784 0.7000
  2   -342.9259955812  -0.199147598336 0.05462872  0.00210631  0.2048558 0.7000
                               ***Turning on DIIS***
  3   -343.0624445464  -0.136448965207 0.03326297  0.00148761  0.1443324 0.7000
  4   -343.1600191105  -0.097574564074 0.02664172  0.00116297  0.1014593 0.7000
  5   -343.2293632168  -0.069344106255 0.06585155  0.00290255  0.0709715 0.0000
  6   -343.3948910661  -0.165527849375 0.00642163  0.00015997  0.0046324 0.0000
                      *** Initiating the SOSCF procedure ***
                           *** Shutting down DIIS ***
                      *** Re-Reading the Fockian *** 
                      *** Removing any level shift *** 
ITER      Energy       Delta-E        Grad      Rot      Max-DP    RMS-DP
  7   -343.39499961  -0.0001085442  0.000924  0.000924  0.002984  0.000072
               *** Restarting incremental Fock matrix formation ***
  8   -343.39500801  -0.0000083960  0.000576  0.001347  0.003215  0.000060
  9   -343.39501315  -0.0000051463  0.000150  0.000722  0.001614  0.000033
 10   -343.39501395  -0.0000007946  0.000070  0.000224  0.000580  0.000012
 11   -343.39501423  -0.0000002817  0.000020  0.000064  0.000075  0.000002
 12   -343.39501422   0.0000000046  0.000029  0.000040  0.000048  0.000001
                  ***Gradient check signals convergence***
              ***Rediagonalizing the Fockian in SOSCF/NRSCF***

               *****************************************************
               *                     SUCCESS                       *
               *           SCF CONVERGED AFTER  13 CYCLES          *
               *****************************************************

Old exchange energy                            =    -20.089582480 Eh
New exchange energy                            =    -20.089584592 Eh
Exchange energy change after final integration =     -0.000002112 Eh
Total energy after final integration           =   -343.395016348 Eh
Final COS-X integration done in                =     6.009 sec

----------------
TOTAL SCF ENERGY
----------------

Total Energy       :         -343.39501635 Eh           -9344.25345 eV

Components:
Nuclear Repulsion  :          349.09869906 Eh            9499.45854 eV
Electronic Energy  :         -692.49371540 Eh          -18843.71199 eV
One Electron Energy:        -1155.12647003 Eh          -31432.58925 eV
Two Electron Energy:          462.63275463 Eh           12588.87726 eV
Max COSX asymmetry :            0.00000174 Eh               0.00005 eV

Virial components:
Potential Energy   :         -684.09356074 Eh          -18615.13216 eV
Kinetic Energy     :          340.69854439 Eh            9270.87872 eV
Virial Ratio       :            2.00791454


DFT components:
N(Alpha)           :       29.999995999020 electrons
N(Beta)            :       29.999995999020 electrons
N(Total)           :       59.999991998041 electrons
E(X)               :      -26.683460649470 Eh       
E(C)               :       -2.582359408763 Eh       
E(XC)              :      -29.265820058233 Eh       
DFET-embed. en.    :        0.000000000000 Eh       

---------------
SCF CONVERGENCE
---------------

  Last Energy change         ...   -1.1615e-08  Tolerance :   1.0000e-08
  Last MAX-Density change    ...    8.8818e-16  Tolerance :   1.0000e-07
  Last RMS-Density change    ...    3.1156e-17  Tolerance :   5.0000e-09
  Last Orbital Gradient      ...    2.1451e-06  Tolerance :   1.0000e-05
  Last Orbital Rotation      ...    5.6639e-06  Tolerance :   1.0000e-05

             **** THE GBW FILE WAS UPDATED (pbeh-3c.gbw) ****
             **** DENSITY pbeh-3c.scfp WAS UPDATED ****
             **** ENERGY FILE WAS UPDATED (pbeh-3c.en.tmp) ****
             **** THE GBW FILE WAS UPDATED (pbeh-3c.gbw) ****
             **** DENSITY pbeh-3c.scfp WAS UPDATED ****
----------------
ORBITAL ENERGIES
----------------

  NO   OCC          E(Eh)            E(eV) 
   0   2.0000     -14.646828      -398.5605 
   1   2.0000     -14.586714      -396.9247 
   2   2.0000     -10.488233      -285.3993 
   3   2.0000     -10.486173      -285.3433 
   4   2.0000     -10.474714      -285.0315 
   5   2.0000     -10.463002      -284.7128 
   6   2.0000     -10.462036      -284.6865 
   7   2.0000     -10.432683      -283.8877 
   8   2.0000      -1.051573       -28.6148 
   9   2.0000      -0.949067       -25.8254 
  10   2.0000      -0.905941       -24.6519 
  11   2.0000      -0.858587       -23.3633 
  12   2.0000      -0.720190       -19.5974 
  13   2.0000      -0.713590       -19.4178 
  14   2.0000      -0.713314       -19.4103 
  15   2.0000      -0.605068       -16.4647 
  16   2.0000      -0.551420       -15.0049 
  17   2.0000      -0.540435       -14.7060 
  18   2.0000      -0.532970       -14.5028 
  19   2.0000      -0.495397       -13.4805 
  20   2.0000      -0.479653       -13.0520 
  21   2.0000      -0.471616       -12.8333 
  22   2.0000      -0.459231       -12.4963 
  23   2.0000      -0.437172       -11.8960 
  24   2.0000      -0.425060       -11.5665 
  25   2.0000      -0.401972       -10.9382 
  26   2.0000      -0.337835        -9.1930 
  27   2.0000      -0.321116        -8.7380 
  28   2.0000      -0.309406        -8.4194 
  29   2.0000      -0.268678        -7.3111 
  30   0.0000      -0.010052        -0.2735 
  31   0.0000       0.005408         0.1472 
  32   0.0000       0.139419         3.7938 
  33   0.0000       0.158163         4.3038 
  34   0.0000       0.177103         4.8192 
  35   0.0000       0.193833         5.2745 
  36   0.0000       0.200039         5.4433 
  37   0.0000       0.209576         5.7029 
  38   0.0000       0.220780         6.0077 
  39   0.0000       0.225944         6.1483 
  40   0.0000       0.235273         6.4021 
  41   0.0000       0.241804         6.5798 
  42   0.0000       0.245985         6.6936 
  43   0.0000       0.273063         7.4304 
  44   0.0000       0.300811         8.1855 
  45   0.0000       0.312345         8.4994 
  46   0.0000       0.336682         9.1616 
  47   0.0000       0.339939         9.2502 
  48   0.0000       0.422717        11.5027 
  49   0.0000       0.468759        12.7556 
  50   0.0000       0.493162        13.4196 
  51   0.0000       0.521657        14.1950 
  52   0.0000       0.549975        14.9656 
  53   0.0000       0.557132        15.1603 
  54   0.0000       0.574821        15.6417 
  55   0.0000       0.599625        16.3166 
  56   0.0000       0.601169        16.3586 
  57   0.0000       0.609111        16.5748 
  58   0.0000       0.621402        16.9092 
  59   0.0000       0.627614        17.0783 
  60   0.0000       0.642189        17.4749 
  61   0.0000       0.659175        17.9371 
  62   0.0000       0.680584        18.5196 
  63   0.0000       0.725198        19.7337 
  64   0.0000       0.740088        20.1388 
  65   0.0000       0.818578        22.2746 
  66   0.0000       0.842801        22.9338 
  67   0.0000       0.886393        24.1200 
  68   0.0000       0.916066        24.9274 
  69   0.0000       0.929751        25.2998 
  70   0.0000       0.941989        25.6328 
  71   0.0000       0.945989        25.7417 
  72   0.0000       0.965174        26.2637 
  73   0.0000       0.992275        27.0012 
  74   0.0000       1.000157        27.2157 
  75   0.0000       1.022807        27.8320 
  76   0.0000       1.032164        28.0866 
  77   0.0000       1.047482        28.5034 
  78   0.0000       1.049878        28.5686 
  79   0.0000       1.059486        28.8301 
  80   0.0000       1.074349        29.2345 
  81   0.0000       1.086070        29.5535 
  82   0.0000       1.113715        30.3057 
  83   0.0000       1.121295        30.5120 
  84   0.0000       1.148687        31.2574 
  85   0.0000       1.165321        31.7100 
  86   0.0000       1.202946        32.7338 
  87   0.0000       1.236177        33.6381 
  88   0.0000       1.295827        35.2612 
  89   0.0000       1.309539        35.6344 
  90   0.0000       1.343933        36.5703 
  91   0.0000       1.435697        39.0673 
  92   0.0000       1.524969        41.4965 
  93   0.0000       1.527585        41.5677 
  94   0.0000       1.551334        42.2140 
  95   0.0000       1.572969        42.8027 
  96   0.0000       1.583096        43.0782 
  97   0.0000       1.601764        43.5862 
  98   0.0000       1.671244        45.4769 
  99   0.0000       1.763141        47.9775 
 100   0.0000       1.782192        48.4959 
 101   0.0000       1.870772        50.9063 
 102   0.0000       1.890641        51.4470 
 103   0.0000       1.958523        53.2941 
 104   0.0000       1.989013        54.1238 
 105   0.0000       2.049380        55.7665 
 106   0.0000       2.115468        57.5648 
 107   0.0000       2.120033        57.6890 
 108   0.0000       2.146416        58.4070 
 109   0.0000       2.183048        59.4037 
 110   0.0000       2.198394        59.8213 
 111   0.0000       2.232225        60.7419 
 112   0.0000       2.236978        60.8713 
 113   0.0000       2.242314        61.0165 
 114   0.0000       2.254703        61.3536 
 115   0.0000       2.351995        64.0010 
 116   0.0000       2.377550        64.6964 
 117   0.0000       2.424909        65.9851 
 118   0.0000       2.443827        66.4999 
 119   0.0000       2.469741        67.2051 
 120   0.0000       2.559479        69.6470 
 121   0.0000       2.587445        70.4080 
 122   0.0000       2.610803        71.0436 
 123   0.0000       2.693984        73.3070 
 124   0.0000       2.716545        73.9209 
 125   0.0000       2.744824        74.6904 
 126   0.0000       2.758972        75.0754 
 127   0.0000       2.790847        75.9428 
 128   0.0000       2.826939        76.9249 
 129   0.0000       2.851378        77.5899 
 130   0.0000       3.080818        83.8333 
 131   0.0000       3.456410        94.0537 
 132   0.0000      13.327721       362.6657 
 133   0.0000      13.619963       370.6180 
 134   0.0000      13.761483       374.4690 
 135   0.0000      13.863033       377.2323 
 136   0.0000      14.117614       384.1598 
 137   0.0000      14.314481       389.5168 
 138   0.0000      19.162241       521.4311 
 139   0.0000      19.450622       529.2783 

                    ********************************
                    * MULLIKEN POPULATION ANALYSIS *
                    ********************************

-----------------------
MULLIKEN ATOMIC CHARGES
-----------------------
   0 N :   -0.759141
   1 H :    0.340581
   2 H :    0.306738
   3 C :   -0.503271
   4 H :    0.208915
   5 H :    0.174634
   6 H :    0.216878
   7 N :   -0.385384
   8 C :   -0.032838
   9 H :    0.249906
  10 C :   -0.290674
  11 H :    0.236367
  12 C :   -0.139058
  13 H :    0.237662
  14 C :   -0.293618
  15 H :    0.233735
  16 C :   -0.036502
  17 H :    0.235070
Sum of atomic charges:   -0.0000000

--------------------------------
MULLIKEN REDUCED ORBITAL CHARGES
--------------------------------
  0 N s       :     3.629583  s :     3.629583
      pz      :     1.663738  p :     4.092910
      px      :     1.190837
      py      :     1.238334
      dz2     :     0.007075  d :     0.036648
      dxz     :     0.006115
      dyz     :     0.006883
      dx2y2   :     0.005658
      dxy     :     0.010917
  1 H s       :     0.659419  s :     0.659419
  2 H s       :     0.693262  s :     0.693262
  3 C s       :     3.336281  s :     3.336281
      pz      :     0.998724  p :     3.114675
      px      :     1.123209
      py      :     0.992742
      dz2     :     0.019197  d :     0.052316
      dxz     :     0.004015
      dyz     :     0.009523
      dx2y2   :     0.007924
      dxy     :     0.011657
  4 H s       :     0.791085  s :     0.791085
  5 H s       :     0.825366  s :     0.825366
  6 H s       :     0.783122  s :     0.783122
  7 N s       :     3.625466  s :     3.625466
      pz      :     1.039707  p :     3.717917
      px      :     1.347733
      py      :     1.330478
      dz2     :     0.006982  d :     0.042000
      dxz     :     0.011219
      dyz     :     0.010733
      dx2y2   :     0.007679
      dxy     :     0.005388
  8 C s       :     3.166357  s :     3.166357
      pz      :     0.969890  p :     2.807353
      px      :     0.943318
      py      :     0.894145
      dz2     :     0.015781  d :     0.059128
      dxz     :     0.013589
      dyz     :     0.012353
      dx2y2   :     0.008758
      dxy     :     0.008646
  9 H s       :     0.750094  s :     0.750094
 10 C s       :     3.266411  s :     3.266411
      pz      :     1.015054  p :     2.986070
      px      :     0.957346
      py      :     1.013671
      dz2     :     0.009144  d :     0.038193
      dxz     :     0.007491
      dyz     :     0.010279
      dx2y2   :     0.005325
      dxy     :     0.005953
 11 H s       :     0.763633  s :     0.763633
 12 C s       :     3.231364  s :     3.231364
      pz      :     0.908670  p :     2.867174
      px      :     0.980306
      py      :     0.978198
      dz2     :     0.011442  d :     0.040519
      dxz     :     0.008564
      dyz     :     0.008937
      dx2y2   :     0.003360
      dxy     :     0.008216
 13 H s       :     0.762338  s :     0.762338
 14 C s       :     3.265936  s :     3.265936
      pz      :     1.060033  p :     2.989474
      px      :     0.992797
      py      :     0.936644
      dz2     :     0.010226  d :     0.038208
      dxz     :     0.008709
      dyz     :     0.007294
      dx2y2   :     0.005740
      dxy     :     0.006240
 15 H s       :     0.766265  s :     0.766265
 16 C s       :     3.161217  s :     3.161217
      pz      :     0.926908  p :     2.816170
      px      :     0.920729
      py      :     0.968533
      dz2     :     0.014481  d :     0.059115
      dxz     :     0.013391
      dyz     :     0.016529
      dx2y2   :     0.007654
      dxy     :     0.007060
 17 H s       :     0.764930  s :     0.764930


                     *******************************
                     * LOEWDIN POPULATION ANALYSIS *
                     *******************************

----------------------
LOEWDIN ATOMIC CHARGES
----------------------
   0 N :   -0.495766
   1 H :    0.223859
   2 H :    0.214232
   3 C :   -0.279602
   4 H :    0.114859
   5 H :    0.088021
   6 H :    0.119341
   7 N :   -0.148164
   8 C :   -0.050446
   9 H :    0.137714
  10 C :   -0.162034
  11 H :    0.144345
  12 C :   -0.101138
  13 H :    0.142159
  14 C :   -0.164345
  15 H :    0.142982
  16 C :   -0.056669
  17 H :    0.130653

-------------------------------
LOEWDIN REDUCED ORBITAL CHARGES
-------------------------------
  0 N s       :     3.254532  s :     3.254532
      pz      :     1.692637  p :     4.176725
      px      :     1.209752
      py      :     1.274336
      dz2     :     0.011448  d :     0.064509
      dxz     :     0.008759
      dyz     :     0.012348
      dx2y2   :     0.012097
      dxy     :     0.019858
  1 H s       :     0.776141  s :     0.776141
  2 H s       :     0.785768  s :     0.785768
  3 C s       :     2.946477  s :     2.946477
      pz      :     1.059439  p :     3.233319
      px      :     1.126889
      py      :     1.046990
      dz2     :     0.037351  d :     0.099806
      dxz     :     0.007517
      dyz     :     0.019342
      dx2y2   :     0.014614
      dxy     :     0.020982
  4 H s       :     0.885141  s :     0.885141
  5 H s       :     0.911979  s :     0.911979
  6 H s       :     0.880659  s :     0.880659
  7 N s       :     3.212093  s :     3.212093
      pz      :     1.157613  p :     3.845826
      px      :     1.344309
      py      :     1.343905
      dz2     :     0.021645  d :     0.090245
      dxz     :     0.025281
      dyz     :     0.025171
      dx2y2   :     0.010187
      dxy     :     0.007961
  8 C s       :     2.889654  s :     2.889654
      pz      :     1.034186  p :     3.030175
      px      :     1.002272
      py      :     0.993717
      dz2     :     0.034695  d :     0.130618
      dxz     :     0.027403
      dyz     :     0.028131
      dx2y2   :     0.018122
      dxy     :     0.022266
  9 H s       :     0.862286  s :     0.862286
 10 C s       :     2.902439  s :     2.902439
      pz      :     1.076829  p :     3.171979
      px      :     1.045853
      py      :     1.049297
      dz2     :     0.021625  d :     0.087616
      dxz     :     0.018647
      dyz     :     0.021945
      dx2y2   :     0.011099
      dxy     :     0.014299
 11 H s       :     0.855655  s :     0.855655
 12 C s       :     2.897659  s :     2.897659
      pz      :     1.082530  p :     3.112551
      px      :     1.009816
      py      :     1.020204
      dz2     :     0.028012  d :     0.090928
      dxz     :     0.020493
      dyz     :     0.021956
      dx2y2   :     0.006045
      dxy     :     0.014422
 13 H s       :     0.857841  s :     0.857841
 14 C s       :     2.902613  s :     2.902613
      pz      :     1.076469  p :     3.174087
      px      :     1.045391
      py      :     1.052227
      dz2     :     0.022571  d :     0.087644
      dxz     :     0.018631
      dyz     :     0.018401
      dx2y2   :     0.012427
      dxy     :     0.015615
 15 H s       :     0.857018  s :     0.857018
 16 C s       :     2.888708  s :     2.888708
      pz      :     1.022363  p :     3.036854
      px      :     0.997705
      py      :     1.016786
      dz2     :     0.032617  d :     0.131106
      dxz     :     0.030870
      dyz     :     0.034658
      dx2y2   :     0.015580
      dxy     :     0.017380
 17 H s       :     0.869347  s :     0.869347


                      *****************************
                      * MAYER POPULATION ANALYSIS *
                      *****************************

  NA   - Mulliken gross atomic population
  ZA   - Total nuclear charge
  QA   - Mulliken gross atomic charge
  VA   - Mayer's total valence
  BVA  - Mayer's bonded valence
  FA   - Mayer's free valence

  ATOM       NA         ZA         QA         VA         BVA        FA
  0 N      7.7591     7.0000    -0.7591     2.7487     2.7487     0.0000
  1 H      0.6594     1.0000     0.3406     0.8585     0.8585     0.0000
  2 H      0.6933     1.0000     0.3067     0.8661     0.8661     0.0000
  3 C      6.5033     6.0000    -0.5033     3.8042     3.8042    -0.0000
  4 H      0.7911     1.0000     0.2089     0.9114     0.9114     0.0000
  5 H      0.8254     1.0000     0.1746     0.9105     0.9105     0.0000
  6 H      0.7831     1.0000     0.2169     0.9089     0.9089    -0.0000
  7 N      7.3854     7.0000    -0.3854     3.1088     3.1088    -0.0000
  8 C      6.0328     6.0000    -0.0328     3.8213     3.8213    -0.0000
  9 H      0.7501     1.0000     0.2499     0.8979     0.8979     0.0000
 10 C      6.2907     6.0000    -0.2907     3.8016     3.8016     0.0000
 11 H      0.7636     1.0000     0.2364     0.9112     0.9112    -0.0000
 12 C      6.1391     6.0000    -0.1391     3.7535     3.7535     0.0000
 13 H      0.7623     1.0000     0.2377     0.9053     0.9053     0.0000
 14 C      6.2936     6.0000    -0.2936     3.7963     3.7963    -0.0000
 15 H      0.7663     1.0000     0.2337     0.9123     0.9123     0.0000
 16 C      6.0365     6.0000    -0.0365     3.8439     3.8439    -0.0000
 17 H      0.7649     1.0000     0.2351     0.9010     0.9010    -0.0000

  Mayer bond orders larger than 0.100000
B(  0-N ,  1-H ) :   0.8280 B(  0-N ,  2-H ) :   0.8707 B(  0-N ,  3-C ) :   1.0410 
B(  3-C ,  4-H ) :   0.9280 B(  3-C ,  5-H ) :   0.9194 B(  3-C ,  6-H ) :   0.9218 
B(  7-N ,  8-C ) :   1.4624 B(  7-N , 16-C ) :   1.4871 B(  8-C ,  9-H ) :   0.9094 
B(  8-C , 10-C ) :   1.3895 B( 10-C , 11-H ) :   0.9126 B( 10-C , 12-C ) :   1.4117 
B( 12-C , 13-H ) :   0.9171 B( 12-C , 14-C ) :   1.4118 B( 14-C , 15-H ) :   0.9131 
B( 14-C , 16-C ) :   1.3859 B( 16-C , 17-H ) :   0.9155 

-------
TIMINGS
-------

Total SCF time: 0 days 0 hours 1 min 46 sec 

Total time                  ....     106.713 sec
Sum of individual times     ....      99.237 sec  ( 93.0%)

Fock matrix formation       ....      83.660 sec  ( 78.4%)
  Split-RI-J                ....       9.131 sec  ( 10.9% of F)
  Chain of spheres X        ....      38.635 sec  ( 46.2% of F)
  XC integration            ....      21.845 sec  ( 26.1% of F)
    Basis function eval.    ....       4.391 sec  ( 20.1% of XC)
    Density eval.           ....       2.783 sec  ( 12.7% of XC)
    XC-Functional eval.     ....       2.080 sec  (  9.5% of XC)
    XC-Potential eval.      ....       1.493 sec  (  6.8% of XC)
Diagonalization             ....       1.873 sec  (  1.8%)
Density matrix formation    ....       0.272 sec  (  0.3%)
Population analysis         ....       0.108 sec  (  0.1%)
Initial guess               ....       0.025 sec  (  0.0%)
Orbital Transformation      ....       0.000 sec  (  0.0%)
Orbital Orthonormalization  ....       0.000 sec  (  0.0%)
DIIS solution               ....       2.446 sec  (  2.3%)
SOSCF solution              ....       1.527 sec  (  1.4%)
Grid generation             ....       9.325 sec  (  8.7%)

Maximum memory used throughout the entire SCF-calculation: 56.1 MB


-------------------------------------------------------------------------------
                          DFT DISPERSION CORRECTION                            
                                                                               
                              DFTD3 V3.1  Rev 1                                
                          USING Becke-Johnson damping                          
-------------------------------------------------------------------------------
The PBEh-3c composite method is recognized
Using three-body term ABC
Active option DFTDOPT                   ...         4   

molecular C6(AA) [au] = 3052.774817 


            DFT-D V3
 parameters
 s6 scaling factor         :     1.0000 
 a1 scaling factor         :     0.4860 
 s8 scaling factor         :     0.0000 
 a2 scaling factor         :     4.5000 
 Damping factor alpha9(ATM):    16.0000 
 ad hoc parameters k1-k3   :    16.0000     1.3333    -4.0000 

 Edisp/kcal,au: -5.723612807141  -0.009121156625 
 E6   /kcal   :  -5.769656471 
 E8   /kcal   :  -0.000000000 
 E6(ABC)      :   0.046043664 
 % E8         :   0.000000000 
 % E6(ABC)    :  -0.804451054 

-------------------------   ----------------
Dispersion correction           -0.009121157
-------------------------   ----------------

------------------   -----------------
gCP correction             0.026006079
------------------   -----------------

-------------------------   --------------------
FINAL SINGLE POINT ENERGY      -343.378131425162
-------------------------   --------------------


                            ***************************************
                            *     ORCA property calculations      *
                            ***************************************

                                    ---------------------
                                    Active property flags
                                    ---------------------
   (+) Dipole Moment


------------------------------------------------------------------------------
                       ORCA ELECTRIC PROPERTIES CALCULATION
------------------------------------------------------------------------------

Dipole Moment Calculation                       ... on
Quadrupole Moment Calculation                   ... off
Polarizability Calculation                      ... off
GBWName                                         ... pbeh-3c.gbw
Electron density                                ... pbeh-3c.scfp
The origin for moment calculation is the CENTER OF MASS  = ( 0.525491, -0.382151 -0.194224)

-------------
DIPOLE MOMENT
-------------
                                X             Y             Z
Electronic contribution:      6.34259      -3.20735      -1.22416
Nuclear contribution   :     -5.61632       3.53133       1.78985
                        -----------------------------------------
Total Dipole Moment    :      0.72628       0.32397       0.56570
                        -----------------------------------------
Magnitude (a.u.)       :      0.97594
Magnitude (Debye)      :      2.48063



--------------------
Rotational spectrum 
--------------------
 
Rotational constants in cm-1:     0.106559     0.040359     0.038985 
Rotational constants in MHz :  3194.556671  1209.941734  1168.753117 

 Dipole components along the rotational axes: 
x,y,z [a.u.] :     0.726436    -0.363884     0.540678 
x,y,z [Debye]:     1.846452    -0.924919     1.374293 

 

Timings for individual modules:

Sum of individual times         ...      110.617 sec (=   1.844 min)
GTO integral calculation        ...        2.834 sec (=   0.047 min)   2.6 %
SCF iterations                  ...      107.783 sec (=   1.796 min)  97.4 %
                             ****ORCA TERMINATED NORMALLY****
TOTAL RUN TIME: 0 days 0 hours 1 minutes 52 seconds 505 msec
