
                                 *****************
                                 * O   R   C   A *
                                 *****************

                                            #,                                       
                                            ###                                      
                                            ####                                     
                                            #####                                    
                                            ######                                   
                                           ########,                                 
                                     ,,################,,,,,                         
                               ,,#################################,,                 
                          ,,##########################################,,             
                       ,#########################################, ''#####,          
                    ,#############################################,,   '####,        
                  ,##################################################,,,,####,       
                ,###########''''           ''''###############################       
              ,#####''   ,,,,##########,,,,          '''####'''          '####       
            ,##' ,,,,###########################,,,                        '##       
           ' ,,###''''                  '''############,,,                           
         ,,##''                                '''############,,,,        ,,,,,,###''
      ,#''                                            '''#######################'''  
     '                                                          ''''####''''         
             ,#######,   #######,   ,#######,      ##                                
            ,#'     '#,  ##    ##  ,#'     '#,    #''#        ######   ,####,        
            ##       ##  ##   ,#'  ##            #'  '#       #        #'  '#        
            ##       ##  #######   ##           ,######,      #####,   #    #        
            '#,     ,#'  ##    ##  '#,     ,#' ,#      #,         ##   #,  ,#        
             '#######'   ##     ##  '#######'  #'      '#     #####' # '####'        



                  #######################################################
                  #                        -***-                        #
                  #          Department of theory and spectroscopy      #
                  #    Directorship and core code : Frank Neese         #
                  #        Max Planck Institute fuer Kohlenforschung    #
                  #                Kaiser Wilhelm Platz 1               #
                  #                 D-45470 Muelheim/Ruhr               #
                  #                      Germany                        #
                  #                                                     #
                  #                  All rights reserved                #
                  #                        -***-                        #
                  #######################################################


                         Program Version 5.0.3 -  RELEASE  -


 With contributions from (in alphabetic order):
   Daniel Aravena         : Magnetic Suceptibility
   Michael Atanasov       : Ab Initio Ligand Field Theory (pilot matlab implementation)
   Alexander A. Auer      : GIAO ZORA, VPT2 properties, NMR spectrum
   Ute Becker             : Parallelization
   Giovanni Bistoni       : ED, misc. LED, open-shell LED, HFLD
   Martin Brehm           : Molecular dynamics
   Dmytro Bykov           : SCF Hessian
   Vijay G. Chilkuri      : MRCI spin determinant printing, contributions to CSF-ICE
   Dipayan Datta          : RHF DLPNO-CCSD density
   Achintya Kumar Dutta   : EOM-CC, STEOM-CC
   Dmitry Ganyushin       : Spin-Orbit,Spin-Spin,Magnetic field MRCI
   Miquel Garcia          : C-PCM and meta-GGA Hessian, CC/C-PCM, Gaussian charge scheme
   Yang Guo               : DLPNO-NEVPT2, F12-NEVPT2, CIM, IAO-localization
   Andreas Hansen         : Spin unrestricted coupled pair/coupled cluster methods
   Benjamin Helmich-Paris : MC-RPA, TRAH-SCF, COSX integrals
   Lee Huntington         : MR-EOM, pCC
   Robert Izsak           : Overlap fitted RIJCOSX, COSX-SCS-MP3, EOM
   Marcus Kettner         : VPT2
   Christian Kollmar      : KDIIS, OOCD, Brueckner-CCSD(T), CCSD density, CASPT2, CASPT2-K
   Simone Kossmann        : Meta GGA functionals, TD-DFT gradient, OOMP2, MP2 Hessian
   Martin Krupicka        : Initial AUTO-CI
   Lucas Lang             : DCDCAS
   Marvin Lechner         : AUTO-CI (C++ implementation), FIC-MRCC
   Dagmar Lenk            : GEPOL surface, SMD
   Dimitrios Liakos       : Extrapolation schemes; Compound Job, initial MDCI parallelization
   Dimitrios Manganas     : Further ROCIS development; embedding schemes
   Dimitrios Pantazis     : SARC Basis sets
   Anastasios Papadopoulos: AUTO-CI, single reference methods and gradients
   Taras Petrenko         : DFT Hessian,TD-DFT gradient, ASA, ECA, R-Raman, ABS, FL, XAS/XES, NRVS
   Peter Pinski           : DLPNO-MP2, DLPNO-MP2 Gradient
   Christoph Reimann      : Effective Core Potentials
   Marius Retegan         : Local ZFS, SOC
   Christoph Riplinger    : Optimizer, TS searches, QM/MM, DLPNO-CCSD(T), (RO)-DLPNO pert. Triples
   Tobias Risthaus        : Range-separated hybrids, TD-DFT gradient, RPA, STAB
   Michael Roemelt        : Original ROCIS implementation
   Masaaki Saitow         : Open-shell DLPNO-CCSD energy and density
   Barbara Sandhoefer     : DKH picture change effects
   Avijit Sen             : IP-ROCIS
   Kantharuban Sivalingam : CASSCF convergence, NEVPT2, FIC-MRCI
   Bernardo de Souza      : ESD, SOC TD-DFT
   Georgi Stoychev        : AutoAux, RI-MP2 NMR, DLPNO-MP2 response
   Willem Van den Heuvel  : Paramagnetic NMR
   Boris Wezisla          : Elementary symmetry handling
   Frank Wennmohs         : Technical directorship


 We gratefully acknowledge several colleagues who have allowed us to
 interface, adapt or use parts of their codes:
   Stefan Grimme, W. Hujo, H. Kruse, P. Pracht,  : VdW corrections, initial TS optimization,
                  C. Bannwarth, S. Ehlert          DFT functionals, gCP, sTDA/sTD-DF
   Ed Valeev, F. Pavosevic, A. Kumar             : LibInt (2-el integral package), F12 methods
   Garnet Chan, S. Sharma, J. Yang, R. Olivares  : DMRG
   Ulf Ekstrom                                   : XCFun DFT Library
   Mihaly Kallay                                 : mrcc  (arbitrary order and MRCC methods)
   Jiri Pittner, Ondrej Demel                    : Mk-CCSD
   Frank Weinhold                                : gennbo (NPA and NBO analysis)
   Christopher J. Cramer and Donald G. Truhlar   : smd solvation model
   Lars Goerigk                                  : TD-DFT with DH, B97 family of functionals
   V. Asgeirsson, H. Jonsson                     : NEB implementation
   FAccTs GmbH                                   : IRC, NEB, NEB-TS, DLPNO-Multilevel, CI-OPT
                                                   MM, QMMM, 2- and 3-layer-ONIOM, Crystal-QMMM,
                                                   LR-CPCM, SF, NACMEs, symmetry and pop. for TD-DFT,
                                                   nearIR, NL-DFT gradient (VV10), updates on ESD,
                                                   ML-optimized integration grids
   S Lehtola, MJT Oliveira, MAL Marques          : LibXC Library
   Liviu Ungur et al                             : ANISO software


 Your calculation uses the libint2 library for the computation of 2-el integrals
 For citations please refer to: http://libint.valeyev.net

 Your ORCA version has been built with support for libXC version: 5.1.0
 For citations please refer to: https://tddft.org/programs/libxc/

 This ORCA versions uses:
   CBLAS   interface :  Fast vector & matrix operations
   LAPACKE interface :  Fast linear algebra routines
   SCALAPACK package :  Parallel linear algebra routines
   Shared memory     :  Shared parallel matrices
   BLAS/LAPACK       :  OpenBLAS 0.3.15  USE64BITINT DYNAMIC_ARCH NO_AFFINITY Haswell SINGLE_THREADED
        Core in use  :  Haswell
   Copyright (c) 2011-2014, The OpenBLAS Project




***************************************
The coordinates will be read from file: 148A.xyz
***************************************


Your calculation utilizes the geometrical counterpoise correction gCP
Please cite in your paper:
H.Kruse, S. Grimme J.Chem.Phys., 136, (2012), 154101 
   

Your calculation utilizes the atom-pairwise dispersion correction
with the Becke-Johnson damping scheme (D3BJ)
Cite in your paper:
S.Grimme, S.Ehrlich, L.Goerigk, J Comput Chem, (2011), 32, 1456–1465 
S.Grimme, J.Antony, S.Ehrlich and H.Krieg, J.Chem.Phys., 132, (2010), 154104 
   

Your calculation employs the composite approach PBEh-3c.
Please cite in your paper:
S. Grimme, J. G. Brandenburg, C. Bannwarth, A. Hansen J.Chem.Phys., 143, (2015), 054107 
   

================================================================================

----- Orbital basis set information -----
Your calculation utilizes the basis: def2-mSVP

----- AuxJ basis set information -----
Your calculation utilizes the auxiliary basis: def2/J
   F. Weigend, Phys. Chem. Chem. Phys. 8, 1057 (2006).

================================================================================
                                        WARNINGS
                       Please study these warnings very carefully!
================================================================================


INFO   : the flag for use of the SHARK integral package has been found!

================================================================================
                                       INPUT FILE
================================================================================
NAME = pbeh-3c.inp
|  1> ! PBEh-3c def2/J TightSCF DefGrid3
|  2> 
|  3> %maxcore 60000
|  4> 
|  5> %pal
|  6> nprocs 4
|  7> end
|  8> 
|  9> *xyzfile 1 1 148A.xyz
| 10> 
| 11>                          ****END OF INPUT****
================================================================================

                       ****************************
                       * Single Point Calculation *
                       ****************************

---------------------------------
CARTESIAN COORDINATES (ANGSTROEM)
---------------------------------
  C      1.053720   -0.013400   -0.387760
  N     -0.184590   -0.013380    0.251910
  C      0.033260   -0.013370    1.587460
  N      1.347050   -0.013380    1.807940
  C      2.009050   -0.013380    0.598980
  C     -1.505760   -0.013380   -0.396870
  H      1.664740   -0.013380    2.774270
  H     -0.707370   -0.013370    2.377550
  H      3.088250   -0.013370    0.535960
  H      1.137000   -0.013410   -1.466220
  H     -1.365520   -0.013360   -1.480850
  H     -2.065670   -0.909000   -0.106090
  H     -2.065690    0.882220   -0.106070

----------------------------
CARTESIAN COORDINATES (A.U.)
----------------------------
  NO LB      ZA    FRAG     MASS         X           Y           Z
   0 C     6.0000    0    12.011    1.991242   -0.025322   -0.732760
   1 N     7.0000    0    14.007   -0.348825   -0.025285    0.476041
   2 C     6.0000    0    12.011    0.062852   -0.025266    2.999864
   3 N     7.0000    0    14.007    2.545555   -0.025285    3.416511
   4 C     6.0000    0    12.011    3.796554   -0.025285    1.131908
   5 C     6.0000    0    12.011   -2.845474   -0.025285   -0.749976
   6 H     1.0000    0     1.008    3.145902   -0.025285    5.242610
   7 H     1.0000    0     1.008   -1.336735   -0.025266    4.492918
   8 H     1.0000    0     1.008    5.835946   -0.025266    1.012818
   9 H     1.0000    0     1.008    2.148618   -0.025341   -2.770754
  10 H     1.0000    0     1.008   -2.580459   -0.025247   -2.798401
  11 H     1.0000    0     1.008   -3.903550   -1.717761   -0.200481
  12 H     1.0000    0     1.008   -3.903588    1.667154   -0.200443

--------------------------------
INTERNAL COORDINATES (ANGSTROEM)
--------------------------------
 C      0   0   0     0.000000000000     0.00000000     0.00000000
 N      1   0   0     1.393767956920     0.00000000     0.00000000
 C      2   1   0     1.353200708687   108.05509517     0.00000000
 N      3   2   1     1.332161901513   108.79088350     0.00000000
 C      1   2   3     1.373430463074   106.75402679     0.00000000
 C      2   1   3     1.471871391483   126.52658862   180.00043164
 H      4   3   2     1.017212078052   117.72535960   180.00036754
 H      3   2   1     1.082947228103   127.58638664   180.00105264
 H      5   1   2     1.081038364102   130.73141130   180.00109077
 H      1   2   3     1.081670612714   121.73507013   180.00006299
 H      6   2   1     1.093014035410   108.78232883     0.00000000
 H      6   2   1     1.095530566336   109.98424466   119.55180698
 H      6   2   1     1.095529746643   109.98476870   240.44430193

---------------------------
INTERNAL COORDINATES (A.U.)
---------------------------
 C      0   0   0     0.000000000000     0.00000000     0.00000000
 N      1   0   0     2.633839732814     0.00000000     0.00000000
 C      2   1   0     2.557178743646   108.05509517     0.00000000
 N      3   2   1     2.517421159903   108.79088350     0.00000000
 C      1   2   3     2.595407439195   106.75402679     0.00000000
 C      2   1   3     2.781433834256   126.52658862   180.00043164
 H      4   3   2     1.922252247634   117.72535960   180.00036754
 H      3   2   1     2.046473678604   127.58638664   180.00105264
 H      5   1   2     2.042866448415   130.73141130   180.00109077
 H      1   2   3     2.044061225139   121.73507013   180.00006299
 H      6   2   1     2.065497187458   108.78232883     0.00000000
 H      6   2   1     2.070252741714   109.98424466   119.55180698
 H      6   2   1     2.070251192720   109.98476870   240.44430193

---------------------
BASIS SET INFORMATION
---------------------
There are 3 groups of distinct atoms

 Group   1 Type C   : 8s4p1d contracted to 4s2p1d pattern {5111/31/1}
 Group   2 Type N   : 8s4p1d contracted to 4s2p1d pattern {5111/31/1}
 Group   3 Type H   : 4s contracted to 2s pattern {31}

Atom   0C    basis set group =>   1
Atom   1N    basis set group =>   2
Atom   2C    basis set group =>   1
Atom   3N    basis set group =>   2
Atom   4C    basis set group =>   1
Atom   5C    basis set group =>   1
Atom   6H    basis set group =>   3
Atom   7H    basis set group =>   3
Atom   8H    basis set group =>   3
Atom   9H    basis set group =>   3
Atom  10H    basis set group =>   3
Atom  11H    basis set group =>   3
Atom  12H    basis set group =>   3
---------------------------------
AUXILIARY/J BASIS SET INFORMATION
---------------------------------
There are 3 groups of distinct atoms

 Group   1 Type C   : 12s5p4d2f1g contracted to 6s4p3d1f1g pattern {711111/2111/211/2/1}
 Group   2 Type N   : 12s5p4d2f1g contracted to 6s4p3d1f1g pattern {711111/2111/211/2/1}
 Group   3 Type H   : 5s2p1d contracted to 3s1p1d pattern {311/2/1}

Atom   0C    basis set group =>   1
Atom   1N    basis set group =>   2
Atom   2C    basis set group =>   1
Atom   3N    basis set group =>   2
Atom   4C    basis set group =>   1
Atom   5C    basis set group =>   1
Atom   6H    basis set group =>   3
Atom   7H    basis set group =>   3
Atom   8H    basis set group =>   3
Atom   9H    basis set group =>   3
Atom  10H    basis set group =>   3
Atom  11H    basis set group =>   3
Atom  12H    basis set group =>   3


           ************************************************************
           *        Program running with 4 parallel MPI-processes     *
           *              working on a common directory               *
           ************************************************************
------------------------------------------------------------------------------
                           ORCA GTO INTEGRAL CALCULATION
                           -- RI-GTO INTEGRALS CHOSEN --
------------------------------------------------------------------------------
------------------------------------------------------------------------------
                   ___                                                        
                  /   \      - P O W E R E D   B Y -                         
                 /     \                                                     
                 |  |  |   _    _      __       _____    __    __             
                 |  |  |  | |  | |    /  \     |  _  \  |  |  /  |          
                  \  \/   | |  | |   /    \    | | | |  |  | /  /          
                 / \  \   | |__| |  /  /\  \   | |_| |  |  |/  /          
                |  |  |   |  __  | /  /__\  \  |    /   |      \           
                |  |  |   | |  | | |   __   |  |    \   |  |\   \          
                \     /   | |  | | |  |  |  |  | |\  \  |  | \   \       
                 \___/    |_|  |_| |__|  |__|  |_| \__\ |__|  \__/        
                                                                              
                      - O R C A' S   B I G   F R I E N D -                    
                                      &                                       
                       - I N T E G R A L  F E E D E R -                       
                                                                              
 v1 FN, 2020, v2 2021                                                         
------------------------------------------------------------------------------


Reading SHARK input file pbeh-3c.SHARKINP.tmp ... ok
----------------------
SHARK INTEGRAL PACKAGE
----------------------

Number of atoms                             ...     13
Number of basis functions                   ...    104
Number of shells                            ...     56
Maximum angular momentum                    ...      2
Integral batch strategy                     ... SHARK/LIBINT Hybrid
RI-J (if used) integral strategy            ... SPLIT-RIJ (Revised 2003 algorithm where possible)
Printlevel                                  ...      1
Contraction scheme used                     ... SEGMENTED contraction
Coulomb Range Separation                    ... NOT USED
Exchange Range Separation                   ... NOT USED
Finite Nucleus Model                        ... NOT USED
Auxiliary Coulomb fitting basis             ... AVAILABLE
   # of basis functions in Aux-J            ...    371
   # of shells in Aux-J                     ...    125
   Maximum angular momentum in Aux-J        ...      4
Auxiliary J/K fitting basis                 ... NOT available
Auxiliary Correlation fitting basis         ... NOT available
Auxiliary 'external' fitting basis          ... NOT available
Integral threshold                          ...     2.500000e-11
Primitive cut-off                           ...     2.500000e-12
Primitive pair pre-selection threshold      ...     2.500000e-12

Calculating pre-screening integrals         ... done (  0.1 sec) Dimension = 56
Organizing shell pair data                  ... done (  0.5 sec)
Shell pair information
Total number of shell pairs                 ...      1596
Shell pairs after pre-screening             ...      1518
Total number of primitive shell pairs       ...      5770
Primitive shell pairs kept                  ...      4100
          la=0 lb=0:    672 shell pairs
          la=1 lb=0:    454 shell pairs
          la=1 lb=1:     78 shell pairs
          la=2 lb=0:    221 shell pairs
          la=2 lb=1:     72 shell pairs
          la=2 lb=2:     21 shell pairs

Calculating one electron integrals          ... done (  0.0 sec)
Calculating RI/J V-Matrix + Cholesky decomp.... done (  0.6 sec)
Calculating Nuclear repulsion               ... done (  0.0 sec) ENN=    235.563454034800 Eh

SHARK setup successfully completed in   2.2 seconds

Maximum memory used throughout the entire GTOINT-calculation: 10.2 MB


           ************************************************************
           *        Program running with 4 parallel MPI-processes     *
           *              working on a common directory               *
           ************************************************************
-------------------------------------------------------------------------------
                                 ORCA SCF
-------------------------------------------------------------------------------

------------
SCF SETTINGS
------------
Hamiltonian:
 Density Functional     Method          .... DFT(GTOs)
 Exchange Functional    Exchange        .... PBE
   PBE kappa parameter   XKappa         ....  1.024500
   PBE mue parameter    XMuePBE         ....  0.123457
 Correlation Functional Correlation     .... PBE
   PBE beta parameter  CBetaPBE         ....  0.030000
 LDA part of GGA corr.  LDAOpt          .... PW91-LDA
 Gradients option       PostSCFGGA      .... off
 Hybrid DFT is turned on
   Fraction HF Exchange ScalHFX         ....  0.420000
   Scaling of DF-GGA-X  ScalDFX         ....  0.580000
   Scaling of DF-GGA-C  ScalDFC         ....  1.000000
   Scaling of DF-LDA-C  ScalLDAC        ....  1.000000
   Perturbative correction              ....  0.000000
   Density functional embedding theory  .... OFF
 RI-approximation to the Coulomb term is turned on
   Number of AuxJ basis functions       .... 371
   RIJ-ON(X) (HFX calculated with O(N)) .... on
   Number of AuxJ basis functions       .... 371
   RIJ-COSX (HFX calculated with COS-X)).... on


General Settings:
 Integral files         IntName         .... pbeh-3c
 Hartree-Fock type      HFTyp           .... RHF
 Total Charge           Charge          ....    1
 Multiplicity           Mult            ....    1
 Number of Electrons    NEL             ....   44
 Basis Dimension        Dim             ....  104
 Nuclear Repulsion      ENuc            ....    235.5634540348 Eh

Convergence Acceleration:
 DIIS                   CNVDIIS         .... on
   Start iteration      DIISMaxIt       ....    12
   Startup error        DIISStart       ....  0.200000
   # of expansion vecs  DIISMaxEq       ....     5
   Bias factor          DIISBfac        ....   1.050
   Max. coefficient     DIISMaxC        ....  10.000
 Trust-Rad. Augm. Hess. CNVTRAH         .... auto
   Auto Start mean grad. ratio tolernc. ....  1.125000
   Auto Start start iteration           ....    20
   Auto Start num. interpolation iter.  ....    10
   Max. Number of Micro iterations      ....    16
   Max. Number of Macro iterations      .... Maxiter - #DIIS iter
   Number of Davidson start vectors     ....     2
   Converg. threshold I  (grad. norm)   ....   1.000e-05
   Converg. threshold II (energy diff.) ....   1.000e-08
   Grad. Scal. Fac. for Micro threshold ....   0.100
   Minimum threshold for Micro iter.    ....   0.010
   NR start threshold (gradient norm)   ....   0.001
   Initial trust radius                 ....   0.400
   Minimum AH scaling param. (alpha)    ....   1.000
   Maximum AH scaling param. (alpha)    .... 1000.000
   Orbital update algorithm             .... Taylor
   White noise on init. David. guess    .... on
   Maximum white noise                  ....   0.010
   Quad. conv. algorithm                .... NR
   COSX micro iterations for RIJONX calc.... off
 SOSCF                  CNVSOSCF        .... on
   Start iteration      SOSCFMaxIt      ....   150
   Startup grad/error   SOSCFStart      ....  0.003300
 Level Shifting         CNVShift        .... on
   Level shift para.    LevelShift      ....    0.2500
   Turn off err/grad.   ShiftErr        ....    0.0010
 Zerner damping         CNVZerner       .... off
 Static damping         CNVDamp         .... on
   Fraction old density DampFac         ....    0.7000
   Max. Damping (<1)    DampMax         ....    0.9800
   Min. Damping (>=0)   DampMin         ....    0.0000
   Turn off err/grad.   DampErr         ....    0.1000
 Fernandez-Rico         CNVRico         .... off

SCF Procedure:
 Maximum # iterations   MaxIter         ....   125
 SCF integral mode      SCFMode         .... Direct
   Integral package                     .... SHARK and LIBINT hybrid scheme
 Reset frequency        DirectResetFreq ....    20
 Integral Threshold     Thresh          ....  2.500e-11 Eh
 Primitive CutOff       TCut            ....  2.500e-12 Eh

Convergence Tolerance:
 Convergence Check Mode ConvCheckMode   .... Total+1el-Energy
 Convergence forced     ConvForced      .... 0
 Energy Change          TolE            ....  1.000e-08 Eh
 1-El. energy change                    ....  1.000e-05 Eh
 Orbital Gradient       TolG            ....  1.000e-05
 Orbital Rotation angle TolX            ....  1.000e-05
 DIIS Error             TolErr          ....  5.000e-07


Diagonalization of the overlap matrix:
Smallest eigenvalue                        ... 1.788e-03
Time for diagonalization                   ...    0.002 sec
Threshold for overlap eigenvalues          ... 1.000e-08
Number of eigenvalues below threshold      ... 0
Time for construction of square roots      ...    0.210 sec
Total time needed                          ...    0.265 sec

--------------------------------
INITIAL GUESS: MINIMAL BASIS EHT
--------------------------------
The minimal basis has 37 functions
EHT matrix was diagonalized
Basis set overlap was calculated now projecting the orbitals
Using GuessMode=FMatrix for the initial guess
C*T matrix was formed
Effective Fockian was calculated
Effective Fockian was diagonalized
Initial density was built
                      ------------------
                      INITIAL GUESS DONE
                      ------------------
-------------------
DFT GRID GENERATION
-------------------

General Integration Accuracy     IntAcc      ... 4.959
Radial Grid Type                 RadialGrid  ... OptM3 with GC (2021)
Angular Grid (max. ang.)         AngularGrid ... 6 (Lebedev-590)
Angular grid pruning method      GridPruning ... 4 (adaptive)
Weight generation scheme         WeightScheme... Becke
Basis function cutoff            BFCut       ... 1.0000e-11
Integration weight cutoff        WCut        ... 1.0000e-14
Angular grids for H and He will be reduced by one unit
Partially contracted basis set               ... off
Rotationally invariant grid construction     ... off

Total number of grid points                  ...   147399
Total number of batches                      ...     2310
Average number of points per batch           ...       63
Average number of grid points per atom       ...    11338
Time for grid setup =    2.478 sec

--------------------
COSX GRID GENERATION
--------------------

GRIDX 1
-------
General Integration Accuracy     IntAcc      ... 4.020
Radial Grid Type                 RadialGrid  ... OptM3 with GC (2021)
Angular Grid (max. ang.)         AngularGrid ... 2 (Lebedev-110)
Angular grid pruning method      GridPruning ... 4 (adaptive)
Weight generation scheme         WeightScheme... Becke
Basis function cutoff            BFCut       ... 1.0000e-11
Integration weight cutoff        WCut        ... 1.0000e-14
Angular grids for H and He will be reduced by one unit
Partially contracted basis set               ... on
Rotationally invariant grid construction     ... off

Total number of grid points                  ...    16258
Total number of batches                      ...      261
Average number of points per batch           ...       62
Average number of grid points per atom       ...     1251
UseSFitting                                  ... on

GRIDX 2
-------
General Integration Accuracy     IntAcc      ... 4.338
Radial Grid Type                 RadialGrid  ... OptM3 with GC (2021)
Angular Grid (max. ang.)         AngularGrid ... 3 (Lebedev-194)
Angular grid pruning method      GridPruning ... 4 (adaptive)
Weight generation scheme         WeightScheme... Becke
Basis function cutoff            BFCut       ... 1.0000e-11
Integration weight cutoff        WCut        ... 1.0000e-14
Angular grids for H and He will be reduced by one unit
Partially contracted basis set               ... on
Rotationally invariant grid construction     ... off

Total number of grid points                  ...    35748
Total number of batches                      ...      565
Average number of points per batch           ...       63
Average number of grid points per atom       ...     2750
UseSFitting                                  ... on

GRIDX 3
-------
General Integration Accuracy     IntAcc      ... 4.871
Radial Grid Type                 RadialGrid  ... OptM3 with GC (2021)
Angular Grid (max. ang.)         AngularGrid ... 4 (Lebedev-302)
Angular grid pruning method      GridPruning ... 4 (adaptive)
Weight generation scheme         WeightScheme... Becke
Basis function cutoff            BFCut       ... 1.0000e-11
Integration weight cutoff        WCut        ... 1.0000e-14
Angular grids for H and He will be reduced by one unit
Partially contracted basis set               ... on
Rotationally invariant grid construction     ... off

Total number of grid points                  ...    69024
Total number of batches                      ...     1087
Average number of points per batch           ...       63
Average number of grid points per atom       ...     5310
UseSFitting                                  ... on

Time for X-Grid setup             =    2.665 sec

--------------
SCF ITERATIONS
--------------
ITER       Energy         Delta-E        Max-DP      RMS-DP      [F,P]     Damp
               ***  Starting incremental Fock matrix formation  ***
  0   -264.7518421169   0.000000000000 0.07988326  0.00394458  0.3831506 0.7000
  1   -264.9313976721  -0.179555555193 0.05932174  0.00292449  0.2733410 0.7000
                               ***Turning on DIIS***
  2   -265.0512593856  -0.119861713474 0.04234684  0.00211518  0.1953814 0.7000
  3   -265.1345574251  -0.083298039519 0.03467053  0.00164369  0.1391638 0.7000
  4   -265.1936633029  -0.059105877780 0.08392465  0.00408594  0.0973915 0.0000
  5   -265.3359103913  -0.142247088466 0.00581694  0.00021416  0.0051442 0.0000
                      *** Initiating the SOSCF procedure ***
                           *** Shutting down DIIS ***
                      *** Re-Reading the Fockian *** 
                      *** Removing any level shift *** 
ITER      Energy       Delta-E        Grad      Rot      Max-DP    RMS-DP
  6   -265.33606087  -0.0001504803  0.001169  0.001169  0.002192  0.000074
               *** Restarting incremental Fock matrix formation ***
  7   -265.33609764  -0.0000367663  0.000525  0.000852  0.001087  0.000038
  8   -265.33610082  -0.0000031772  0.000101  0.000403  0.000337  0.000018
  9   -265.33610114  -0.0000003275  0.000064  0.000101  0.000189  0.000006
 10   -265.33610127  -0.0000001252  0.000028  0.000042  0.000080  0.000003
 11   -265.33610127  -0.0000000044  0.000014  0.000021  0.000037  0.000001
 12   -265.33610128  -0.0000000093  0.000004  0.000009  0.000019  0.000001
 13   -265.33610129  -0.0000000039  0.000004  0.000004  0.000010  0.000000
                 **** Energy Check signals convergence ****
              ***Rediagonalizing the Fockian in SOSCF/NRSCF***

               *****************************************************
               *                     SUCCESS                       *
               *           SCF CONVERGED AFTER  14 CYCLES          *
               *****************************************************

Old exchange energy                            =    -15.171154758 Eh
New exchange energy                            =    -15.171148349 Eh
Exchange energy change after final integration =      0.000006408 Eh
Total energy after final integration           =   -265.336094873 Eh
Final COS-X integration done in                =     2.451 sec

----------------
TOTAL SCF ENERGY
----------------

Total Energy       :         -265.33609487 Eh           -7220.16221 eV

Components:
Nuclear Repulsion  :          235.56345403 Eh            6410.00746 eV
Electronic Energy  :         -500.89954891 Eh          -13630.16967 eV
One Electron Energy:         -814.47347889 Eh          -22162.95010 eV
Two Electron Energy:          313.57392999 Eh            8532.78043 eV
Max COSX asymmetry :            0.00000120 Eh               0.00003 eV

Virial components:
Potential Energy   :         -528.40039947 Eh          -14378.50586 eV
Kinetic Energy     :          263.06430459 Eh            7158.34365 eV
Virial Ratio       :            2.00863587


DFT components:
N(Alpha)           :       22.000000053925 electrons
N(Beta)            :       22.000000053925 electrons
N(Total)           :       44.000000107850 electrons
E(X)               :      -20.170370036761 Eh       
E(C)               :       -1.916595649524 Eh       
E(XC)              :      -22.086965686285 Eh       
DFET-embed. en.    :        0.000000000000 Eh       

---------------
SCF CONVERGENCE
---------------

  Last Energy change         ...    3.9444e-09  Tolerance :   1.0000e-08
  Last MAX-Density change    ...    8.8818e-16  Tolerance :   1.0000e-07
  Last RMS-Density change    ...    4.1036e-17  Tolerance :   5.0000e-09
  Last Orbital Gradient      ...    3.4518e-07  Tolerance :   1.0000e-05
  Last Orbital Rotation      ...    1.1203e-06  Tolerance :   1.0000e-05

             **** THE GBW FILE WAS UPDATED (pbeh-3c.gbw) ****
             **** DENSITY pbeh-3c.scfp WAS UPDATED ****
             **** ENERGY FILE WAS UPDATED (pbeh-3c.en.tmp) ****
             **** THE GBW FILE WAS UPDATED (pbeh-3c.gbw) ****
             **** DENSITY pbeh-3c.scfp WAS UPDATED ****
----------------
ORBITAL ENERGIES
----------------

  NO   OCC          E(Eh)            E(eV) 
   0   2.0000     -14.925730      -406.1498 
   1   2.0000     -14.920849      -406.0169 
   2   2.0000     -10.737086      -292.1710 
   3   2.0000     -10.685654      -290.7714 
   4   2.0000     -10.684095      -290.7290 
   5   2.0000     -10.659196      -290.0515 
   6   2.0000      -1.363807       -37.1111 
   7   2.0000      -1.232533       -33.5389 
   8   2.0000      -1.066729       -29.0272 
   9   2.0000      -1.009542       -27.4710 
  10   2.0000      -0.915698       -24.9174 
  11   2.0000      -0.876490       -23.8505 
  12   2.0000      -0.845903       -23.0182 
  13   2.0000      -0.745091       -20.2750 
  14   2.0000      -0.739650       -20.1269 
  15   2.0000      -0.713737       -19.4218 
  16   2.0000      -0.707801       -19.2602 
  17   2.0000      -0.689343       -18.7580 
  18   2.0000      -0.662865       -18.0375 
  19   2.0000      -0.637201       -17.3391 
  20   2.0000      -0.553626       -15.0649 
  21   2.0000      -0.487445       -13.2641 
  22   0.0000      -0.176090        -4.7917 
  23   0.0000      -0.130470        -3.5503 
  24   0.0000      -0.068944        -1.8761 
  25   0.0000      -0.029843        -0.8121 
  26   0.0000      -0.010950        -0.2980 
  27   0.0000       0.007365         0.2004 
  28   0.0000       0.013224         0.3599 
  29   0.0000       0.028538         0.7765 
  30   0.0000       0.046798         1.2734 
  31   0.0000       0.055087         1.4990 
  32   0.0000       0.068201         1.8558 
  33   0.0000       0.094536         2.5725 
  34   0.0000       0.139155         3.7866 
  35   0.0000       0.171795         4.6748 
  36   0.0000       0.278948         7.5906 
  37   0.0000       0.292509         7.9596 
  38   0.0000       0.305284         8.3072 
  39   0.0000       0.320043         8.7088 
  40   0.0000       0.360977         9.8227 
  41   0.0000       0.363953         9.9037 
  42   0.0000       0.375534        10.2188 
  43   0.0000       0.402574        10.9546 
  44   0.0000       0.420518        11.4429 
  45   0.0000       0.456807        12.4303 
  46   0.0000       0.473647        12.8886 
  47   0.0000       0.520447        14.1621 
  48   0.0000       0.567555        15.4440 
  49   0.0000       0.629718        17.1355 
  50   0.0000       0.654542        17.8110 
  51   0.0000       0.673851        18.3364 
  52   0.0000       0.733470        19.9587 
  53   0.0000       0.760802        20.7025 
  54   0.0000       0.770654        20.9706 
  55   0.0000       0.774336        21.0707 
  56   0.0000       0.815972        22.2037 
  57   0.0000       0.828866        22.5546 
  58   0.0000       0.858419        23.3588 
  59   0.0000       0.870849        23.6970 
  60   0.0000       0.906848        24.6766 
  61   0.0000       0.990305        26.9476 
  62   0.0000       1.005936        27.3729 
  63   0.0000       1.056032        28.7361 
  64   0.0000       1.103119        30.0174 
  65   0.0000       1.141904        31.0728 
  66   0.0000       1.175640        31.9908 
  67   0.0000       1.197632        32.5892 
  68   0.0000       1.265025        34.4231 
  69   0.0000       1.309436        35.6316 
  70   0.0000       1.371403        37.3178 
  71   0.0000       1.438321        39.1387 
  72   0.0000       1.500282        40.8247 
  73   0.0000       1.659300        45.1519 
  74   0.0000       1.702667        46.3319 
  75   0.0000       1.781207        48.4691 
  76   0.0000       1.801300        49.0159 
  77   0.0000       1.859126        50.5894 
  78   0.0000       1.865410        50.7604 
  79   0.0000       1.915755        52.1303 
  80   0.0000       1.981518        53.9199 
  81   0.0000       1.993080        54.2345 
  82   0.0000       2.059663        56.0463 
  83   0.0000       2.071937        56.3803 
  84   0.0000       2.110267        57.4233 
  85   0.0000       2.115934        57.5775 
  86   0.0000       2.176675        59.2303 
  87   0.0000       2.180459        59.3333 
  88   0.0000       2.226297        60.5806 
  89   0.0000       2.317002        63.0488 
  90   0.0000       2.419972        65.8508 
  91   0.0000       2.427365        66.0520 
  92   0.0000       2.507106        68.2218 
  93   0.0000       2.566377        69.8347 
  94   0.0000       2.613215        71.1092 
  95   0.0000       2.816967        76.6536 
  96   0.0000       2.929859        79.7255 
  97   0.0000       2.959800        80.5403 
  98   0.0000      13.328452       362.6856 
  99   0.0000      13.517560       367.8315 
 100   0.0000      13.602350       370.1388 
 101   0.0000      13.867371       377.3503 
 102   0.0000      19.009362       517.2710 
 103   0.0000      19.152538       521.1671 

                    ********************************
                    * MULLIKEN POPULATION ANALYSIS *
                    ********************************

-----------------------
MULLIKEN ATOMIC CHARGES
-----------------------
   0 C :   -0.050812
   1 N :   -0.417215
   2 C :    0.268382
   3 N :   -0.560716
   4 C :   -0.029930
   5 C :   -0.516941
   6 H :    0.437934
   7 H :    0.341390
   8 H :    0.329380
   9 H :    0.329385
  10 H :    0.285790
  11 H :    0.291676
  12 H :    0.291676
Sum of atomic charges:    1.0000000

--------------------------------
MULLIKEN REDUCED ORBITAL CHARGES
--------------------------------
  0 C s       :     3.176637  s :     3.176637
      pz      :     1.073845  p :     2.822391
      px      :     0.727006
      py      :     1.021540
      dz2     :     0.013267  d :     0.051784
      dxz     :     0.016862
      dyz     :     0.004635
      dx2y2   :     0.007463
      dxy     :     0.009558
  1 N s       :     3.542925  s :     3.542925
      pz      :     1.153036  p :     3.824556
      px      :     1.207935
      py      :     1.463585
      dz2     :     0.012357  d :     0.049734
      dxz     :     0.012194
      dyz     :     0.009263
      dx2y2   :     0.007172
      dxy     :     0.008747
  2 C s       :     3.075662  s :     3.075662
      pz      :     0.843013  p :     2.582721
      px      :     0.819376
      py      :     0.920332
      dz2     :     0.020590  d :     0.073235
      dxz     :     0.020183
      dyz     :     0.010615
      dx2y2   :     0.010710
      dxy     :     0.011137
  3 N s       :     3.578746  s :     3.578746
      pz      :     1.269702  p :     3.938762
      px      :     1.170358
      py      :     1.498701
      dz2     :     0.014020  d :     0.043208
      dxz     :     0.009665
      dyz     :     0.004661
      dx2y2   :     0.005396
      dxy     :     0.009467
  4 C s       :     3.173339  s :     3.173339
      pz      :     0.730884  p :     2.803033
      px      :     1.053219
      py      :     1.018929
      dz2     :     0.013182  d :     0.053558
      dxz     :     0.017570
      dyz     :     0.010022
      dx2y2   :     0.007987
      dxy     :     0.004797
  5 C s       :     3.385842  s :     3.385842
      pz      :     1.103149  p :     3.084578
      px      :     0.792484
      py      :     1.188946
      dz2     :     0.011096  d :     0.046522
      dxz     :     0.009533
      dyz     :     0.003284
      dx2y2   :     0.009923
      dxy     :     0.012685
  6 H s       :     0.562066  s :     0.562066
  7 H s       :     0.658610  s :     0.658610
  8 H s       :     0.670620  s :     0.670620
  9 H s       :     0.670615  s :     0.670615
 10 H s       :     0.714210  s :     0.714210
 11 H s       :     0.708324  s :     0.708324
 12 H s       :     0.708324  s :     0.708324


                     *******************************
                     * LOEWDIN POPULATION ANALYSIS *
                     *******************************

----------------------
LOEWDIN ATOMIC CHARGES
----------------------
   0 C :   -0.056436
   1 N :    0.008600
   2 C :    0.052792
   3 N :   -0.068695
   4 C :   -0.059940
   5 C :   -0.232833
   6 H :    0.310670
   7 H :    0.183332
   8 H :    0.183721
   9 H :    0.182993
  10 H :    0.166318
  11 H :    0.164739
  12 H :    0.164739

-------------------------------
LOEWDIN REDUCED ORBITAL CHARGES
-------------------------------
  0 C s       :     2.900584  s :     2.900584
      pz      :     1.094252  p :     3.043560
      px      :     0.922567
      py      :     1.026741
      dz2     :     0.025759  d :     0.112292
      dxz     :     0.041609
      dyz     :     0.006384
      dx2y2   :     0.018313
      dxy     :     0.020227
  1 N s       :     3.062899  s :     3.062899
      pz      :     1.201908  p :     3.812741
      px      :     1.214545
      py      :     1.396288
      dz2     :     0.033012  d :     0.115759
      dxz     :     0.033541
      dyz     :     0.018878
      dx2y2   :     0.014618
      dxy     :     0.015710
  2 C s       :     2.876557  s :     2.876557
      pz      :     0.980141  p :     2.914616
      px      :     0.984197
      py      :     0.950278
      dz2     :     0.046624  d :     0.156036
      dxz     :     0.043968
      dyz     :     0.020281
      dx2y2   :     0.023659
      dxy     :     0.021504
  3 N s       :     3.083975  s :     3.083975
      pz      :     1.222522  p :     3.887428
      px      :     1.222528
      py      :     1.442377
      dz2     :     0.029807  d :     0.097292
      dxz     :     0.026767
      dyz     :     0.007802
      dx2y2   :     0.013634
      dxy     :     0.019283
  4 C s       :     2.895880  s :     2.895880
      pz      :     0.930211  p :     3.047856
      px      :     1.093353
      py      :     1.024292
      dz2     :     0.032166  d :     0.116204
      dxz     :     0.043404
      dyz     :     0.021207
      dx2y2   :     0.012837
      dxy     :     0.006591
  5 C s       :     2.955122  s :     2.955122
      pz      :     1.107375  p :     3.188766
      px      :     0.908828
      py      :     1.172564
      dz2     :     0.020034  d :     0.088944
      dxz     :     0.019994
      dyz     :     0.004697
      dx2y2   :     0.019920
      dxy     :     0.024299
  6 H s       :     0.689330  s :     0.689330
  7 H s       :     0.816668  s :     0.816668
  8 H s       :     0.816279  s :     0.816279
  9 H s       :     0.817007  s :     0.817007
 10 H s       :     0.833682  s :     0.833682
 11 H s       :     0.835261  s :     0.835261
 12 H s       :     0.835261  s :     0.835261


                      *****************************
                      * MAYER POPULATION ANALYSIS *
                      *****************************

  NA   - Mulliken gross atomic population
  ZA   - Total nuclear charge
  QA   - Mulliken gross atomic charge
  VA   - Mayer's total valence
  BVA  - Mayer's bonded valence
  FA   - Mayer's free valence

  ATOM       NA         ZA         QA         VA         BVA        FA
  0 C      6.0508     6.0000    -0.0508     3.7157     3.7157    -0.0000
  1 N      7.4172     7.0000    -0.4172     3.4047     3.4047     0.0000
  2 C      5.7316     6.0000     0.2684     3.5283     3.5283    -0.0000
  3 N      7.5607     7.0000    -0.5607     3.3205     3.3205     0.0000
  4 C      6.0299     6.0000    -0.0299     3.6933     3.6933    -0.0000
  5 C      6.5169     6.0000    -0.5169     3.5462     3.5462    -0.0000
  6 H      0.5621     1.0000     0.4379     0.7927     0.7927     0.0000
  7 H      0.6586     1.0000     0.3414     0.8560     0.8560    -0.0000
  8 H      0.6706     1.0000     0.3294     0.8666     0.8666    -0.0000
  9 H      0.6706     1.0000     0.3294     0.8671     0.8671     0.0000
 10 H      0.7142     1.0000     0.2858     0.8935     0.8935     0.0000
 11 H      0.7083     1.0000     0.2917     0.8811     0.8811    -0.0000
 12 H      0.7083     1.0000     0.2917     0.8811     0.8811    -0.0000

  Mayer bond orders larger than 0.100000
B(  0-C ,  1-N ) :   1.1409 B(  0-C ,  4-C ) :   1.6370 B(  0-C ,  9-H ) :   0.8660 
B(  1-N ,  2-C ) :   1.3100 B(  1-N ,  5-C ) :   0.8621 B(  2-C ,  3-N ) :   1.2997 
B(  2-C ,  7-H ) :   0.8610 B(  3-N ,  4-C ) :   1.1200 B(  3-N ,  6-H ) :   0.7776 
B(  4-C ,  8-H ) :   0.8701 B(  5-C , 10-H ) :   0.9006 B(  5-C , 11-H ) :   0.8897 
B(  5-C , 12-H ) :   0.8897 

-------
TIMINGS
-------

Total SCF time: 0 days 0 hours 1 min 7 sec 

Total time                  ....      67.617 sec
Sum of individual times     ....      62.174 sec  ( 91.9%)

Fock matrix formation       ....      53.255 sec  ( 78.8%)
  Split-RI-J                ....       6.709 sec  ( 12.6% of F)
  Chain of spheres X        ....      19.478 sec  ( 36.6% of F)
  XC integration            ....      15.187 sec  ( 28.5% of F)
    Basis function eval.    ....       2.900 sec  ( 19.1% of XC)
    Density eval.           ....       1.604 sec  ( 10.6% of XC)
    XC-Functional eval.     ....       1.274 sec  (  8.4% of XC)
    XC-Potential eval.      ....       1.061 sec  (  7.0% of XC)
Diagonalization             ....       0.245 sec  (  0.4%)
Density matrix formation    ....       0.128 sec  (  0.2%)
Population analysis         ....       0.025 sec  (  0.0%)
Initial guess               ....       0.007 sec  (  0.0%)
Orbital Transformation      ....       0.000 sec  (  0.0%)
Orbital Orthonormalization  ....       0.000 sec  (  0.0%)
DIIS solution               ....       1.647 sec  (  2.4%)
SOSCF solution              ....       1.725 sec  (  2.6%)
Grid generation             ....       5.143 sec  (  7.6%)

Maximum memory used throughout the entire SCF-calculation: 51.3 MB


-------------------------------------------------------------------------------
                          DFT DISPERSION CORRECTION                            
                                                                               
                              DFTD3 V3.1  Rev 1                                
                          USING Becke-Johnson damping                          
-------------------------------------------------------------------------------
The PBEh-3c composite method is recognized
Using three-body term ABC
Active option DFTDOPT                   ...         4   

molecular C6(AA) [au] = 1525.830780 


            DFT-D V3
 parameters
 s6 scaling factor         :     1.0000 
 a1 scaling factor         :     0.4860 
 s8 scaling factor         :     0.0000 
 a2 scaling factor         :     4.5000 
 Damping factor alpha9(ATM):    16.0000 
 ad hoc parameters k1-k3   :    16.0000     1.3333    -4.0000 

 Edisp/kcal,au: -3.596010049694  -0.005730606174 
 E6   /kcal   :  -3.602345556 
 E8   /kcal   :  -0.000000000 
 E6(ABC)      :   0.006335506 
 % E8         :   0.000000000 
 % E6(ABC)    :  -0.176181552 

-------------------------   ----------------
Dispersion correction           -0.005730606
-------------------------   ----------------

------------------   -----------------
gCP correction             0.022352164
------------------   -----------------

-------------------------   --------------------
FINAL SINGLE POINT ENERGY      -265.319473314931
-------------------------   --------------------


                            ***************************************
                            *     ORCA property calculations      *
                            ***************************************

                                    ---------------------
                                    Active property flags
                                    ---------------------
   (+) Dipole Moment


------------------------------------------------------------------------------
                       ORCA ELECTRIC PROPERTIES CALCULATION
------------------------------------------------------------------------------

Dipole Moment Calculation                       ... on
Quadrupole Moment Calculation                   ... off
Polarizability Calculation                      ... off
GBWName                                         ... pbeh-3c.gbw
Electron density                                ... pbeh-3c.scfp
The origin for moment calculation is the CENTER OF MASS  = ( 0.797292, -0.025287  1.096771)

-------------
DIPOLE MOMENT
-------------
                                X             Y             Z
Electronic contribution:      2.95978       0.00000       2.05605
Nuclear contribution   :     -3.06385       0.00000      -1.43436
                        -----------------------------------------
Total Dipole Moment    :     -0.10407       0.00001       0.62169
                        -----------------------------------------
Magnitude (a.u.)       :      0.63034
Magnitude (Debye)      :      1.60220



--------------------
Rotational spectrum 
--------------------
 
Rotational constants in cm-1:     0.291054     0.116044     0.084308 
Rotational constants in MHz :  8725.584092  3478.926000  2527.479257 

 Dipole components along the rotational axes: 
x,y,z [a.u.] :     0.196180     0.599036     0.000000 
x,y,z [Debye]:     0.498650     1.522627     0.000001 

 

Timings for individual modules:

Sum of individual times         ...       70.868 sec (=   1.181 min)
GTO integral calculation        ...        2.510 sec (=   0.042 min)   3.5 %
SCF iterations                  ...       68.358 sec (=   1.139 min)  96.5 %
                             ****ORCA TERMINATED NORMALLY****
TOTAL RUN TIME: 0 days 0 hours 1 minutes 13 seconds 15 msec
