
                                 *****************
                                 * O   R   C   A *
                                 *****************

                                            #,                                       
                                            ###                                      
                                            ####                                     
                                            #####                                    
                                            ######                                   
                                           ########,                                 
                                     ,,################,,,,,                         
                               ,,#################################,,                 
                          ,,##########################################,,             
                       ,#########################################, ''#####,          
                    ,#############################################,,   '####,        
                  ,##################################################,,,,####,       
                ,###########''''           ''''###############################       
              ,#####''   ,,,,##########,,,,          '''####'''          '####       
            ,##' ,,,,###########################,,,                        '##       
           ' ,,###''''                  '''############,,,                           
         ,,##''                                '''############,,,,        ,,,,,,###''
      ,#''                                            '''#######################'''  
     '                                                          ''''####''''         
             ,#######,   #######,   ,#######,      ##                                
            ,#'     '#,  ##    ##  ,#'     '#,    #''#        ######   ,####,        
            ##       ##  ##   ,#'  ##            #'  '#       #        #'  '#        
            ##       ##  #######   ##           ,######,      #####,   #    #        
            '#,     ,#'  ##    ##  '#,     ,#' ,#      #,         ##   #,  ,#        
             '#######'   ##     ##  '#######'  #'      '#     #####' # '####'        



                  #######################################################
                  #                        -***-                        #
                  #          Department of theory and spectroscopy      #
                  #    Directorship and core code : Frank Neese         #
                  #        Max Planck Institute fuer Kohlenforschung    #
                  #                Kaiser Wilhelm Platz 1               #
                  #                 D-45470 Muelheim/Ruhr               #
                  #                      Germany                        #
                  #                                                     #
                  #                  All rights reserved                #
                  #                        -***-                        #
                  #######################################################


                         Program Version 5.0.3 -  RELEASE  -


 With contributions from (in alphabetic order):
   Daniel Aravena         : Magnetic Suceptibility
   Michael Atanasov       : Ab Initio Ligand Field Theory (pilot matlab implementation)
   Alexander A. Auer      : GIAO ZORA, VPT2 properties, NMR spectrum
   Ute Becker             : Parallelization
   Giovanni Bistoni       : ED, misc. LED, open-shell LED, HFLD
   Martin Brehm           : Molecular dynamics
   Dmytro Bykov           : SCF Hessian
   Vijay G. Chilkuri      : MRCI spin determinant printing, contributions to CSF-ICE
   Dipayan Datta          : RHF DLPNO-CCSD density
   Achintya Kumar Dutta   : EOM-CC, STEOM-CC
   Dmitry Ganyushin       : Spin-Orbit,Spin-Spin,Magnetic field MRCI
   Miquel Garcia          : C-PCM and meta-GGA Hessian, CC/C-PCM, Gaussian charge scheme
   Yang Guo               : DLPNO-NEVPT2, F12-NEVPT2, CIM, IAO-localization
   Andreas Hansen         : Spin unrestricted coupled pair/coupled cluster methods
   Benjamin Helmich-Paris : MC-RPA, TRAH-SCF, COSX integrals
   Lee Huntington         : MR-EOM, pCC
   Robert Izsak           : Overlap fitted RIJCOSX, COSX-SCS-MP3, EOM
   Marcus Kettner         : VPT2
   Christian Kollmar      : KDIIS, OOCD, Brueckner-CCSD(T), CCSD density, CASPT2, CASPT2-K
   Simone Kossmann        : Meta GGA functionals, TD-DFT gradient, OOMP2, MP2 Hessian
   Martin Krupicka        : Initial AUTO-CI
   Lucas Lang             : DCDCAS
   Marvin Lechner         : AUTO-CI (C++ implementation), FIC-MRCC
   Dagmar Lenk            : GEPOL surface, SMD
   Dimitrios Liakos       : Extrapolation schemes; Compound Job, initial MDCI parallelization
   Dimitrios Manganas     : Further ROCIS development; embedding schemes
   Dimitrios Pantazis     : SARC Basis sets
   Anastasios Papadopoulos: AUTO-CI, single reference methods and gradients
   Taras Petrenko         : DFT Hessian,TD-DFT gradient, ASA, ECA, R-Raman, ABS, FL, XAS/XES, NRVS
   Peter Pinski           : DLPNO-MP2, DLPNO-MP2 Gradient
   Christoph Reimann      : Effective Core Potentials
   Marius Retegan         : Local ZFS, SOC
   Christoph Riplinger    : Optimizer, TS searches, QM/MM, DLPNO-CCSD(T), (RO)-DLPNO pert. Triples
   Tobias Risthaus        : Range-separated hybrids, TD-DFT gradient, RPA, STAB
   Michael Roemelt        : Original ROCIS implementation
   Masaaki Saitow         : Open-shell DLPNO-CCSD energy and density
   Barbara Sandhoefer     : DKH picture change effects
   Avijit Sen             : IP-ROCIS
   Kantharuban Sivalingam : CASSCF convergence, NEVPT2, FIC-MRCI
   Bernardo de Souza      : ESD, SOC TD-DFT
   Georgi Stoychev        : AutoAux, RI-MP2 NMR, DLPNO-MP2 response
   Willem Van den Heuvel  : Paramagnetic NMR
   Boris Wezisla          : Elementary symmetry handling
   Frank Wennmohs         : Technical directorship


 We gratefully acknowledge several colleagues who have allowed us to
 interface, adapt or use parts of their codes:
   Stefan Grimme, W. Hujo, H. Kruse, P. Pracht,  : VdW corrections, initial TS optimization,
                  C. Bannwarth, S. Ehlert          DFT functionals, gCP, sTDA/sTD-DF
   Ed Valeev, F. Pavosevic, A. Kumar             : LibInt (2-el integral package), F12 methods
   Garnet Chan, S. Sharma, J. Yang, R. Olivares  : DMRG
   Ulf Ekstrom                                   : XCFun DFT Library
   Mihaly Kallay                                 : mrcc  (arbitrary order and MRCC methods)
   Jiri Pittner, Ondrej Demel                    : Mk-CCSD
   Frank Weinhold                                : gennbo (NPA and NBO analysis)
   Christopher J. Cramer and Donald G. Truhlar   : smd solvation model
   Lars Goerigk                                  : TD-DFT with DH, B97 family of functionals
   V. Asgeirsson, H. Jonsson                     : NEB implementation
   FAccTs GmbH                                   : IRC, NEB, NEB-TS, DLPNO-Multilevel, CI-OPT
                                                   MM, QMMM, 2- and 3-layer-ONIOM, Crystal-QMMM,
                                                   LR-CPCM, SF, NACMEs, symmetry and pop. for TD-DFT,
                                                   nearIR, NL-DFT gradient (VV10), updates on ESD,
                                                   ML-optimized integration grids
   S Lehtola, MJT Oliveira, MAL Marques          : LibXC Library
   Liviu Ungur et al                             : ANISO software


 Your calculation uses the libint2 library for the computation of 2-el integrals
 For citations please refer to: http://libint.valeyev.net

 Your ORCA version has been built with support for libXC version: 5.1.0
 For citations please refer to: https://tddft.org/programs/libxc/

 This ORCA versions uses:
   CBLAS   interface :  Fast vector & matrix operations
   LAPACKE interface :  Fast linear algebra routines
   SCALAPACK package :  Parallel linear algebra routines
   Shared memory     :  Shared parallel matrices
   BLAS/LAPACK       :  OpenBLAS 0.3.15  USE64BITINT DYNAMIC_ARCH NO_AFFINITY Haswell SINGLE_THREADED
        Core in use  :  Haswell
   Copyright (c) 2011-2014, The OpenBLAS Project




***************************************
The coordinates will be read from file: 04.xyz
***************************************


Your calculation utilizes the geometrical counterpoise correction gCP
Please cite in your paper:
H.Kruse, S. Grimme J.Chem.Phys., 136, (2012), 154101 
   

Your calculation utilizes the atom-pairwise dispersion correction
with the Becke-Johnson damping scheme (D3BJ)
Cite in your paper:
S.Grimme, S.Ehrlich, L.Goerigk, J Comput Chem, (2011), 32, 1456–1465 
S.Grimme, J.Antony, S.Ehrlich and H.Krieg, J.Chem.Phys., 132, (2010), 154104 
   

Your calculation employs the composite approach PBEh-3c.
Please cite in your paper:
S. Grimme, J. G. Brandenburg, C. Bannwarth, A. Hansen J.Chem.Phys., 143, (2015), 054107 
   

================================================================================

----- Orbital basis set information -----
Your calculation utilizes the basis: def2-mSVP

----- AuxJ basis set information -----
Your calculation utilizes the auxiliary basis: def2/J
   F. Weigend, Phys. Chem. Chem. Phys. 8, 1057 (2006).

================================================================================
                                        WARNINGS
                       Please study these warnings very carefully!
================================================================================


INFO   : the flag for use of the SHARK integral package has been found!

================================================================================
                                       INPUT FILE
================================================================================
NAME = pbeh-3c.inp
|  1> ! PBEh-3c def2/J TightSCF DefGrid3
|  2> 
|  3> %maxcore 60000
|  4> 
|  5> %pal
|  6> nprocs 4
|  7> end
|  8> 
|  9> *xyzfile 0 1 04.xyz
| 10> 
| 11>                          ****END OF INPUT****
================================================================================

                       ****************************
                       * Single Point Calculation *
                       ****************************

---------------------------------
CARTESIAN COORDINATES (ANGSTROEM)
---------------------------------
  O     -3.259503    0.443860    0.161591
  H     -3.778946    1.242390    0.263168
  H     -2.342581    0.760093    0.176031
  C     -0.669780   -1.416825   -0.144794
  H     -0.019817   -2.277937   -0.277709
  H     -1.350756   -1.339353   -0.988659
  H     -1.282797   -1.555621    0.742215
  C      0.084952   -0.118812   -0.012200
  O     -0.491763    0.956482    0.144389
  N      1.435585   -0.216315   -0.076818
  H      1.836537   -1.126849   -0.206333
  C      2.303827    0.935655    0.032625
  H      1.667333    1.803956    0.167410
  H      2.969417    0.844200    0.888718
  H      2.898293    1.065076   -0.869634

----------------------------
CARTESIAN COORDINATES (A.U.)
----------------------------
  NO LB      ZA    FRAG     MASS         X           Y           Z
   0 O     8.0000    0    15.999   -6.159569    0.838773    0.305363
   1 H     1.0000    0     1.008   -7.141173    2.347777    0.497316
   2 H     1.0000    0     1.008   -4.426837    1.436369    0.332650
   3 C     6.0000    0    12.011   -1.265701   -2.677411   -0.273620
   4 H     1.0000    0     1.008   -0.037449   -4.304677   -0.524794
   5 H     1.0000    0     1.008   -2.552559   -2.531011   -1.868294
   6 H     1.0000    0     1.008   -2.424135   -2.939698    1.402583
   7 C     6.0000    0    12.011    0.160536   -0.224523   -0.023055
   8 O     8.0000    0    15.999   -0.929298    1.807490    0.272855
   9 N     7.0000    0    14.007    2.712863   -0.408776   -0.145165
  10 H     1.0000    0     1.008    3.470551   -2.129436   -0.389913
  11 C     6.0000    0    12.011    4.353602    1.768132    0.061653
  12 H     1.0000    0     1.008    3.150803    3.408982    0.316358
  13 H     1.0000    0     1.008    5.611384    1.595307    1.679433
  14 H     1.0000    0     1.008    5.476980    2.012702   -1.643370

--------------------------------
INTERNAL COORDINATES (ANGSTROEM)
--------------------------------
 O      0   0   0     0.000000000000     0.00000000     0.00000000
 H      1   0   0     0.958013389234     0.00000000     0.00000000
 H      1   2   0     0.970030297057   103.83995664     0.00000000
 C      3   1   2     2.764085238243   108.27499867   180.82442433
 H      4   3   1     1.087028837100   179.39247803    33.02621260
 H      4   3   1     1.087124049560    69.81082291    58.00509371
 H      4   3   1     1.087123623867    70.40237330   300.74510931
 C      4   3   1     1.507328231484    67.33192736   179.58680107
 O      8   4   3     1.230194948693   121.94937241     0.35277085
 N      8   4   3     1.355688655517   115.63996155   180.34924363
 H     10   8   4     1.003298724070   118.00620756     0.02364542
 C     10   8   4     1.446671250987   122.48313663   179.97553628
 H     12  10   8     1.085005627807   107.13197558     0.11583050
 H     12  10   8     1.088240858873   111.07971731   119.26113193
 H     12  10   8     1.088214445497   111.09000339   240.96768248

---------------------------
INTERNAL COORDINATES (A.U.)
---------------------------
 O      0   0   0     0.000000000000     0.00000000     0.00000000
 H      1   0   0     1.810382938281     0.00000000     0.00000000
 H      1   2   0     1.833091603044   103.83995664     0.00000000
 C      3   1   2     5.223364111094   108.27499867   180.82442433
 H      4   3   1     2.054186801794   179.39247803    33.02621260
 H      4   3   1     2.054366727267    69.81082291    58.00509371
 H      4   3   1     2.054365922825    70.40237330   300.74510931
 C      4   3   1     2.848437551432    67.33192736   179.58680107
 O      8   4   3     2.324731544363   121.94937241     0.35277085
 N      8   4   3     2.561880281790   115.63996155   180.34924363
 H     10   8   4     1.895959819004   118.00620756     0.02364542
 C     10   8   4     2.733812470183   122.48313663   179.97553628
 H     12  10   8     2.050363490318   107.13197558     0.11583050
 H     12  10   8     2.056477191013   111.07971731   119.26113193
 H     12  10   8     2.056427276966   111.09000339   240.96768248

---------------------
BASIS SET INFORMATION
---------------------
There are 4 groups of distinct atoms

 Group   1 Type O   : 8s4p1d contracted to 4s2p1d pattern {5111/31/1}
 Group   2 Type H   : 4s contracted to 2s pattern {31}
 Group   3 Type C   : 8s4p1d contracted to 4s2p1d pattern {5111/31/1}
 Group   4 Type N   : 8s4p1d contracted to 4s2p1d pattern {5111/31/1}

Atom   0O    basis set group =>   1
Atom   1H    basis set group =>   2
Atom   2H    basis set group =>   2
Atom   3C    basis set group =>   3
Atom   4H    basis set group =>   2
Atom   5H    basis set group =>   2
Atom   6H    basis set group =>   2
Atom   7C    basis set group =>   3
Atom   8O    basis set group =>   1
Atom   9N    basis set group =>   4
Atom  10H    basis set group =>   2
Atom  11C    basis set group =>   3
Atom  12H    basis set group =>   2
Atom  13H    basis set group =>   2
Atom  14H    basis set group =>   2
---------------------------------
AUXILIARY/J BASIS SET INFORMATION
---------------------------------
There are 4 groups of distinct atoms

 Group   1 Type O   : 12s5p4d2f1g contracted to 6s4p3d1f1g pattern {711111/2111/211/2/1}
 Group   2 Type H   : 5s2p1d contracted to 3s1p1d pattern {311/2/1}
 Group   3 Type C   : 12s5p4d2f1g contracted to 6s4p3d1f1g pattern {711111/2111/211/2/1}
 Group   4 Type N   : 12s5p4d2f1g contracted to 6s4p3d1f1g pattern {711111/2111/211/2/1}

Atom   0O    basis set group =>   1
Atom   1H    basis set group =>   2
Atom   2H    basis set group =>   2
Atom   3C    basis set group =>   3
Atom   4H    basis set group =>   2
Atom   5H    basis set group =>   2
Atom   6H    basis set group =>   2
Atom   7C    basis set group =>   3
Atom   8O    basis set group =>   1
Atom   9N    basis set group =>   4
Atom  10H    basis set group =>   2
Atom  11C    basis set group =>   3
Atom  12H    basis set group =>   2
Atom  13H    basis set group =>   2
Atom  14H    basis set group =>   2


           ************************************************************
           *        Program running with 4 parallel MPI-processes     *
           *              working on a common directory               *
           ************************************************************
------------------------------------------------------------------------------
                           ORCA GTO INTEGRAL CALCULATION
                           -- RI-GTO INTEGRALS CHOSEN --
------------------------------------------------------------------------------
------------------------------------------------------------------------------
                   ___                                                        
                  /   \      - P O W E R E D   B Y -                         
                 /     \                                                     
                 |  |  |   _    _      __       _____    __    __             
                 |  |  |  | |  | |    /  \     |  _  \  |  |  /  |          
                  \  \/   | |  | |   /    \    | | | |  |  | /  /          
                 / \  \   | |__| |  /  /\  \   | |_| |  |  |/  /          
                |  |  |   |  __  | /  /__\  \  |    /   |      \           
                |  |  |   | |  | | |   __   |  |    \   |  |\   \          
                \     /   | |  | | |  |  |  |  | |\  \  |  | \   \       
                 \___/    |_|  |_| |__|  |__|  |_| \__\ |__|  \__/        
                                                                              
                      - O R C A' S   B I G   F R I E N D -                    
                                      &                                       
                       - I N T E G R A L  F E E D E R -                       
                                                                              
 v1 FN, 2020, v2 2021                                                         
------------------------------------------------------------------------------


Reading SHARK input file pbeh-3c.SHARKINP.tmp ... ok
----------------------
SHARK INTEGRAL PACKAGE
----------------------

Number of atoms                             ...     15
Number of basis functions                   ...    108
Number of shells                            ...     60
Maximum angular momentum                    ...      2
Integral batch strategy                     ... SHARK/LIBINT Hybrid
RI-J (if used) integral strategy            ... SPLIT-RIJ (Revised 2003 algorithm where possible)
Printlevel                                  ...      1
Contraction scheme used                     ... SEGMENTED contraction
Coulomb Range Separation                    ... NOT USED
Exchange Range Separation                   ... NOT USED
Finite Nucleus Model                        ... NOT USED
Auxiliary Coulomb fitting basis             ... AVAILABLE
   # of basis functions in Aux-J            ...    393
   # of shells in Aux-J                     ...    135
   Maximum angular momentum in Aux-J        ...      4
Auxiliary J/K fitting basis                 ... NOT available
Auxiliary Correlation fitting basis         ... NOT available
Auxiliary 'external' fitting basis          ... NOT available
Integral threshold                          ...     2.500000e-11
Primitive cut-off                           ...     2.500000e-12
Primitive pair pre-selection threshold      ...     2.500000e-12

Calculating pre-screening integrals         ... done (  0.1 sec) Dimension = 60
Organizing shell pair data                  ... done (  0.3 sec)
Shell pair information
Total number of shell pairs                 ...      1830
Shell pairs after pre-screening             ...      1643
Total number of primitive shell pairs       ...      6660
Primitive shell pairs kept                  ...      4292
          la=0 lb=0:    773 shell pairs
          la=1 lb=0:    478 shell pairs
          la=1 lb=1:     76 shell pairs
          la=2 lb=0:    228 shell pairs
          la=2 lb=1:     68 shell pairs
          la=2 lb=2:     20 shell pairs

Calculating one electron integrals          ... done (  0.0 sec)
Calculating RI/J V-Matrix + Cholesky decomp.... done (  0.8 sec)
Calculating Nuclear repulsion               ... done (  0.0 sec) ENN=    246.860761694808 Eh

SHARK setup successfully completed in   2.6 seconds

Maximum memory used throughout the entire GTOINT-calculation: 10.3 MB


           ************************************************************
           *        Program running with 4 parallel MPI-processes     *
           *              working on a common directory               *
           ************************************************************
-------------------------------------------------------------------------------
                                 ORCA SCF
-------------------------------------------------------------------------------

------------
SCF SETTINGS
------------
Hamiltonian:
 Density Functional     Method          .... DFT(GTOs)
 Exchange Functional    Exchange        .... PBE
   PBE kappa parameter   XKappa         ....  1.024500
   PBE mue parameter    XMuePBE         ....  0.123457
 Correlation Functional Correlation     .... PBE
   PBE beta parameter  CBetaPBE         ....  0.030000
 LDA part of GGA corr.  LDAOpt          .... PW91-LDA
 Gradients option       PostSCFGGA      .... off
 Hybrid DFT is turned on
   Fraction HF Exchange ScalHFX         ....  0.420000
   Scaling of DF-GGA-X  ScalDFX         ....  0.580000
   Scaling of DF-GGA-C  ScalDFC         ....  1.000000
   Scaling of DF-LDA-C  ScalLDAC        ....  1.000000
   Perturbative correction              ....  0.000000
   Density functional embedding theory  .... OFF
 RI-approximation to the Coulomb term is turned on
   Number of AuxJ basis functions       .... 393
   RIJ-ON(X) (HFX calculated with O(N)) .... on
   Number of AuxJ basis functions       .... 393
   RIJ-COSX (HFX calculated with COS-X)).... on


General Settings:
 Integral files         IntName         .... pbeh-3c
 Hartree-Fock type      HFTyp           .... RHF
 Total Charge           Charge          ....    0
 Multiplicity           Mult            ....    1
 Number of Electrons    NEL             ....   50
 Basis Dimension        Dim             ....  108
 Nuclear Repulsion      ENuc            ....    246.8607616948 Eh

Convergence Acceleration:
 DIIS                   CNVDIIS         .... on
   Start iteration      DIISMaxIt       ....    12
   Startup error        DIISStart       ....  0.200000
   # of expansion vecs  DIISMaxEq       ....     5
   Bias factor          DIISBfac        ....   1.050
   Max. coefficient     DIISMaxC        ....  10.000
 Trust-Rad. Augm. Hess. CNVTRAH         .... auto
   Auto Start mean grad. ratio tolernc. ....  1.125000
   Auto Start start iteration           ....    20
   Auto Start num. interpolation iter.  ....    10
   Max. Number of Micro iterations      ....    16
   Max. Number of Macro iterations      .... Maxiter - #DIIS iter
   Number of Davidson start vectors     ....     2
   Converg. threshold I  (grad. norm)   ....   1.000e-05
   Converg. threshold II (energy diff.) ....   1.000e-08
   Grad. Scal. Fac. for Micro threshold ....   0.100
   Minimum threshold for Micro iter.    ....   0.010
   NR start threshold (gradient norm)   ....   0.001
   Initial trust radius                 ....   0.400
   Minimum AH scaling param. (alpha)    ....   1.000
   Maximum AH scaling param. (alpha)    .... 1000.000
   Orbital update algorithm             .... Taylor
   White noise on init. David. guess    .... on
   Maximum white noise                  ....   0.010
   Quad. conv. algorithm                .... NR
   COSX micro iterations for RIJONX calc.... off
 SOSCF                  CNVSOSCF        .... on
   Start iteration      SOSCFMaxIt      ....   150
   Startup grad/error   SOSCFStart      ....  0.003300
 Level Shifting         CNVShift        .... on
   Level shift para.    LevelShift      ....    0.2500
   Turn off err/grad.   ShiftErr        ....    0.0010
 Zerner damping         CNVZerner       .... off
 Static damping         CNVDamp         .... on
   Fraction old density DampFac         ....    0.7000
   Max. Damping (<1)    DampMax         ....    0.9800
   Min. Damping (>=0)   DampMin         ....    0.0000
   Turn off err/grad.   DampErr         ....    0.1000
 Fernandez-Rico         CNVRico         .... off

SCF Procedure:
 Maximum # iterations   MaxIter         ....   125
 SCF integral mode      SCFMode         .... Direct
   Integral package                     .... SHARK and LIBINT hybrid scheme
 Reset frequency        DirectResetFreq ....    20
 Integral Threshold     Thresh          ....  2.500e-11 Eh
 Primitive CutOff       TCut            ....  2.500e-12 Eh

Convergence Tolerance:
 Convergence Check Mode ConvCheckMode   .... Total+1el-Energy
 Convergence forced     ConvForced      .... 0
 Energy Change          TolE            ....  1.000e-08 Eh
 1-El. energy change                    ....  1.000e-05 Eh
 Orbital Gradient       TolG            ....  1.000e-05
 Orbital Rotation angle TolX            ....  1.000e-05
 DIIS Error             TolErr          ....  5.000e-07


Diagonalization of the overlap matrix:
Smallest eigenvalue                        ... 6.106e-03
Time for diagonalization                   ...    0.002 sec
Threshold for overlap eigenvalues          ... 1.000e-08
Number of eigenvalues below threshold      ... 0
Time for construction of square roots      ...    0.190 sec
Total time needed                          ...    0.325 sec

--------------------------------
INITIAL GUESS: MINIMAL BASIS EHT
--------------------------------
The minimal basis has 39 functions
EHT matrix was diagonalized
Basis set overlap was calculated now projecting the orbitals
Using GuessMode=FMatrix for the initial guess
C*T matrix was formed
Effective Fockian was calculated
Effective Fockian was diagonalized
Initial density was built
                      ------------------
                      INITIAL GUESS DONE
                      ------------------
-------------------
DFT GRID GENERATION
-------------------

General Integration Accuracy     IntAcc      ... 4.959
Radial Grid Type                 RadialGrid  ... OptM3 with GC (2021)
Angular Grid (max. ang.)         AngularGrid ... 6 (Lebedev-590)
Angular grid pruning method      GridPruning ... 4 (adaptive)
Weight generation scheme         WeightScheme... Becke
Basis function cutoff            BFCut       ... 1.0000e-11
Integration weight cutoff        WCut        ... 1.0000e-14
Angular grids for H and He will be reduced by one unit
Partially contracted basis set               ... off
Rotationally invariant grid construction     ... off

Total number of grid points                  ...   165611
Total number of batches                      ...     2595
Average number of points per batch           ...       63
Average number of grid points per atom       ...    11041
Time for grid setup =    3.803 sec

--------------------
COSX GRID GENERATION
--------------------

GRIDX 1
-------
General Integration Accuracy     IntAcc      ... 4.020
Radial Grid Type                 RadialGrid  ... OptM3 with GC (2021)
Angular Grid (max. ang.)         AngularGrid ... 2 (Lebedev-110)
Angular grid pruning method      GridPruning ... 4 (adaptive)
Weight generation scheme         WeightScheme... Becke
Basis function cutoff            BFCut       ... 1.0000e-11
Integration weight cutoff        WCut        ... 1.0000e-14
Angular grids for H and He will be reduced by one unit
Partially contracted basis set               ... on
Rotationally invariant grid construction     ... off

Total number of grid points                  ...    17908
Total number of batches                      ...      286
Average number of points per batch           ...       62
Average number of grid points per atom       ...     1194
UseSFitting                                  ... on

GRIDX 2
-------
General Integration Accuracy     IntAcc      ... 4.338
Radial Grid Type                 RadialGrid  ... OptM3 with GC (2021)
Angular Grid (max. ang.)         AngularGrid ... 3 (Lebedev-194)
Angular grid pruning method      GridPruning ... 4 (adaptive)
Weight generation scheme         WeightScheme... Becke
Basis function cutoff            BFCut       ... 1.0000e-11
Integration weight cutoff        WCut        ... 1.0000e-14
Angular grids for H and He will be reduced by one unit
Partially contracted basis set               ... on
Rotationally invariant grid construction     ... off

Total number of grid points                  ...    39222
Total number of batches                      ...      621
Average number of points per batch           ...       63
Average number of grid points per atom       ...     2615
UseSFitting                                  ... on

GRIDX 3
-------
General Integration Accuracy     IntAcc      ... 4.871
Radial Grid Type                 RadialGrid  ... OptM3 with GC (2021)
Angular Grid (max. ang.)         AngularGrid ... 4 (Lebedev-302)
Angular grid pruning method      GridPruning ... 4 (adaptive)
Weight generation scheme         WeightScheme... Becke
Basis function cutoff            BFCut       ... 1.0000e-11
Integration weight cutoff        WCut        ... 1.0000e-14
Angular grids for H and He will be reduced by one unit
Partially contracted basis set               ... on
Rotationally invariant grid construction     ... off

Total number of grid points                  ...    76904
Total number of batches                      ...     1209
Average number of points per batch           ...       63
Average number of grid points per atom       ...     5127
UseSFitting                                  ... on

Time for X-Grid setup             =    3.669 sec

--------------
SCF ITERATIONS
--------------
ITER       Energy         Delta-E        Max-DP      RMS-DP      [F,P]     Damp
               ***  Starting incremental Fock matrix formation  ***
  0   -323.1880113495   0.000000000000 0.20136690  0.00727373  0.5639933 0.7000
  1   -323.6020365231  -0.414025173584 0.11123307  0.00406723  0.2935801 0.7000
  2   -323.8035305213  -0.201493998261 0.05266890  0.00216697  0.2073437 0.7000
                               ***Turning on DIIS***
  3   -323.9426992975  -0.139168776128 0.03606807  0.00140772  0.1458377 0.7000
  4   -324.0427584240  -0.100059126545 0.02336236  0.00104101  0.1023729 0.7000
  5   -324.1134377972  -0.070679373169 0.06327618  0.00260564  0.0718471 0.0000
  6   -324.2810561826  -0.167618385381 0.00662973  0.00018629  0.0047823 0.0000
                      *** Initiating the SOSCF procedure ***
                           *** Shutting down DIIS ***
                      *** Re-Reading the Fockian *** 
                      *** Removing any level shift *** 
ITER      Energy       Delta-E        Grad      Rot      Max-DP    RMS-DP
  7   -324.28117199  -0.0001158118  0.000698  0.000698  0.001756  0.000082
               *** Restarting incremental Fock matrix formation ***
  8   -324.28119262  -0.0000206295  0.000769  0.002082  0.001970  0.000067
  9   -324.28120019  -0.0000075658  0.000295  0.000645  0.001435  0.000061
 10   -324.28120062  -0.0000004304  0.000263  0.000270  0.000704  0.000029
 11   -324.28120206  -0.0000014412  0.000021  0.000022  0.000070  0.000002
 12   -324.28120206   0.0000000014  0.000025  0.000011  0.000035  0.000001
                  ***Gradient check signals convergence***
              ***Rediagonalizing the Fockian in SOSCF/NRSCF***

               *****************************************************
               *                     SUCCESS                       *
               *           SCF CONVERGED AFTER  13 CYCLES          *
               *****************************************************

Old exchange energy                            =    -17.581394207 Eh
New exchange energy                            =    -17.581397040 Eh
Exchange energy change after final integration =     -0.000002833 Eh
Total energy after final integration           =   -324.281204899 Eh
Final COS-X integration done in                =     2.177 sec

----------------
TOTAL SCF ENERGY
----------------

Total Energy       :         -324.28120490 Eh           -8824.14020 eV

Components:
Nuclear Repulsion  :          246.86076169 Eh            6717.42283 eV
Electronic Energy  :         -571.14196659 Eh          -15541.56303 eV
One Electron Energy:         -931.41988729 Eh          -25345.22366 eV
Two Electron Energy:          360.27792070 Eh            9803.66063 eV
Max COSX asymmetry :            0.00000216 Eh               0.00006 eV

Virial components:
Potential Energy   :         -646.31037349 Eh          -17586.99937 eV
Kinetic Energy     :          322.02916860 Eh            8762.85917 eV
Virial Ratio       :            2.00699327


DFT components:
N(Alpha)           :       25.000001576414 electrons
N(Beta)            :       25.000001576414 electrons
N(Total)           :       50.000003152828 electrons
E(X)               :      -23.382763442460 Eh       
E(C)               :       -2.186716330130 Eh       
E(XC)              :      -25.569479772590 Eh       
DFET-embed. en.    :        0.000000000000 Eh       

---------------
SCF CONVERGENCE
---------------

  Last Energy change         ...   -6.8332e-09  Tolerance :   1.0000e-08
  Last MAX-Density change    ...    1.8874e-15  Tolerance :   1.0000e-07
  Last RMS-Density change    ...    6.9732e-17  Tolerance :   5.0000e-09
  Last Orbital Gradient      ...    7.1297e-07  Tolerance :   1.0000e-05
  Last Orbital Rotation      ...    1.8287e-06  Tolerance :   1.0000e-05

             **** THE GBW FILE WAS UPDATED (pbeh-3c.gbw) ****
             **** DENSITY pbeh-3c.scfp WAS UPDATED ****
             **** ENERGY FILE WAS UPDATED (pbeh-3c.en.tmp) ****
             **** THE GBW FILE WAS UPDATED (pbeh-3c.gbw) ****
             **** DENSITY pbeh-3c.scfp WAS UPDATED ****
----------------
ORBITAL ENERGIES
----------------

  NO   OCC          E(Eh)            E(eV) 
   0   2.0000     -19.467372      -529.7341 
   1   2.0000     -19.430483      -528.7303 
   2   2.0000     -14.673939      -399.2982 
   3   2.0000     -10.557965      -287.2968 
   4   2.0000     -10.472899      -284.9821 
   5   2.0000     -10.440881      -284.1108 
   6   2.0000      -1.151694       -31.3392 
   7   2.0000      -1.059348       -28.8263 
   8   2.0000      -1.031449       -28.0672 
   9   2.0000      -0.847768       -23.0690 
  10   2.0000      -0.776879       -21.1400 
  11   2.0000      -0.668045       -18.1784 
  12   2.0000      -0.577724       -15.7207 
  13   2.0000      -0.544939       -14.8286 
  14   2.0000      -0.542588       -14.7646 
  15   2.0000      -0.530033       -14.4229 
  16   2.0000      -0.487591       -13.2680 
  17   2.0000      -0.472862       -12.8672 
  18   2.0000      -0.460536       -12.5318 
  19   2.0000      -0.450467       -12.2578 
  20   2.0000      -0.414240       -11.2720 
  21   2.0000      -0.396528       -10.7901 
  22   2.0000      -0.321188        -8.7400 
  23   2.0000      -0.318987        -8.6801 
  24   2.0000      -0.311980        -8.4894 
  25   0.0000       0.057144         1.5550 
  26   0.0000       0.112632         3.0649 
  27   0.0000       0.169894         4.6230 
  28   0.0000       0.179325         4.8797 
  29   0.0000       0.183590         4.9957 
  30   0.0000       0.201215         5.4753 
  31   0.0000       0.213075         5.7981 
  32   0.0000       0.214418         5.8346 
  33   0.0000       0.226434         6.1616 
  34   0.0000       0.232077         6.3151 
  35   0.0000       0.266726         7.2580 
  36   0.0000       0.299972         8.1626 
  37   0.0000       0.390433        10.6242 
  38   0.0000       0.447243        12.1701 
  39   0.0000       0.480478        13.0745 
  40   0.0000       0.502891        13.6844 
  41   0.0000       0.513079        13.9616 
  42   0.0000       0.522854        14.2276 
  43   0.0000       0.570240        15.5170 
  44   0.0000       0.591947        16.1077 
  45   0.0000       0.649143        17.6641 
  46   0.0000       0.683102        18.5882 
  47   0.0000       0.707104        19.2413 
  48   0.0000       0.803603        21.8672 
  49   0.0000       0.858994        23.3744 
  50   0.0000       0.865186        23.5429 
  51   0.0000       0.941452        25.6182 
  52   0.0000       0.962698        26.1963 
  53   0.0000       0.980935        26.6926 
  54   0.0000       1.005428        27.3591 
  55   0.0000       1.006362        27.3845 
  56   0.0000       1.019321        27.7371 
  57   0.0000       1.033982        28.1361 
  58   0.0000       1.049413        28.5560 
  59   0.0000       1.056660        28.7532 
  60   0.0000       1.071073        29.1454 
  61   0.0000       1.079118        29.3643 
  62   0.0000       1.113008        30.2865 
  63   0.0000       1.146888        31.2084 
  64   0.0000       1.218448        33.1557 
  65   0.0000       1.266796        34.4713 
  66   0.0000       1.331651        36.2361 
  67   0.0000       1.370788        37.3010 
  68   0.0000       1.374618        37.4052 
  69   0.0000       1.451589        39.4997 
  70   0.0000       1.453142        39.5420 
  71   0.0000       1.582626        43.0654 
  72   0.0000       1.594832        43.3976 
  73   0.0000       1.780394        48.4470 
  74   0.0000       1.821344        49.5613 
  75   0.0000       1.831429        49.8357 
  76   0.0000       1.849165        50.3183 
  77   0.0000       1.863088        50.6972 
  78   0.0000       1.865509        50.7631 
  79   0.0000       1.881618        51.2014 
  80   0.0000       1.918282        52.1991 
  81   0.0000       1.942998        52.8717 
  82   0.0000       1.959711        53.3264 
  83   0.0000       2.023887        55.0728 
  84   0.0000       2.126965        57.8777 
  85   0.0000       2.131997        58.0146 
  86   0.0000       2.144235        58.3476 
  87   0.0000       2.269493        61.7561 
  88   0.0000       2.289935        62.3123 
  89   0.0000       2.324893        63.2636 
  90   0.0000       2.385056        64.9007 
  91   0.0000       2.388038        64.9818 
  92   0.0000       2.468824        67.1801 
  93   0.0000       2.471334        67.2484 
  94   0.0000       2.554953        69.5238 
  95   0.0000       2.611562        71.0642 
  96   0.0000       2.706149        73.6381 
  97   0.0000       2.738733        74.5247 
  98   0.0000       2.778249        75.6000 
  99   0.0000       2.930750        79.7498 
 100   0.0000       3.049349        82.9770 
 101   0.0000       3.218147        87.5702 
 102   0.0000      13.646527       371.3409 
 103   0.0000      13.754756       374.2859 
 104   0.0000      14.046153       382.2153 
 105   0.0000      19.266633       524.2717 
 106   0.0000      25.442287       692.3198 
 107   0.0000      25.721277       699.9115 

                    ********************************
                    * MULLIKEN POPULATION ANALYSIS *
                    ********************************

-----------------------
MULLIKEN ATOMIC CHARGES
-----------------------
   0 O :   -0.877463
   1 H :    0.395988
   2 H :    0.437923
   3 C :   -0.759256
   4 H :    0.207400
   5 H :    0.278493
   6 H :    0.277850
   7 C :    0.547222
   8 O :   -0.466020
   9 N :   -0.620996
  10 H :    0.358879
  11 C :   -0.496985
  12 H :    0.270848
  13 H :    0.223049
  14 H :    0.223066
Sum of atomic charges:   -0.0000000

--------------------------------
MULLIKEN REDUCED ORBITAL CHARGES
--------------------------------
  0 O s       :     3.843954  s :     3.843954
      pz      :     1.989153  p :     5.006708
      px      :     1.408139
      py      :     1.609415
      dz2     :     0.005492  d :     0.026801
      dxz     :     0.000323
      dyz     :     0.002402
      dx2y2   :     0.006909
      dxy     :     0.011675
  1 H s       :     0.604012  s :     0.604012
  2 H s       :     0.562077  s :     0.562077
  3 C s       :     3.409281  s :     3.409281
      pz      :     1.208608  p :     3.316058
      px      :     1.124322
      py      :     0.983129
      dz2     :     0.007139  d :     0.033916
      dxz     :     0.010023
      dyz     :     0.001974
      dx2y2   :     0.004109
      dxy     :     0.010670
  4 H s       :     0.792600  s :     0.792600
  5 H s       :     0.721507  s :     0.721507
  6 H s       :     0.722150  s :     0.722150
  7 C s       :     2.974842  s :     2.974842
      pz      :     0.744013  p :     2.355854
      px      :     0.763153
      py      :     0.848688
      dz2     :     0.006853  d :     0.122082
      dxz     :     0.020450
      dyz     :     0.016596
      dx2y2   :     0.046047
      dxy     :     0.032137
  8 O s       :     3.772694  s :     3.772694
      pz      :     1.503179  p :     4.665612
      px      :     1.693311
      py      :     1.469122
      dz2     :     0.002888  d :     0.027714
      dxz     :     0.002267
      dyz     :     0.008031
      dx2y2   :     0.006836
      dxy     :     0.007693
  9 N s       :     3.531053  s :     3.531053
      pz      :     1.693632  p :     4.054780
      px      :     1.140516
      py      :     1.220632
      dz2     :     0.003893  d :     0.035163
      dxz     :     0.005311
      dyz     :     0.002389
      dx2y2   :     0.012463
      dxy     :     0.011106
 10 H s       :     0.641121  s :     0.641121
 11 C s       :     3.341433  s :     3.341433
      pz      :     1.120901  p :     3.104935
      px      :     1.037167
      py      :     0.946867
      dz2     :     0.008786  d :     0.050617
      dxz     :     0.015593
      dyz     :     0.005217
      dx2y2   :     0.005785
      dxy     :     0.015236
 12 H s       :     0.729152  s :     0.729152
 13 H s       :     0.776951  s :     0.776951
 14 H s       :     0.776934  s :     0.776934


                     *******************************
                     * LOEWDIN POPULATION ANALYSIS *
                     *******************************

----------------------
LOEWDIN ATOMIC CHARGES
----------------------
   0 O :   -0.636205
   1 H :    0.291942
   2 H :    0.291512
   3 C :   -0.391740
   4 H :    0.124949
   5 H :    0.167616
   6 H :    0.167333
   7 C :    0.119912
   8 O :   -0.296103
   9 N :   -0.239053
  10 H :    0.254151
  11 C :   -0.259300
  12 H :    0.156934
  13 H :    0.124034
  14 H :    0.124017

-------------------------------
LOEWDIN REDUCED ORBITAL CHARGES
-------------------------------
  0 O s       :     3.591796  s :     3.591796
      pz      :     1.989999  p :     5.010534
      px      :     1.402138
      py      :     1.618397
      dz2     :     0.005999  d :     0.033875
      dxz     :     0.000372
      dyz     :     0.002462
      dx2y2   :     0.009370
      dxy     :     0.015672
  1 H s       :     0.708058  s :     0.708058
  2 H s       :     0.708488  s :     0.708488
  3 C s       :     2.960142  s :     2.960142
      pz      :     1.167841  p :     3.368177
      px      :     1.130209
      py      :     1.070126
      dz2     :     0.012462  d :     0.063420
      dxz     :     0.016772
      dyz     :     0.003852
      dx2y2   :     0.009015
      dxy     :     0.021319
  4 H s       :     0.875051  s :     0.875051
  5 H s       :     0.832384  s :     0.832384
  6 H s       :     0.832667  s :     0.832667
  7 C s       :     2.827725  s :     2.827725
      pz      :     0.768373  p :     2.776879
      px      :     0.971476
      py      :     1.037030
      dz2     :     0.015906  d :     0.275484
      dxz     :     0.042535
      dyz     :     0.033353
      dx2y2   :     0.106921
      dxy     :     0.076770
  8 O s       :     3.520457  s :     3.520457
      pz      :     1.497627  p :     4.721883
      px      :     1.684539
      py      :     1.539718
      dz2     :     0.006278  d :     0.053762
      dxz     :     0.003454
      dyz     :     0.010835
      dx2y2   :     0.016005
      dxy     :     0.017190
  9 N s       :     3.105351  s :     3.105351
      pz      :     1.638662  p :     4.050872
      px      :     1.200760
      py      :     1.211450
      dz2     :     0.006074  d :     0.082830
      dxz     :     0.010701
      dyz     :     0.005353
      dx2y2   :     0.031960
      dxy     :     0.028741
 10 H s       :     0.745849  s :     0.745849
 11 C s       :     2.938517  s :     2.938517
      pz      :     1.133918  p :     3.222679
      px      :     1.068938
      py      :     1.019823
      dz2     :     0.015558  d :     0.098103
      dxz     :     0.028699
      dyz     :     0.011175
      dx2y2   :     0.012096
      dxy     :     0.030574
 12 H s       :     0.843066  s :     0.843066
 13 H s       :     0.875966  s :     0.875966
 14 H s       :     0.875983  s :     0.875983


                      *****************************
                      * MAYER POPULATION ANALYSIS *
                      *****************************

  NA   - Mulliken gross atomic population
  ZA   - Total nuclear charge
  QA   - Mulliken gross atomic charge
  VA   - Mayer's total valence
  BVA  - Mayer's bonded valence
  FA   - Mayer's free valence

  ATOM       NA         ZA         QA         VA         BVA        FA
  0 O      8.8775     8.0000    -0.8775     1.5758     1.5758    -0.0000
  1 H      0.6040     1.0000     0.3960     0.8226     0.8226    -0.0000
  2 H      0.5621     1.0000     0.4379     0.8202     0.8202     0.0000
  3 C      6.7593     6.0000    -0.7593     3.6797     3.6797    -0.0000
  4 H      0.7926     1.0000     0.2074     0.9151     0.9151    -0.0000
  5 H      0.7215     1.0000     0.2785     0.8934     0.8934    -0.0000
  6 H      0.7221     1.0000     0.2779     0.8934     0.8934    -0.0000
  7 C      5.4528     6.0000     0.5472     3.9663     3.9663    -0.0000
  8 O      8.4660     8.0000    -0.4660     2.1533     2.1533    -0.0000
  9 N      7.6210     7.0000    -0.6210     3.0372     3.0372    -0.0000
 10 H      0.6411     1.0000     0.3589     0.8445     0.8445    -0.0000
 11 C      6.4970     6.0000    -0.4970     3.6778     3.6778    -0.0000
 12 H      0.7292     1.0000     0.2708     0.9135     0.9135    -0.0000
 13 H      0.7770     1.0000     0.2230     0.9072     0.9072     0.0000
 14 H      0.7769     1.0000     0.2231     0.9072     0.9072    -0.0000

  Mayer bond orders larger than 0.100000
B(  0-O ,  1-H ) :   0.8258 B(  0-O ,  2-H ) :   0.7177 B(  3-C ,  4-H ) :   0.9188 
B(  3-C ,  5-H ) :   0.8962 B(  3-C ,  6-H ) :   0.8968 B(  3-C ,  7-C ) :   0.9449 
B(  7-C ,  8-O ) :   1.8760 B(  7-C ,  9-N ) :   1.1710 B(  9-N , 10-H ) :   0.8266 
B(  9-N , 11-C ) :   0.9445 B( 11-C , 12-H ) :   0.8958 B( 11-C , 13-H ) :   0.9205 
B( 11-C , 14-H ) :   0.9205 

-------
TIMINGS
-------

Total SCF time: 0 days 0 hours 1 min 9 sec 

Total time                  ....      69.422 sec
Sum of individual times     ....      62.729 sec  ( 90.4%)

Fock matrix formation       ....      52.270 sec  ( 75.3%)
  Split-RI-J                ....       5.642 sec  ( 10.8% of F)
  Chain of spheres X        ....      17.759 sec  ( 34.0% of F)
  XC integration            ....      16.491 sec  ( 31.6% of F)
    Basis function eval.    ....       2.753 sec  ( 16.7% of XC)
    Density eval.           ....       1.600 sec  (  9.7% of XC)
    XC-Functional eval.     ....       1.384 sec  (  8.4% of XC)
    XC-Potential eval.      ....       0.829 sec  (  5.0% of XC)
Diagonalization             ....       0.389 sec  (  0.6%)
Density matrix formation    ....       0.105 sec  (  0.2%)
Population analysis         ....       0.629 sec  (  0.9%)
Initial guess               ....       0.008 sec  (  0.0%)
Orbital Transformation      ....       0.000 sec  (  0.0%)
Orbital Orthonormalization  ....       0.000 sec  (  0.0%)
DIIS solution               ....       0.996 sec  (  1.4%)
SOSCF solution              ....       0.860 sec  (  1.2%)
Grid generation             ....       7.472 sec  ( 10.8%)

Maximum memory used throughout the entire SCF-calculation: 52.2 MB


-------------------------------------------------------------------------------
                          DFT DISPERSION CORRECTION                            
                                                                               
                              DFTD3 V3.1  Rev 1                                
                          USING Becke-Johnson damping                          
-------------------------------------------------------------------------------
The PBEh-3c composite method is recognized
Using three-body term ABC
Active option DFTDOPT                   ...         4   

molecular C6(AA) [au] = 1598.454924 


            DFT-D V3
 parameters
 s6 scaling factor         :     1.0000 
 a1 scaling factor         :     0.4860 
 s8 scaling factor         :     0.0000 
 a2 scaling factor         :     4.5000 
 Damping factor alpha9(ATM):    16.0000 
 ad hoc parameters k1-k3   :    16.0000     1.3333    -4.0000 

 Edisp/kcal,au: -3.559286650028  -0.005672083717 
 E6   /kcal   :  -3.561014391 
 E8   /kcal   :  -0.000000000 
 E6(ABC)      :   0.001727741 
 % E8         :   0.000000000 
 % E6(ABC)    :  -0.048541768 

-------------------------   ----------------
Dispersion correction           -0.005672084
-------------------------   ----------------

------------------   -----------------
gCP correction             0.028428758
------------------   -----------------

-------------------------   --------------------
FINAL SINGLE POINT ENERGY      -324.258448225314
-------------------------   --------------------


                            ***************************************
                            *     ORCA property calculations      *
                            ***************************************

                                    ---------------------
                                    Active property flags
                                    ---------------------
   (+) Dipole Moment


------------------------------------------------------------------------------
                       ORCA ELECTRIC PROPERTIES CALCULATION
------------------------------------------------------------------------------

Dipole Moment Calculation                       ... on
Quadrupole Moment Calculation                   ... off
Polarizability Calculation                      ... off
GBWName                                         ... pbeh-3c.gbw
Electron density                                ... pbeh-3c.scfp
The origin for moment calculation is the CENTER OF MASS  = (-0.387028,  0.240163  0.046044)

-------------
DIPOLE MOMENT
-------------
                                X             Y             Z
Electronic contribution:     -0.65455       1.19011       0.18327
Nuclear contribution   :      2.24871      -1.60596      -0.30080
                        -----------------------------------------
Total Dipole Moment    :      1.59415      -0.41585      -0.11753
                        -----------------------------------------
Magnitude (a.u.)       :      1.65169
Magnitude (Debye)      :      4.19825



--------------------
Rotational spectrum 
--------------------
 
Rotational constants in cm-1:     0.228949     0.052879     0.043653 
Rotational constants in MHz :  6863.715928  1585.277937  1308.670969 

 Dipole components along the rotational axes: 
x,y,z [a.u.] :    -1.582179    -0.473935    -0.012734 
x,y,z [Debye]:    -4.021580    -1.204647    -0.032366 

 

Timings for individual modules:

Sum of individual times         ...       74.259 sec (=   1.238 min)
GTO integral calculation        ...        3.635 sec (=   0.061 min)   4.9 %
SCF iterations                  ...       70.624 sec (=   1.177 min)  95.1 %
                             ****ORCA TERMINATED NORMALLY****
TOTAL RUN TIME: 0 days 0 hours 1 minutes 19 seconds 642 msec
