
                                 *****************
                                 * O   R   C   A *
                                 *****************

                                            #,                                       
                                            ###                                      
                                            ####                                     
                                            #####                                    
                                            ######                                   
                                           ########,                                 
                                     ,,################,,,,,                         
                               ,,#################################,,                 
                          ,,##########################################,,             
                       ,#########################################, ''#####,          
                    ,#############################################,,   '####,        
                  ,##################################################,,,,####,       
                ,###########''''           ''''###############################       
              ,#####''   ,,,,##########,,,,          '''####'''          '####       
            ,##' ,,,,###########################,,,                        '##       
           ' ,,###''''                  '''############,,,                           
         ,,##''                                '''############,,,,        ,,,,,,###''
      ,#''                                            '''#######################'''  
     '                                                          ''''####''''         
             ,#######,   #######,   ,#######,      ##                                
            ,#'     '#,  ##    ##  ,#'     '#,    #''#        ######   ,####,        
            ##       ##  ##   ,#'  ##            #'  '#       #        #'  '#        
            ##       ##  #######   ##           ,######,      #####,   #    #        
            '#,     ,#'  ##    ##  '#,     ,#' ,#      #,         ##   #,  ,#        
             '#######'   ##     ##  '#######'  #'      '#     #####' # '####'        



                  #######################################################
                  #                        -***-                        #
                  #          Department of theory and spectroscopy      #
                  #    Directorship and core code : Frank Neese         #
                  #        Max Planck Institute fuer Kohlenforschung    #
                  #                Kaiser Wilhelm Platz 1               #
                  #                 D-45470 Muelheim/Ruhr               #
                  #                      Germany                        #
                  #                                                     #
                  #                  All rights reserved                #
                  #                        -***-                        #
                  #######################################################


                         Program Version 5.0.3 -  RELEASE  -


 With contributions from (in alphabetic order):
   Daniel Aravena         : Magnetic Suceptibility
   Michael Atanasov       : Ab Initio Ligand Field Theory (pilot matlab implementation)
   Alexander A. Auer      : GIAO ZORA, VPT2 properties, NMR spectrum
   Ute Becker             : Parallelization
   Giovanni Bistoni       : ED, misc. LED, open-shell LED, HFLD
   Martin Brehm           : Molecular dynamics
   Dmytro Bykov           : SCF Hessian
   Vijay G. Chilkuri      : MRCI spin determinant printing, contributions to CSF-ICE
   Dipayan Datta          : RHF DLPNO-CCSD density
   Achintya Kumar Dutta   : EOM-CC, STEOM-CC
   Dmitry Ganyushin       : Spin-Orbit,Spin-Spin,Magnetic field MRCI
   Miquel Garcia          : C-PCM and meta-GGA Hessian, CC/C-PCM, Gaussian charge scheme
   Yang Guo               : DLPNO-NEVPT2, F12-NEVPT2, CIM, IAO-localization
   Andreas Hansen         : Spin unrestricted coupled pair/coupled cluster methods
   Benjamin Helmich-Paris : MC-RPA, TRAH-SCF, COSX integrals
   Lee Huntington         : MR-EOM, pCC
   Robert Izsak           : Overlap fitted RIJCOSX, COSX-SCS-MP3, EOM
   Marcus Kettner         : VPT2
   Christian Kollmar      : KDIIS, OOCD, Brueckner-CCSD(T), CCSD density, CASPT2, CASPT2-K
   Simone Kossmann        : Meta GGA functionals, TD-DFT gradient, OOMP2, MP2 Hessian
   Martin Krupicka        : Initial AUTO-CI
   Lucas Lang             : DCDCAS
   Marvin Lechner         : AUTO-CI (C++ implementation), FIC-MRCC
   Dagmar Lenk            : GEPOL surface, SMD
   Dimitrios Liakos       : Extrapolation schemes; Compound Job, initial MDCI parallelization
   Dimitrios Manganas     : Further ROCIS development; embedding schemes
   Dimitrios Pantazis     : SARC Basis sets
   Anastasios Papadopoulos: AUTO-CI, single reference methods and gradients
   Taras Petrenko         : DFT Hessian,TD-DFT gradient, ASA, ECA, R-Raman, ABS, FL, XAS/XES, NRVS
   Peter Pinski           : DLPNO-MP2, DLPNO-MP2 Gradient
   Christoph Reimann      : Effective Core Potentials
   Marius Retegan         : Local ZFS, SOC
   Christoph Riplinger    : Optimizer, TS searches, QM/MM, DLPNO-CCSD(T), (RO)-DLPNO pert. Triples
   Tobias Risthaus        : Range-separated hybrids, TD-DFT gradient, RPA, STAB
   Michael Roemelt        : Original ROCIS implementation
   Masaaki Saitow         : Open-shell DLPNO-CCSD energy and density
   Barbara Sandhoefer     : DKH picture change effects
   Avijit Sen             : IP-ROCIS
   Kantharuban Sivalingam : CASSCF convergence, NEVPT2, FIC-MRCI
   Bernardo de Souza      : ESD, SOC TD-DFT
   Georgi Stoychev        : AutoAux, RI-MP2 NMR, DLPNO-MP2 response
   Willem Van den Heuvel  : Paramagnetic NMR
   Boris Wezisla          : Elementary symmetry handling
   Frank Wennmohs         : Technical directorship


 We gratefully acknowledge several colleagues who have allowed us to
 interface, adapt or use parts of their codes:
   Stefan Grimme, W. Hujo, H. Kruse, P. Pracht,  : VdW corrections, initial TS optimization,
                  C. Bannwarth, S. Ehlert          DFT functionals, gCP, sTDA/sTD-DF
   Ed Valeev, F. Pavosevic, A. Kumar             : LibInt (2-el integral package), F12 methods
   Garnet Chan, S. Sharma, J. Yang, R. Olivares  : DMRG
   Ulf Ekstrom                                   : XCFun DFT Library
   Mihaly Kallay                                 : mrcc  (arbitrary order and MRCC methods)
   Jiri Pittner, Ondrej Demel                    : Mk-CCSD
   Frank Weinhold                                : gennbo (NPA and NBO analysis)
   Christopher J. Cramer and Donald G. Truhlar   : smd solvation model
   Lars Goerigk                                  : TD-DFT with DH, B97 family of functionals
   V. Asgeirsson, H. Jonsson                     : NEB implementation
   FAccTs GmbH                                   : IRC, NEB, NEB-TS, DLPNO-Multilevel, CI-OPT
                                                   MM, QMMM, 2- and 3-layer-ONIOM, Crystal-QMMM,
                                                   LR-CPCM, SF, NACMEs, symmetry and pop. for TD-DFT,
                                                   nearIR, NL-DFT gradient (VV10), updates on ESD,
                                                   ML-optimized integration grids
   S Lehtola, MJT Oliveira, MAL Marques          : LibXC Library
   Liviu Ungur et al                             : ANISO software


 Your calculation uses the libint2 library for the computation of 2-el integrals
 For citations please refer to: http://libint.valeyev.net

 Your ORCA version has been built with support for libXC version: 5.1.0
 For citations please refer to: https://tddft.org/programs/libxc/

 This ORCA versions uses:
   CBLAS   interface :  Fast vector & matrix operations
   LAPACKE interface :  Fast linear algebra routines
   SCALAPACK package :  Parallel linear algebra routines
   Shared memory     :  Shared parallel matrices
   BLAS/LAPACK       :  OpenBLAS 0.3.15  USE64BITINT DYNAMIC_ARCH NO_AFFINITY Haswell SINGLE_THREADED
        Core in use  :  Haswell
   Copyright (c) 2011-2014, The OpenBLAS Project




***************************************
The coordinates will be read from file: P31.xyz
***************************************


Your calculation utilizes the geometrical counterpoise correction gCP
Please cite in your paper:
H.Kruse, S. Grimme J.Chem.Phys., 136, (2012), 154101 
   

Your calculation utilizes the atom-pairwise dispersion correction
with the Becke-Johnson damping scheme (D3BJ)
Cite in your paper:
S.Grimme, S.Ehrlich, L.Goerigk, J Comput Chem, (2011), 32, 1456–1465 
S.Grimme, J.Antony, S.Ehrlich and H.Krieg, J.Chem.Phys., 132, (2010), 154104 
   

Your calculation employs the composite approach PBEh-3c.
Please cite in your paper:
S. Grimme, J. G. Brandenburg, C. Bannwarth, A. Hansen J.Chem.Phys., 143, (2015), 054107 
   

================================================================================

----- Orbital basis set information -----
Your calculation utilizes the basis: def2-mSVP

----- AuxJ basis set information -----
Your calculation utilizes the auxiliary basis: def2/J
   F. Weigend, Phys. Chem. Chem. Phys. 8, 1057 (2006).

================================================================================
                                        WARNINGS
                       Please study these warnings very carefully!
================================================================================


INFO   : the flag for use of the SHARK integral package has been found!

================================================================================
                                       INPUT FILE
================================================================================
NAME = pbeh-3c.inp
|  1> ! PBEh-3c def2/J TightSCF DefGrid3
|  2> 
|  3> %maxcore 60000
|  4> 
|  5> %pal
|  6> nprocs 4
|  7> end
|  8> 
|  9> *xyzfile 0 1 P31.xyz
| 10> 
| 11>                          ****END OF INPUT****
================================================================================

                       ****************************
                       * Single Point Calculation *
                       ****************************

---------------------------------
CARTESIAN COORDINATES (ANGSTROEM)
---------------------------------
  C     -2.103556   -0.664628    0.000000
  C     -1.014293    0.370285    0.000000
  O      0.215206   -0.238267    0.000000
  C      1.348061    0.558334    0.000000
  C      2.549537    0.004336    0.000000
  O     -1.165499    1.562036    0.000000
  H     -3.071779   -0.170815    0.000000
  H     -2.010015   -1.303975    0.879777
  H     -2.010015   -1.303975   -0.879777
  H      1.150970    1.621522    0.000000
  H      2.683978   -1.069399    0.000000
  H      3.427404    0.634547    0.000000

----------------------------
CARTESIAN COORDINATES (A.U.)
----------------------------
  NO LB      ZA    FRAG     MASS         X           Y           Z
   0 C     6.0000    0    12.011   -3.975144   -1.255965    0.000000
   1 C     6.0000    0    12.011   -1.916735    0.699737    0.000000
   2 O     8.0000    0    15.999    0.406681   -0.450260    0.000000
   3 C     6.0000    0    12.011    2.547466    1.055099    0.000000
   4 C     6.0000    0    12.011    4.817927    0.008193    0.000000
   5 O     8.0000    0    15.999   -2.202474    2.951821    0.000000
   6 H     1.0000    0     1.008   -5.804821   -0.322794    0.000000
   7 H     1.0000    0     1.008   -3.798378   -2.464156    1.662537
   8 H     1.0000    0     1.008   -3.798378   -2.464156   -1.662537
   9 H     1.0000    0     1.008    2.175018    3.064232    0.000000
  10 H     1.0000    0     1.008    5.071984   -2.020871    0.000000
  11 H     1.0000    0     1.008    6.476855    1.199121    0.000000

--------------------------------
INTERNAL COORDINATES (ANGSTROEM)
--------------------------------
 C      0   0   0     0.000000000000     0.00000000     0.00000000
 C      1   0   0     1.502511046025     0.00000000     0.00000000
 O      2   1   0     1.371861352734   110.13212920     0.00000000
 C      3   2   1     1.384894677574   118.55230481   180.00000000
 C      4   3   2     1.323049279947   120.13150938   180.00000085
 O      2   1   3     1.201305669672   126.30340895   180.00000000
 H      1   2   3     1.086879769685   109.44320742   180.00000000
 H      1   2   3     1.091568649782   109.95662373    59.03307975
 H      1   2   3     1.091568649782   109.95662373   300.96692025
 H      4   3   2     1.081301211411   114.61202044     0.00000000
 H      5   4   3     1.082118304479   121.89115256     0.00000000
 H      5   4   3     1.080655960996   119.57148838   180.00000000

---------------------------
INTERNAL COORDINATES (A.U.)
---------------------------
 C      0   0   0     0.000000000000     0.00000000     0.00000000
 C      1   0   0     2.839334390178     0.00000000     0.00000000
 O      2   1   0     2.592442250378   110.13212920     0.00000000
 C      3   2   1     2.617071664940   118.55230481   180.00000000
 C      4   3   2     2.500200800782   120.13150938   180.00000085
 O      2   1   3     2.270138718807   126.30340895   180.00000000
 H      1   2   3     2.053905105205   109.44320742   180.00000000
 H      1   2   3     2.062765804461   109.95662373    59.03307975
 H      1   2   3     2.062765804461   109.95662373   300.96692025
 H      4   3   2     2.043363157845   114.61202044     0.00000000
 H      5   4   3     2.044907239969   121.89115256     0.00000000
 H      5   4   3     2.042143811273   119.57148838   180.00000000

---------------------
BASIS SET INFORMATION
---------------------
There are 3 groups of distinct atoms

 Group   1 Type C   : 8s4p1d contracted to 4s2p1d pattern {5111/31/1}
 Group   2 Type O   : 8s4p1d contracted to 4s2p1d pattern {5111/31/1}
 Group   3 Type H   : 4s contracted to 2s pattern {31}

Atom   0C    basis set group =>   1
Atom   1C    basis set group =>   1
Atom   2O    basis set group =>   2
Atom   3C    basis set group =>   1
Atom   4C    basis set group =>   1
Atom   5O    basis set group =>   2
Atom   6H    basis set group =>   3
Atom   7H    basis set group =>   3
Atom   8H    basis set group =>   3
Atom   9H    basis set group =>   3
Atom  10H    basis set group =>   3
Atom  11H    basis set group =>   3
---------------------------------
AUXILIARY/J BASIS SET INFORMATION
---------------------------------
There are 3 groups of distinct atoms

 Group   1 Type C   : 12s5p4d2f1g contracted to 6s4p3d1f1g pattern {711111/2111/211/2/1}
 Group   2 Type O   : 12s5p4d2f1g contracted to 6s4p3d1f1g pattern {711111/2111/211/2/1}
 Group   3 Type H   : 5s2p1d contracted to 3s1p1d pattern {311/2/1}

Atom   0C    basis set group =>   1
Atom   1C    basis set group =>   1
Atom   2O    basis set group =>   2
Atom   3C    basis set group =>   1
Atom   4C    basis set group =>   1
Atom   5O    basis set group =>   2
Atom   6H    basis set group =>   3
Atom   7H    basis set group =>   3
Atom   8H    basis set group =>   3
Atom   9H    basis set group =>   3
Atom  10H    basis set group =>   3
Atom  11H    basis set group =>   3


           ************************************************************
           *        Program running with 4 parallel MPI-processes     *
           *              working on a common directory               *
           ************************************************************
------------------------------------------------------------------------------
                           ORCA GTO INTEGRAL CALCULATION
                           -- RI-GTO INTEGRALS CHOSEN --
------------------------------------------------------------------------------
------------------------------------------------------------------------------
                   ___                                                        
                  /   \      - P O W E R E D   B Y -                         
                 /     \                                                     
                 |  |  |   _    _      __       _____    __    __             
                 |  |  |  | |  | |    /  \     |  _  \  |  |  /  |          
                  \  \/   | |  | |   /    \    | | | |  |  | /  /          
                 / \  \   | |__| |  /  /\  \   | |_| |  |  |/  /          
                |  |  |   |  __  | /  /__\  \  |    /   |      \           
                |  |  |   | |  | | |   __   |  |    \   |  |\   \          
                \     /   | |  | | |  |  |  |  | |\  \  |  | \   \       
                 \___/    |_|  |_| |__|  |__|  |_| \__\ |__|  \__/        
                                                                              
                      - O R C A' S   B I G   F R I E N D -                    
                                      &                                       
                       - I N T E G R A L  F E E D E R -                       
                                                                              
 v1 FN, 2020, v2 2021                                                         
------------------------------------------------------------------------------


Reading SHARK input file pbeh-3c.SHARKINP.tmp ... ok
----------------------
SHARK INTEGRAL PACKAGE
----------------------

Number of atoms                             ...     12
Number of basis functions                   ...    102
Number of shells                            ...     54
Maximum angular momentum                    ...      2
Integral batch strategy                     ... SHARK/LIBINT Hybrid
RI-J (if used) integral strategy            ... SPLIT-RIJ (Revised 2003 algorithm where possible)
Printlevel                                  ...      1
Contraction scheme used                     ... SEGMENTED contraction
Coulomb Range Separation                    ... NOT USED
Exchange Range Separation                   ... NOT USED
Finite Nucleus Model                        ... NOT USED
Auxiliary Coulomb fitting basis             ... AVAILABLE
   # of basis functions in Aux-J            ...    360
   # of shells in Aux-J                     ...    120
   Maximum angular momentum in Aux-J        ...      4
Auxiliary J/K fitting basis                 ... NOT available
Auxiliary Correlation fitting basis         ... NOT available
Auxiliary 'external' fitting basis          ... NOT available
Integral threshold                          ...     2.500000e-11
Primitive cut-off                           ...     2.500000e-12
Primitive pair pre-selection threshold      ...     2.500000e-12

Calculating pre-screening integrals         ... done (  0.1 sec) Dimension = 54
Organizing shell pair data                  ... done (  0.4 sec)
Shell pair information
Total number of shell pairs                 ...      1485
Shell pairs after pre-screening             ...      1365
Total number of primitive shell pairs       ...      5349
Primitive shell pairs kept                  ...      3595
          la=0 lb=0:    574 shell pairs
          la=1 lb=0:    420 shell pairs
          la=1 lb=1:     78 shell pairs
          la=2 lb=0:    200 shell pairs
          la=2 lb=1:     72 shell pairs
          la=2 lb=2:     21 shell pairs

Calculating one electron integrals          ... done (  0.0 sec)
Calculating RI/J V-Matrix + Cholesky decomp.... done (  0.7 sec)
Calculating Nuclear repulsion               ... done (  0.1 sec) ENN=    225.891777736077 Eh

SHARK setup successfully completed in   2.1 seconds

Maximum memory used throughout the entire GTOINT-calculation: 10.1 MB


           ************************************************************
           *        Program running with 4 parallel MPI-processes     *
           *              working on a common directory               *
           ************************************************************
-------------------------------------------------------------------------------
                                 ORCA SCF
-------------------------------------------------------------------------------

------------
SCF SETTINGS
------------
Hamiltonian:
 Density Functional     Method          .... DFT(GTOs)
 Exchange Functional    Exchange        .... PBE
   PBE kappa parameter   XKappa         ....  1.024500
   PBE mue parameter    XMuePBE         ....  0.123457
 Correlation Functional Correlation     .... PBE
   PBE beta parameter  CBetaPBE         ....  0.030000
 LDA part of GGA corr.  LDAOpt          .... PW91-LDA
 Gradients option       PostSCFGGA      .... off
 Hybrid DFT is turned on
   Fraction HF Exchange ScalHFX         ....  0.420000
   Scaling of DF-GGA-X  ScalDFX         ....  0.580000
   Scaling of DF-GGA-C  ScalDFC         ....  1.000000
   Scaling of DF-LDA-C  ScalLDAC        ....  1.000000
   Perturbative correction              ....  0.000000
   Density functional embedding theory  .... OFF
 RI-approximation to the Coulomb term is turned on
   Number of AuxJ basis functions       .... 360
   RIJ-ON(X) (HFX calculated with O(N)) .... on
   Number of AuxJ basis functions       .... 360
   RIJ-COSX (HFX calculated with COS-X)).... on


General Settings:
 Integral files         IntName         .... pbeh-3c
 Hartree-Fock type      HFTyp           .... RHF
 Total Charge           Charge          ....    0
 Multiplicity           Mult            ....    1
 Number of Electrons    NEL             ....   46
 Basis Dimension        Dim             ....  102
 Nuclear Repulsion      ENuc            ....    225.8917777361 Eh

Convergence Acceleration:
 DIIS                   CNVDIIS         .... on
   Start iteration      DIISMaxIt       ....    12
   Startup error        DIISStart       ....  0.200000
   # of expansion vecs  DIISMaxEq       ....     5
   Bias factor          DIISBfac        ....   1.050
   Max. coefficient     DIISMaxC        ....  10.000
 Trust-Rad. Augm. Hess. CNVTRAH         .... auto
   Auto Start mean grad. ratio tolernc. ....  1.125000
   Auto Start start iteration           ....    20
   Auto Start num. interpolation iter.  ....    10
   Max. Number of Micro iterations      ....    16
   Max. Number of Macro iterations      .... Maxiter - #DIIS iter
   Number of Davidson start vectors     ....     2
   Converg. threshold I  (grad. norm)   ....   1.000e-05
   Converg. threshold II (energy diff.) ....   1.000e-08
   Grad. Scal. Fac. for Micro threshold ....   0.100
   Minimum threshold for Micro iter.    ....   0.010
   NR start threshold (gradient norm)   ....   0.001
   Initial trust radius                 ....   0.400
   Minimum AH scaling param. (alpha)    ....   1.000
   Maximum AH scaling param. (alpha)    .... 1000.000
   Orbital update algorithm             .... Taylor
   White noise on init. David. guess    .... on
   Maximum white noise                  ....   0.010
   Quad. conv. algorithm                .... NR
   COSX micro iterations for RIJONX calc.... off
 SOSCF                  CNVSOSCF        .... on
   Start iteration      SOSCFMaxIt      ....   150
   Startup grad/error   SOSCFStart      ....  0.003300
 Level Shifting         CNVShift        .... on
   Level shift para.    LevelShift      ....    0.2500
   Turn off err/grad.   ShiftErr        ....    0.0010
 Zerner damping         CNVZerner       .... off
 Static damping         CNVDamp         .... on
   Fraction old density DampFac         ....    0.7000
   Max. Damping (<1)    DampMax         ....    0.9800
   Min. Damping (>=0)   DampMin         ....    0.0000
   Turn off err/grad.   DampErr         ....    0.1000
 Fernandez-Rico         CNVRico         .... off

SCF Procedure:
 Maximum # iterations   MaxIter         ....   125
 SCF integral mode      SCFMode         .... Direct
   Integral package                     .... SHARK and LIBINT hybrid scheme
 Reset frequency        DirectResetFreq ....    20
 Integral Threshold     Thresh          ....  2.500e-11 Eh
 Primitive CutOff       TCut            ....  2.500e-12 Eh

Convergence Tolerance:
 Convergence Check Mode ConvCheckMode   .... Total+1el-Energy
 Convergence forced     ConvForced      .... 0
 Energy Change          TolE            ....  1.000e-08 Eh
 1-El. energy change                    ....  1.000e-05 Eh
 Orbital Gradient       TolG            ....  1.000e-05
 Orbital Rotation angle TolX            ....  1.000e-05
 DIIS Error             TolErr          ....  5.000e-07


Diagonalization of the overlap matrix:
Smallest eigenvalue                        ... 3.829e-03
Time for diagonalization                   ...    0.002 sec
Threshold for overlap eigenvalues          ... 1.000e-08
Number of eigenvalues below threshold      ... 0
Time for construction of square roots      ...    0.235 sec
Total time needed                          ...    0.345 sec

--------------------------------
INITIAL GUESS: MINIMAL BASIS EHT
--------------------------------
The minimal basis has 36 functions
EHT matrix was diagonalized
Basis set overlap was calculated now projecting the orbitals
Using GuessMode=FMatrix for the initial guess
C*T matrix was formed
Effective Fockian was calculated
Effective Fockian was diagonalized
Initial density was built
                      ------------------
                      INITIAL GUESS DONE
                      ------------------
-------------------
DFT GRID GENERATION
-------------------

General Integration Accuracy     IntAcc      ... 4.959
Radial Grid Type                 RadialGrid  ... OptM3 with GC (2021)
Angular Grid (max. ang.)         AngularGrid ... 6 (Lebedev-590)
Angular grid pruning method      GridPruning ... 4 (adaptive)
Weight generation scheme         WeightScheme... Becke
Basis function cutoff            BFCut       ... 1.0000e-11
Integration weight cutoff        WCut        ... 1.0000e-14
Angular grids for H and He will be reduced by one unit
Partially contracted basis set               ... off
Rotationally invariant grid construction     ... off

Total number of grid points                  ...   139571
Total number of batches                      ...     2187
Average number of points per batch           ...       63
Average number of grid points per atom       ...    11631
Time for grid setup =    2.566 sec

--------------------
COSX GRID GENERATION
--------------------

GRIDX 1
-------
General Integration Accuracy     IntAcc      ... 4.020
Radial Grid Type                 RadialGrid  ... OptM3 with GC (2021)
Angular Grid (max. ang.)         AngularGrid ... 2 (Lebedev-110)
Angular grid pruning method      GridPruning ... 4 (adaptive)
Weight generation scheme         WeightScheme... Becke
Basis function cutoff            BFCut       ... 1.0000e-11
Integration weight cutoff        WCut        ... 1.0000e-14
Angular grids for H and He will be reduced by one unit
Partially contracted basis set               ... on
Rotationally invariant grid construction     ... off

Total number of grid points                  ...    15675
Total number of batches                      ...      252
Average number of points per batch           ...       62
Average number of grid points per atom       ...     1306
UseSFitting                                  ... on

GRIDX 2
-------
General Integration Accuracy     IntAcc      ... 4.338
Radial Grid Type                 RadialGrid  ... OptM3 with GC (2021)
Angular Grid (max. ang.)         AngularGrid ... 3 (Lebedev-194)
Angular grid pruning method      GridPruning ... 4 (adaptive)
Weight generation scheme         WeightScheme... Becke
Basis function cutoff            BFCut       ... 1.0000e-11
Integration weight cutoff        WCut        ... 1.0000e-14
Angular grids for H and He will be reduced by one unit
Partially contracted basis set               ... on
Rotationally invariant grid construction     ... off

Total number of grid points                  ...    34533
Total number of batches                      ...      544
Average number of points per batch           ...       63
Average number of grid points per atom       ...     2878
UseSFitting                                  ... on

GRIDX 3
-------
General Integration Accuracy     IntAcc      ... 4.871
Radial Grid Type                 RadialGrid  ... OptM3 with GC (2021)
Angular Grid (max. ang.)         AngularGrid ... 4 (Lebedev-302)
Angular grid pruning method      GridPruning ... 4 (adaptive)
Weight generation scheme         WeightScheme... Becke
Basis function cutoff            BFCut       ... 1.0000e-11
Integration weight cutoff        WCut        ... 1.0000e-14
Angular grids for H and He will be reduced by one unit
Partially contracted basis set               ... on
Rotationally invariant grid construction     ... off

Total number of grid points                  ...    66173
Total number of batches                      ...     1040
Average number of points per batch           ...       63
Average number of grid points per atom       ...     5514
UseSFitting                                  ... on

Time for X-Grid setup             =    2.912 sec

--------------
SCF ITERATIONS
--------------
ITER       Energy         Delta-E        Max-DP      RMS-DP      [F,P]     Damp
               ***  Starting incremental Fock matrix formation  ***
  0   -304.8086652890   0.000000000000 0.18680707  0.00706743  0.5281564 0.7000
  1   -305.1865378207  -0.377872531726 0.10597294  0.00411347  0.2924717 0.7000
  2   -305.3767195460  -0.190181725296 0.04486844  0.00235848  0.2066299 0.7000
                               ***Turning on DIIS***
  3   -305.5082823486  -0.131562802635 0.03066504  0.00159767  0.1453641 0.7000
  4   -305.6030993992  -0.094817050625 0.02302631  0.00121280  0.1020507 0.7000
  5   -305.6702362545  -0.067136855264 0.05943230  0.00302082  0.0716244 0.0000
  6   -305.8296428415  -0.159406586959 0.00437124  0.00015947  0.0040431 0.0000
                      *** Initiating the SOSCF procedure ***
                           *** Shutting down DIIS ***
                      *** Re-Reading the Fockian *** 
                      *** Removing any level shift *** 
ITER      Energy       Delta-E        Grad      Rot      Max-DP    RMS-DP
  7   -305.82973168  -0.0000888372  0.000659  0.000659  0.001692  0.000070
               *** Restarting incremental Fock matrix formation ***
  8   -305.82975237  -0.0000206886  0.000683  0.001594  0.001882  0.000054
  9   -305.82975405  -0.0000016789  0.000509  0.000429  0.000895  0.000033
 10   -305.82975786  -0.0000038096  0.000055  0.000125  0.000220  0.000008
 11   -305.82975787  -0.0000000125  0.000059  0.000069  0.000129  0.000003
 12   -305.82975794  -0.0000000677  0.000004  0.000013  0.000018  0.000001
                  ***Gradient check signals convergence***
              ***Rediagonalizing the Fockian in SOSCF/NRSCF***

               *****************************************************
               *                     SUCCESS                       *
               *           SCF CONVERGED AFTER  13 CYCLES          *
               *****************************************************

Old exchange energy                            =    -16.492998232 Eh
New exchange energy                            =    -16.492997928 Eh
Exchange energy change after final integration =      0.000000304 Eh
Total energy after final integration           =   -305.829757633 Eh
Final COS-X integration done in                =     2.196 sec

----------------
TOTAL SCF ENERGY
----------------

Total Energy       :         -305.82975763 Eh           -8322.05079 eV

Components:
Nuclear Repulsion  :          225.89177774 Eh            6146.82777 eV
Electronic Energy  :         -531.72153537 Eh          -14468.87856 eV
One Electron Energy:         -863.40230396 Eh          -23494.37112 eV
Two Electron Energy:          331.68076859 Eh            9025.49256 eV
Max COSX asymmetry :            0.00000239 Eh               0.00007 eV

Virial components:
Potential Energy   :         -609.41049524 Eh          -16582.90263 eV
Kinetic Energy     :          303.58073761 Eh            8260.85184 eV
Virial Ratio       :            2.00740831


DFT components:
N(Alpha)           :       22.999999172336 electrons
N(Beta)            :       22.999999172336 electrons
N(Total)           :       45.999998344673 electrons
E(X)               :      -21.945469084662 Eh       
E(C)               :       -2.013830754926 Eh       
E(XC)              :      -23.959299839588 Eh       
DFET-embed. en.    :        0.000000000000 Eh       

---------------
SCF CONVERGENCE
---------------

  Last Energy change         ...   -9.7663e-10  Tolerance :   1.0000e-08
  Last MAX-Density change    ...    9.9920e-16  Tolerance :   1.0000e-07
  Last RMS-Density change    ...    4.8070e-17  Tolerance :   5.0000e-09
  Last Orbital Gradient      ...    2.2735e-06  Tolerance :   1.0000e-05
  Last Orbital Rotation      ...    4.4702e-06  Tolerance :   1.0000e-05

             **** THE GBW FILE WAS UPDATED (pbeh-3c.gbw) ****
             **** DENSITY pbeh-3c.scfp WAS UPDATED ****
             **** ENERGY FILE WAS UPDATED (pbeh-3c.en.tmp) ****
             **** THE GBW FILE WAS UPDATED (pbeh-3c.gbw) ****
             **** DENSITY pbeh-3c.scfp WAS UPDATED ****
----------------
ORBITAL ENERGIES
----------------

  NO   OCC          E(Eh)            E(eV) 
   0   2.0000     -19.557913      -532.1979 
   1   2.0000     -19.496893      -530.5374 
   2   2.0000     -10.592892      -288.2472 
   3   2.0000     -10.508710      -285.9566 
   4   2.0000     -10.455640      -284.5124 
   5   2.0000     -10.440067      -284.0887 
   6   2.0000      -1.231985       -33.5240 
   7   2.0000      -1.143624       -31.1196 
   8   2.0000      -0.885833       -24.1047 
   9   2.0000      -0.834644       -22.7118 
  10   2.0000      -0.707958       -19.2645 
  11   2.0000      -0.638221       -17.3669 
  12   2.0000      -0.574647       -15.6369 
  13   2.0000      -0.549590       -14.9551 
  14   2.0000      -0.547801       -14.9064 
  15   2.0000      -0.501020       -13.6334 
  16   2.0000      -0.479513       -13.0482 
  17   2.0000      -0.470615       -12.8061 
  18   2.0000      -0.468620       -12.7518 
  19   2.0000      -0.421025       -11.4567 
  20   2.0000      -0.410401       -11.1676 
  21   2.0000      -0.346583        -9.4310 
  22   2.0000      -0.298979        -8.1356 
  23   0.0000       0.018093         0.4923 
  24   0.0000       0.067148         1.8272 
  25   0.0000       0.153589         4.1794 
  26   0.0000       0.169785         4.6201 
  27   0.0000       0.179605         4.8873 
  28   0.0000       0.196240         5.3400 
  29   0.0000       0.214796         5.8449 
  30   0.0000       0.221974         6.0402 
  31   0.0000       0.239129         6.5070 
  32   0.0000       0.295664         8.0454 
  33   0.0000       0.323472         8.8021 
  34   0.0000       0.358043         9.7428 
  35   0.0000       0.374755        10.1976 
  36   0.0000       0.486775        13.2458 
  37   0.0000       0.516417        14.0524 
  38   0.0000       0.520963        14.1761 
  39   0.0000       0.537781        14.6338 
  40   0.0000       0.561828        15.2881 
  41   0.0000       0.574881        15.6433 
  42   0.0000       0.593023        16.1370 
  43   0.0000       0.605216        16.4688 
  44   0.0000       0.671883        18.2829 
  45   0.0000       0.707022        19.2390 
  46   0.0000       0.724256        19.7080 
  47   0.0000       0.792817        21.5736 
  48   0.0000       0.859938        23.4001 
  49   0.0000       0.891991        24.2723 
  50   0.0000       0.963368        26.2146 
  51   0.0000       0.965791        26.2805 
  52   0.0000       1.000839        27.2342 
  53   0.0000       1.023433        27.8490 
  54   0.0000       1.044133        28.4123 
  55   0.0000       1.050980        28.5986 
  56   0.0000       1.060076        28.8461 
  57   0.0000       1.114096        30.3161 
  58   0.0000       1.134918        30.8827 
  59   0.0000       1.161223        31.5985 
  60   0.0000       1.204268        32.7698 
  61   0.0000       1.258638        34.2493 
  62   0.0000       1.378827        37.5198 
  63   0.0000       1.379603        37.5409 
  64   0.0000       1.411358        38.4050 
  65   0.0000       1.481686        40.3187 
  66   0.0000       1.506144        40.9843 
  67   0.0000       1.603691        43.6386 
  68   0.0000       1.733572        47.1729 
  69   0.0000       1.769897        48.1613 
  70   0.0000       1.773059        48.2474 
  71   0.0000       1.828261        49.7495 
  72   0.0000       1.850835        50.3638 
  73   0.0000       1.899319        51.6831 
  74   0.0000       1.945106        52.9290 
  75   0.0000       1.999166        54.4001 
  76   0.0000       2.040357        55.5209 
  77   0.0000       2.054487        55.9054 
  78   0.0000       2.120729        57.7080 
  79   0.0000       2.123997        57.7969 
  80   0.0000       2.204302        59.9821 
  81   0.0000       2.241560        60.9960 
  82   0.0000       2.291613        62.3580 
  83   0.0000       2.311597        62.9017 
  84   0.0000       2.328519        63.3622 
  85   0.0000       2.426242        66.0214 
  86   0.0000       2.472668        67.2847 
  87   0.0000       2.552181        69.4484 
  88   0.0000       2.582217        70.2657 
  89   0.0000       2.706806        73.6559 
  90   0.0000       2.749198        74.8095 
  91   0.0000       2.819704        76.7281 
  92   0.0000       2.916018        79.3489 
  93   0.0000       2.974398        80.9375 
  94   0.0000       3.121150        84.9308 
  95   0.0000       3.283501        89.3486 
  96   0.0000      13.439181       365.6987 
  97   0.0000      13.659179       371.6852 
  98   0.0000      14.048343       382.2748 
  99   0.0000      14.124175       384.3383 
 100   0.0000      25.636771       697.6120 
 101   0.0000      25.712298       699.6672 

                    ********************************
                    * MULLIKEN POPULATION ANALYSIS *
                    ********************************

-----------------------
MULLIKEN ATOMIC CHARGES
-----------------------
   0 C :   -0.751657
   1 C :    0.557196
   2 O :   -0.459188
   3 C :    0.107321
   4 C :   -0.572492
   5 O :   -0.378059
   6 H :    0.259146
   7 H :    0.256314
   8 H :    0.256314
   9 H :    0.259913
  10 H :    0.234418
  11 H :    0.230773
Sum of atomic charges:    0.0000000

--------------------------------
MULLIKEN REDUCED ORBITAL CHARGES
--------------------------------
  0 C s       :     3.423279  s :     3.423279
      pz      :     1.164766  p :     3.294716
      px      :     1.053893
      py      :     1.076057
      dz2     :     0.007227  d :     0.033662
      dxz     :     0.001376
      dyz     :     0.010147
      dx2y2   :     0.004498
      dxy     :     0.010414
  1 C s       :     2.978712  s :     2.978712
      pz      :     0.740327  p :     2.329908
      px      :     0.742990
      py      :     0.846591
      dz2     :     0.006834  d :     0.134183
      dxz     :     0.011301
      dyz     :     0.023954
      dx2y2   :     0.036932
      dxy     :     0.055162
  2 O s       :     3.787615  s :     3.787615
      pz      :     1.748889  p :     4.639259
      px      :     1.235178
      py      :     1.655192
      dz2     :     0.004286  d :     0.032314
      dxz     :     0.005329
      dyz     :     0.004046
      dx2y2   :     0.005818
      dxy     :     0.012835
  3 C s       :     3.141143  s :     3.141143
      pz      :     0.984539  p :     2.685584
      px      :     0.760623
      py      :     0.940422
      dz2     :     0.005007  d :     0.065952
      dxz     :     0.014523
      dyz     :     0.003008
      dx2y2   :     0.020755
      dxy     :     0.022658
  4 C s       :     3.343723  s :     3.343723
      pz      :     1.064747  p :     3.197728
      px      :     1.036857
      py      :     1.096124
      dz2     :     0.004255  d :     0.031042
      dxz     :     0.004972
      dyz     :     0.001178
      dx2y2   :     0.010445
      dxy     :     0.010193
  5 O s       :     3.760403  s :     3.760403
      pz      :     1.408474  p :     4.586101
      px      :     1.790077
      py      :     1.387550
      dz2     :     0.002675  d :     0.031554
      dxz     :     0.000290
      dyz     :     0.012155
      dx2y2   :     0.008564
      dxy     :     0.007870
  6 H s       :     0.740854  s :     0.740854
  7 H s       :     0.743686  s :     0.743686
  8 H s       :     0.743686  s :     0.743686
  9 H s       :     0.740087  s :     0.740087
 10 H s       :     0.765582  s :     0.765582
 11 H s       :     0.769227  s :     0.769227


                     *******************************
                     * LOEWDIN POPULATION ANALYSIS *
                     *******************************

----------------------
LOEWDIN ATOMIC CHARGES
----------------------
   0 C :   -0.385439
   1 C :    0.155705
   2 O :   -0.149296
   3 C :   -0.012164
   4 C :   -0.306766
   5 O :   -0.204851
   6 H :    0.153833
   7 H :    0.158650
   8 H :    0.158650
   9 H :    0.142779
  10 H :    0.143681
  11 H :    0.145218

-------------------------------
LOEWDIN REDUCED ORBITAL CHARGES
-------------------------------
  0 C s       :     2.962642  s :     2.962642
      pz      :     1.146386  p :     3.359765
      px      :     1.104361
      py      :     1.109017
      dz2     :     0.012887  d :     0.063032
      dxz     :     0.002176
      dyz     :     0.017725
      dx2y2   :     0.008971
      dxy     :     0.021272
  1 C s       :     2.833595  s :     2.833595
      pz      :     0.752095  p :     2.709155
      px      :     0.907383
      py      :     1.049677
      dz2     :     0.017051  d :     0.301545
      dxz     :     0.022985
      dyz     :     0.046626
      dx2y2   :     0.079818
      dxy     :     0.135065
  2 O s       :     3.429341  s :     3.429341
      pz      :     1.714248  p :     4.648112
      px      :     1.273445
      py      :     1.660419
      dz2     :     0.008234  d :     0.071844
      dxz     :     0.012203
      dyz     :     0.004994
      dx2y2   :     0.018016
      dxy     :     0.028398
  3 C s       :     2.902299  s :     2.902299
      pz      :     0.973175  p :     2.962919
      px      :     0.954785
      py      :     1.034959
      dz2     :     0.010243  d :     0.146946
      dxz     :     0.030184
      dyz     :     0.005341
      dx2y2   :     0.048681
      dxy     :     0.052497
  4 C s       :     2.962728  s :     2.962728
      pz      :     1.062590  p :     3.280760
      px      :     1.108325
      py      :     1.109846
      dz2     :     0.006023  d :     0.063278
      dxz     :     0.008359
      dyz     :     0.001871
      dx2y2   :     0.023139
      dxy     :     0.023886
  5 O s       :     3.515329  s :     3.515329
      pz      :     1.392920  p :     4.631566
      px      :     1.755972
      py      :     1.482674
      dz2     :     0.006654  d :     0.057956
      dxz     :     0.000381
      dyz     :     0.015535
      dx2y2   :     0.020669
      dxy     :     0.014718
  6 H s       :     0.846167  s :     0.846167
  7 H s       :     0.841350  s :     0.841350
  8 H s       :     0.841350  s :     0.841350
  9 H s       :     0.857221  s :     0.857221
 10 H s       :     0.856319  s :     0.856319
 11 H s       :     0.854782  s :     0.854782


                      *****************************
                      * MAYER POPULATION ANALYSIS *
                      *****************************

  NA   - Mulliken gross atomic population
  ZA   - Total nuclear charge
  QA   - Mulliken gross atomic charge
  VA   - Mayer's total valence
  BVA  - Mayer's bonded valence
  FA   - Mayer's free valence

  ATOM       NA         ZA         QA         VA         BVA        FA
  0 C      6.7517     6.0000    -0.7517     3.6712     3.6712     0.0000
  1 C      5.4428     6.0000     0.5572     4.0356     4.0356    -0.0000
  2 O      8.4592     8.0000    -0.4592     2.1294     2.1294     0.0000
  3 C      5.8927     6.0000     0.1073     3.7345     3.7345     0.0000
  4 C      6.5725     6.0000    -0.5725     3.7966     3.7966     0.0000
  5 O      8.3781     8.0000    -0.3781     2.2233     2.2233    -0.0000
  6 H      0.7409     1.0000     0.2591     0.9008     0.9008     0.0000
  7 H      0.7437     1.0000     0.2563     0.8999     0.8999     0.0000
  8 H      0.7437     1.0000     0.2563     0.8999     0.8999     0.0000
  9 H      0.7401     1.0000     0.2599     0.8957     0.8957     0.0000
 10 H      0.7656     1.0000     0.2344     0.9178     0.9178     0.0000
 11 H      0.7692     1.0000     0.2308     0.9222     0.9222     0.0000

  Mayer bond orders larger than 0.100000
B(  0-C ,  1-C ) :   0.9447 B(  0-C ,  6-H ) :   0.9144 B(  0-C ,  7-H ) :   0.9040 
B(  0-C ,  8-H ) :   0.9040 B(  1-C ,  2-O ) :   1.0290 B(  1-C ,  5-O ) :   2.0586 
B(  2-O ,  3-C ) :   0.9570 B(  3-C ,  4-C ) :   1.8903 B(  3-C ,  9-H ) :   0.8779 
B(  4-C , 10-H ) :   0.9202 B(  4-C , 11-H ) :   0.9272 

-------
TIMINGS
-------

Total SCF time: 0 days 0 hours 0 min 56 sec 

Total time                  ....      56.814 sec
Sum of individual times     ....      51.006 sec  ( 89.8%)

Fock matrix formation       ....      41.438 sec  ( 72.9%)
  Split-RI-J                ....       3.436 sec  (  8.3% of F)
  Chain of spheres X        ....      15.628 sec  ( 37.7% of F)
  XC integration            ....      11.545 sec  ( 27.9% of F)
    Basis function eval.    ....       2.057 sec  ( 17.8% of XC)
    Density eval.           ....       1.214 sec  ( 10.5% of XC)
    XC-Functional eval.     ....       1.226 sec  ( 10.6% of XC)
    XC-Potential eval.      ....       0.709 sec  (  6.1% of XC)
Diagonalization             ....       0.888 sec  (  1.6%)
Density matrix formation    ....       0.232 sec  (  0.4%)
Population analysis         ....       0.636 sec  (  1.1%)
Initial guess               ....       0.012 sec  (  0.0%)
Orbital Transformation      ....       0.000 sec  (  0.0%)
Orbital Orthonormalization  ....       0.000 sec  (  0.0%)
DIIS solution               ....       1.826 sec  (  3.2%)
SOSCF solution              ....       0.497 sec  (  0.9%)
Grid generation             ....       5.478 sec  (  9.6%)

Maximum memory used throughout the entire SCF-calculation: 50.6 MB


-------------------------------------------------------------------------------
                          DFT DISPERSION CORRECTION                            
                                                                               
                              DFTD3 V3.1  Rev 1                                
                          USING Becke-Johnson damping                          
-------------------------------------------------------------------------------
The PBEh-3c composite method is recognized
Using three-body term ABC
Active option DFTDOPT                   ...         4   

molecular C6(AA) [au] = 1339.964990 


            DFT-D V3
 parameters
 s6 scaling factor         :     1.0000 
 a1 scaling factor         :     0.4860 
 s8 scaling factor         :     0.0000 
 a2 scaling factor         :     4.5000 
 Damping factor alpha9(ATM):    16.0000 
 ad hoc parameters k1-k3   :    16.0000     1.3333    -4.0000 

 Edisp/kcal,au: -2.784627781050  -0.004437586362 
 E6   /kcal   :  -2.783726678 
 E8   /kcal   :  -0.000000000 
 E6(ABC)      :  -0.000901103 
 % E8         :   0.000000000 
 % E6(ABC)    :   0.032359908 

-------------------------   ----------------
Dispersion correction           -0.004437586
-------------------------   ----------------

------------------   -----------------
gCP correction             0.023455488
------------------   -----------------

-------------------------   --------------------
FINAL SINGLE POINT ENERGY      -305.810739731589
-------------------------   --------------------


                            ***************************************
                            *     ORCA property calculations      *
                            ***************************************

                                    ---------------------
                                    Active property flags
                                    ---------------------
   (+) Dipole Moment


------------------------------------------------------------------------------
                       ORCA ELECTRIC PROPERTIES CALCULATION
------------------------------------------------------------------------------

Dipole Moment Calculation                       ... on
Quadrupole Moment Calculation                   ... off
Polarizability Calculation                      ... off
GBWName                                         ... pbeh-3c.gbw
Electron density                                ... pbeh-3c.scfp
The origin for moment calculation is the CENTER OF MASS  = (-0.124378,  0.500408  0.000000)

-------------
DIPOLE MOMENT
-------------
                                X             Y             Z
Electronic contribution:     -0.50216       2.29551       0.00000
Nuclear contribution   :      0.51838      -2.97252       0.00000
                        -----------------------------------------
Total Dipole Moment    :      0.01623      -0.67702       0.00000
                        -----------------------------------------
Magnitude (a.u.)       :      0.67721
Magnitude (Debye)      :      1.72133



--------------------
Rotational spectrum 
--------------------
 
Rotational constants in cm-1:     0.313152     0.074210     0.060667 
Rotational constants in MHz :  9388.068431  2224.767777  1818.750123 

 Dipole components along the rotational axes: 
x,y,z [a.u.] :    -0.016225    -0.677015     0.000000 
x,y,z [Debye]:    -0.041241    -1.720837     0.000000 

 

Timings for individual modules:

Sum of individual times         ...       60.631 sec (=   1.011 min)
GTO integral calculation        ...        3.259 sec (=   0.054 min)   5.4 %
SCF iterations                  ...       57.373 sec (=   0.956 min)  94.6 %
                             ****ORCA TERMINATED NORMALLY****
TOTAL RUN TIME: 0 days 0 hours 1 minutes 6 seconds 939 msec
