
                                 *****************
                                 * O   R   C   A *
                                 *****************

                                            #,                                       
                                            ###                                      
                                            ####                                     
                                            #####                                    
                                            ######                                   
                                           ########,                                 
                                     ,,################,,,,,                         
                               ,,#################################,,                 
                          ,,##########################################,,             
                       ,#########################################, ''#####,          
                    ,#############################################,,   '####,        
                  ,##################################################,,,,####,       
                ,###########''''           ''''###############################       
              ,#####''   ,,,,##########,,,,          '''####'''          '####       
            ,##' ,,,,###########################,,,                        '##       
           ' ,,###''''                  '''############,,,                           
         ,,##''                                '''############,,,,        ,,,,,,###''
      ,#''                                            '''#######################'''  
     '                                                          ''''####''''         
             ,#######,   #######,   ,#######,      ##                                
            ,#'     '#,  ##    ##  ,#'     '#,    #''#        ######   ,####,        
            ##       ##  ##   ,#'  ##            #'  '#       #        #'  '#        
            ##       ##  #######   ##           ,######,      #####,   #    #        
            '#,     ,#'  ##    ##  '#,     ,#' ,#      #,         ##   #,  ,#        
             '#######'   ##     ##  '#######'  #'      '#     #####' # '####'        



                  #######################################################
                  #                        -***-                        #
                  #          Department of theory and spectroscopy      #
                  #    Directorship and core code : Frank Neese         #
                  #        Max Planck Institute fuer Kohlenforschung    #
                  #                Kaiser Wilhelm Platz 1               #
                  #                 D-45470 Muelheim/Ruhr               #
                  #                      Germany                        #
                  #                                                     #
                  #                  All rights reserved                #
                  #                        -***-                        #
                  #######################################################


                         Program Version 5.0.3 -  RELEASE  -


 With contributions from (in alphabetic order):
   Daniel Aravena         : Magnetic Suceptibility
   Michael Atanasov       : Ab Initio Ligand Field Theory (pilot matlab implementation)
   Alexander A. Auer      : GIAO ZORA, VPT2 properties, NMR spectrum
   Ute Becker             : Parallelization
   Giovanni Bistoni       : ED, misc. LED, open-shell LED, HFLD
   Martin Brehm           : Molecular dynamics
   Dmytro Bykov           : SCF Hessian
   Vijay G. Chilkuri      : MRCI spin determinant printing, contributions to CSF-ICE
   Dipayan Datta          : RHF DLPNO-CCSD density
   Achintya Kumar Dutta   : EOM-CC, STEOM-CC
   Dmitry Ganyushin       : Spin-Orbit,Spin-Spin,Magnetic field MRCI
   Miquel Garcia          : C-PCM and meta-GGA Hessian, CC/C-PCM, Gaussian charge scheme
   Yang Guo               : DLPNO-NEVPT2, F12-NEVPT2, CIM, IAO-localization
   Andreas Hansen         : Spin unrestricted coupled pair/coupled cluster methods
   Benjamin Helmich-Paris : MC-RPA, TRAH-SCF, COSX integrals
   Lee Huntington         : MR-EOM, pCC
   Robert Izsak           : Overlap fitted RIJCOSX, COSX-SCS-MP3, EOM
   Marcus Kettner         : VPT2
   Christian Kollmar      : KDIIS, OOCD, Brueckner-CCSD(T), CCSD density, CASPT2, CASPT2-K
   Simone Kossmann        : Meta GGA functionals, TD-DFT gradient, OOMP2, MP2 Hessian
   Martin Krupicka        : Initial AUTO-CI
   Lucas Lang             : DCDCAS
   Marvin Lechner         : AUTO-CI (C++ implementation), FIC-MRCC
   Dagmar Lenk            : GEPOL surface, SMD
   Dimitrios Liakos       : Extrapolation schemes; Compound Job, initial MDCI parallelization
   Dimitrios Manganas     : Further ROCIS development; embedding schemes
   Dimitrios Pantazis     : SARC Basis sets
   Anastasios Papadopoulos: AUTO-CI, single reference methods and gradients
   Taras Petrenko         : DFT Hessian,TD-DFT gradient, ASA, ECA, R-Raman, ABS, FL, XAS/XES, NRVS
   Peter Pinski           : DLPNO-MP2, DLPNO-MP2 Gradient
   Christoph Reimann      : Effective Core Potentials
   Marius Retegan         : Local ZFS, SOC
   Christoph Riplinger    : Optimizer, TS searches, QM/MM, DLPNO-CCSD(T), (RO)-DLPNO pert. Triples
   Tobias Risthaus        : Range-separated hybrids, TD-DFT gradient, RPA, STAB
   Michael Roemelt        : Original ROCIS implementation
   Masaaki Saitow         : Open-shell DLPNO-CCSD energy and density
   Barbara Sandhoefer     : DKH picture change effects
   Avijit Sen             : IP-ROCIS
   Kantharuban Sivalingam : CASSCF convergence, NEVPT2, FIC-MRCI
   Bernardo de Souza      : ESD, SOC TD-DFT
   Georgi Stoychev        : AutoAux, RI-MP2 NMR, DLPNO-MP2 response
   Willem Van den Heuvel  : Paramagnetic NMR
   Boris Wezisla          : Elementary symmetry handling
   Frank Wennmohs         : Technical directorship


 We gratefully acknowledge several colleagues who have allowed us to
 interface, adapt or use parts of their codes:
   Stefan Grimme, W. Hujo, H. Kruse, P. Pracht,  : VdW corrections, initial TS optimization,
                  C. Bannwarth, S. Ehlert          DFT functionals, gCP, sTDA/sTD-DF
   Ed Valeev, F. Pavosevic, A. Kumar             : LibInt (2-el integral package), F12 methods
   Garnet Chan, S. Sharma, J. Yang, R. Olivares  : DMRG
   Ulf Ekstrom                                   : XCFun DFT Library
   Mihaly Kallay                                 : mrcc  (arbitrary order and MRCC methods)
   Jiri Pittner, Ondrej Demel                    : Mk-CCSD
   Frank Weinhold                                : gennbo (NPA and NBO analysis)
   Christopher J. Cramer and Donald G. Truhlar   : smd solvation model
   Lars Goerigk                                  : TD-DFT with DH, B97 family of functionals
   V. Asgeirsson, H. Jonsson                     : NEB implementation
   FAccTs GmbH                                   : IRC, NEB, NEB-TS, DLPNO-Multilevel, CI-OPT
                                                   MM, QMMM, 2- and 3-layer-ONIOM, Crystal-QMMM,
                                                   LR-CPCM, SF, NACMEs, symmetry and pop. for TD-DFT,
                                                   nearIR, NL-DFT gradient (VV10), updates on ESD,
                                                   ML-optimized integration grids
   S Lehtola, MJT Oliveira, MAL Marques          : LibXC Library
   Liviu Ungur et al                             : ANISO software


 Your calculation uses the libint2 library for the computation of 2-el integrals
 For citations please refer to: http://libint.valeyev.net

 Your ORCA version has been built with support for libXC version: 5.1.0
 For citations please refer to: https://tddft.org/programs/libxc/

 This ORCA versions uses:
   CBLAS   interface :  Fast vector & matrix operations
   LAPACKE interface :  Fast linear algebra routines
   SCALAPACK package :  Parallel linear algebra routines
   Shared memory     :  Shared parallel matrices
   BLAS/LAPACK       :  OpenBLAS 0.3.15  USE64BITINT DYNAMIC_ARCH NO_AFFINITY Haswell SINGLE_THREADED
        Core in use  :  Haswell
   Copyright (c) 2011-2014, The OpenBLAS Project




***************************************
The coordinates will be read from file: P10.xyz
***************************************


Your calculation utilizes the geometrical counterpoise correction gCP
Please cite in your paper:
H.Kruse, S. Grimme J.Chem.Phys., 136, (2012), 154101 
   

Your calculation utilizes the atom-pairwise dispersion correction
with the Becke-Johnson damping scheme (D3BJ)
Cite in your paper:
S.Grimme, S.Ehrlich, L.Goerigk, J Comput Chem, (2011), 32, 1456–1465 
S.Grimme, J.Antony, S.Ehrlich and H.Krieg, J.Chem.Phys., 132, (2010), 154104 
   

Your calculation employs the composite approach PBEh-3c.
Please cite in your paper:
S. Grimme, J. G. Brandenburg, C. Bannwarth, A. Hansen J.Chem.Phys., 143, (2015), 054107 
   

================================================================================

----- Orbital basis set information -----
Your calculation utilizes the basis: def2-mSVP

----- AuxJ basis set information -----
Your calculation utilizes the auxiliary basis: def2/J
   F. Weigend, Phys. Chem. Chem. Phys. 8, 1057 (2006).

================================================================================
                                        WARNINGS
                       Please study these warnings very carefully!
================================================================================


WARNING: your system is open-shell and RHF/RKS was chosen
  ===> : WILL SWITCH to UHF/UKS


INFO   : the flag for use of the SHARK integral package has been found!

================================================================================
                                       INPUT FILE
================================================================================
NAME = pbeh-3c.inp
|  1> ! PBEh-3c def2/J TightSCF DefGrid3
|  2> 
|  3> %maxcore 60000
|  4> 
|  5> %pal
|  6> nprocs 4
|  7> end
|  8> 
|  9> *xyzfile 0 2 P10.xyz
| 10> 
| 11>                          ****END OF INPUT****
================================================================================

                       ****************************
                       * Single Point Calculation *
                       ****************************

---------------------------------
CARTESIAN COORDINATES (ANGSTROEM)
---------------------------------
  C     -1.042754   -0.458121    0.000000
  C      0.185733    0.363169    0.000000
  O      1.326171   -0.494514    0.000000
  H     -0.971832   -1.536197    0.000000
  H     -2.013341    0.018512    0.000000
  H      0.197677    1.028885   -0.881589
  H      0.197677    1.028885    0.881589
  H      2.120668    0.049381    0.000000

----------------------------
CARTESIAN COORDINATES (A.U.)
----------------------------
  NO LB      ZA    FRAG     MASS         X           Y           Z
   0 C     6.0000    0    12.011   -1.970520   -0.865723    0.000000
   1 C     6.0000    0    12.011    0.350985    0.686291    0.000000
   2 O     8.0000    0    15.999    2.506100   -0.934496    0.000000
   3 H     1.0000    0     1.008   -1.836496   -2.902992    0.000000
   4 H     1.0000    0     1.008   -3.804663    0.034983    0.000000
   5 H     1.0000    0     1.008    0.373556    1.944310   -1.665962
   6 H     1.0000    0     1.008    0.373556    1.944310    1.665962
   7 H     1.0000    0     1.008    4.007482    0.093317    0.000000

--------------------------------
INTERNAL COORDINATES (ANGSTROEM)
--------------------------------
 C      0   0   0     0.000000000000     0.00000000     0.00000000
 C      1   0   0     1.477734375980     0.00000000     0.00000000
 O      2   1   0     1.426961583870   109.29021427     0.00000000
 H      1   2   3     1.080406321820   120.00040533     0.00000000
 H      1   2   3     1.081303725183   120.08114006   180.00000000
 H      2   1   3     1.104770934563   110.11399286   121.80862170
 H      2   1   3     1.104770934563   110.11399286   238.19137830
 H      3   2   1     0.962833400600   108.65978741   180.00000000

---------------------------
INTERNAL COORDINATES (A.U.)
---------------------------
 C      0   0   0     0.000000000000     0.00000000     0.00000000
 C      1   0   0     2.792513269284     0.00000000     0.00000000
 O      2   1   0     2.696566597141   109.29021427     0.00000000
 H      1   2   3     2.041672061597   120.00040533     0.00000000
 H      1   2   3     2.043367908185   120.08114006   180.00000000
 H      2   1   3     2.087714507039   110.11399286   121.80862170
 H      2   1   3     2.087714507039   110.11399286   238.19137830
 H      3   2   1     1.819491439725   108.65978741   180.00000000

---------------------
BASIS SET INFORMATION
---------------------
There are 3 groups of distinct atoms

 Group   1 Type C   : 8s4p1d contracted to 4s2p1d pattern {5111/31/1}
 Group   2 Type O   : 8s4p1d contracted to 4s2p1d pattern {5111/31/1}
 Group   3 Type H   : 4s contracted to 2s pattern {31}

Atom   0C    basis set group =>   1
Atom   1C    basis set group =>   1
Atom   2O    basis set group =>   2
Atom   3H    basis set group =>   3
Atom   4H    basis set group =>   3
Atom   5H    basis set group =>   3
Atom   6H    basis set group =>   3
Atom   7H    basis set group =>   3
---------------------------------
AUXILIARY/J BASIS SET INFORMATION
---------------------------------
There are 3 groups of distinct atoms

 Group   1 Type C   : 12s5p4d2f1g contracted to 6s4p3d1f1g pattern {711111/2111/211/2/1}
 Group   2 Type O   : 12s5p4d2f1g contracted to 6s4p3d1f1g pattern {711111/2111/211/2/1}
 Group   3 Type H   : 5s2p1d contracted to 3s1p1d pattern {311/2/1}

Atom   0C    basis set group =>   1
Atom   1C    basis set group =>   1
Atom   2O    basis set group =>   2
Atom   3H    basis set group =>   3
Atom   4H    basis set group =>   3
Atom   5H    basis set group =>   3
Atom   6H    basis set group =>   3
Atom   7H    basis set group =>   3


           ************************************************************
           *        Program running with 4 parallel MPI-processes     *
           *              working on a common directory               *
           ************************************************************
------------------------------------------------------------------------------
                           ORCA GTO INTEGRAL CALCULATION
                           -- RI-GTO INTEGRALS CHOSEN --
------------------------------------------------------------------------------
------------------------------------------------------------------------------
                   ___                                                        
                  /   \      - P O W E R E D   B Y -                         
                 /     \                                                     
                 |  |  |   _    _      __       _____    __    __             
                 |  |  |  | |  | |    /  \     |  _  \  |  |  /  |          
                  \  \/   | |  | |   /    \    | | | |  |  | /  /          
                 / \  \   | |__| |  /  /\  \   | |_| |  |  |/  /          
                |  |  |   |  __  | /  /__\  \  |    /   |      \           
                |  |  |   | |  | | |   __   |  |    \   |  |\   \          
                \     /   | |  | | |  |  |  |  | |\  \  |  | \   \       
                 \___/    |_|  |_| |__|  |__|  |_| \__\ |__|  \__/        
                                                                              
                      - O R C A' S   B I G   F R I E N D -                    
                                      &                                       
                       - I N T E G R A L  F E E D E R -                       
                                                                              
 v1 FN, 2020, v2 2021                                                         
------------------------------------------------------------------------------


Reading SHARK input file pbeh-3c.SHARKINP.tmp ... ok
----------------------
SHARK INTEGRAL PACKAGE
----------------------

Number of atoms                             ...      8
Number of basis functions                   ...     55
Number of shells                            ...     31
Maximum angular momentum                    ...      2
Integral batch strategy                     ... SHARK/LIBINT Hybrid
RI-J (if used) integral strategy            ... SPLIT-RIJ (Revised 2003 algorithm where possible)
Printlevel                                  ...      1
Contraction scheme used                     ... SEGMENTED contraction
Coulomb Range Separation                    ... NOT USED
Exchange Range Separation                   ... NOT USED
Finite Nucleus Model                        ... NOT USED
Auxiliary Coulomb fitting basis             ... AVAILABLE
   # of basis functions in Aux-J            ...    202
   # of shells in Aux-J                     ...     70
   Maximum angular momentum in Aux-J        ...      4
Auxiliary J/K fitting basis                 ... NOT available
Auxiliary Correlation fitting basis         ... NOT available
Auxiliary 'external' fitting basis          ... NOT available
Integral threshold                          ...     2.500000e-11
Primitive cut-off                           ...     2.500000e-12
Primitive pair pre-selection threshold      ...     2.500000e-12

Calculating pre-screening integrals         ... done (  0.1 sec) Dimension = 31
Organizing shell pair data                  ... done (  0.2 sec)
Shell pair information
Total number of shell pairs                 ...       496
Shell pairs after pre-screening             ...       489
Total number of primitive shell pairs       ...      1824
Primitive shell pairs kept                  ...      1464
          la=0 lb=0:    246 shell pairs
          la=1 lb=0:    132 shell pairs
          la=1 lb=1:     21 shell pairs
          la=2 lb=0:     66 shell pairs
          la=2 lb=1:     18 shell pairs
          la=2 lb=2:      6 shell pairs

Calculating one electron integrals          ... done (  0.0 sec)
Calculating RI/J V-Matrix + Cholesky decomp.... done (  0.5 sec)
Calculating Nuclear repulsion               ... done (  0.1 sec) ENN=     74.947298503900 Eh

SHARK setup successfully completed in   1.8 seconds

Maximum memory used throughout the entire GTOINT-calculation: 9.2 MB


           ************************************************************
           *        Program running with 4 parallel MPI-processes     *
           *              working on a common directory               *
           ************************************************************
-------------------------------------------------------------------------------
                                 ORCA SCF
-------------------------------------------------------------------------------

------------
SCF SETTINGS
------------
Hamiltonian:
 Density Functional     Method          .... DFT(GTOs)
 Exchange Functional    Exchange        .... PBE
   PBE kappa parameter   XKappa         ....  1.024500
   PBE mue parameter    XMuePBE         ....  0.123457
 Correlation Functional Correlation     .... PBE
   PBE beta parameter  CBetaPBE         ....  0.030000
 LDA part of GGA corr.  LDAOpt          .... PW91-LDA
 Gradients option       PostSCFGGA      .... off
 Hybrid DFT is turned on
   Fraction HF Exchange ScalHFX         ....  0.420000
   Scaling of DF-GGA-X  ScalDFX         ....  0.580000
   Scaling of DF-GGA-C  ScalDFC         ....  1.000000
   Scaling of DF-LDA-C  ScalLDAC        ....  1.000000
   Perturbative correction              ....  0.000000
   Density functional embedding theory  .... OFF
 RI-approximation to the Coulomb term is turned on
   Number of AuxJ basis functions       .... 202
   RIJ-ON(X) (HFX calculated with O(N)) .... on
   Number of AuxJ basis functions       .... 202
   RIJ-COSX (HFX calculated with COS-X)).... on


General Settings:
 Integral files         IntName         .... pbeh-3c
 Hartree-Fock type      HFTyp           .... UHF
 Total Charge           Charge          ....    0
 Multiplicity           Mult            ....    2
 Number of Electrons    NEL             ....   25
 Basis Dimension        Dim             ....   55
 Nuclear Repulsion      ENuc            ....     74.9472985039 Eh

Convergence Acceleration:
 DIIS                   CNVDIIS         .... on
   Start iteration      DIISMaxIt       ....    12
   Startup error        DIISStart       ....  0.200000
   # of expansion vecs  DIISMaxEq       ....     5
   Bias factor          DIISBfac        ....   1.050
   Max. coefficient     DIISMaxC        ....  10.000
 Trust-Rad. Augm. Hess. CNVTRAH         .... auto
   Auto Start mean grad. ratio tolernc. ....  1.125000
   Auto Start start iteration           ....    20
   Auto Start num. interpolation iter.  ....    10
   Max. Number of Micro iterations      ....    16
   Max. Number of Macro iterations      .... Maxiter - #DIIS iter
   Number of Davidson start vectors     ....     2
   Converg. threshold I  (grad. norm)   ....   1.000e-05
   Converg. threshold II (energy diff.) ....   1.000e-08
   Grad. Scal. Fac. for Micro threshold ....   0.100
   Minimum threshold for Micro iter.    ....   0.010
   NR start threshold (gradient norm)   ....   0.001
   Initial trust radius                 ....   0.400
   Minimum AH scaling param. (alpha)    ....   1.000
   Maximum AH scaling param. (alpha)    .... 1000.000
   Orbital update algorithm             .... Taylor
   White noise on init. David. guess    .... on
   Maximum white noise                  ....   0.010
   Quad. conv. algorithm                .... NR
   COSX micro iterations for RIJONX calc.... off
 SOSCF                  CNVSOSCF        .... off
 Level Shifting         CNVShift        .... on
   Level shift para.    LevelShift      ....    0.2500
   Turn off err/grad.   ShiftErr        ....    0.0010
 Zerner damping         CNVZerner       .... off
 Static damping         CNVDamp         .... on
   Fraction old density DampFac         ....    0.7000
   Max. Damping (<1)    DampMax         ....    0.9800
   Min. Damping (>=0)   DampMin         ....    0.0000
   Turn off err/grad.   DampErr         ....    0.1000
 Fernandez-Rico         CNVRico         .... off

SCF Procedure:
 Maximum # iterations   MaxIter         ....   125
 SCF integral mode      SCFMode         .... Direct
   Integral package                     .... SHARK and LIBINT hybrid scheme
 Reset frequency        DirectResetFreq ....    20
 Integral Threshold     Thresh          ....  2.500e-11 Eh
 Primitive CutOff       TCut            ....  2.500e-12 Eh

Convergence Tolerance:
 Convergence Check Mode ConvCheckMode   .... Total+1el-Energy
 Convergence forced     ConvForced      .... 0
 Energy Change          TolE            ....  1.000e-08 Eh
 1-El. energy change                    ....  1.000e-05 Eh
 DIIS Error             TolErr          ....  5.000e-07


Diagonalization of the overlap matrix:
Smallest eigenvalue                        ... 9.630e-03
Time for diagonalization                   ...    0.001 sec
Threshold for overlap eigenvalues          ... 1.000e-08
Number of eigenvalues below threshold      ... 0
Time for construction of square roots      ...    0.213 sec
Total time needed                          ...    0.214 sec

--------------------------------
INITIAL GUESS: MINIMAL BASIS EHT
--------------------------------
The minimal basis has 20 functions
EHT matrix was diagonalized
Basis set overlap was calculated now projecting the orbitals
Using GuessMode=FMatrix for the initial guess
C*T matrix was formed
Effective Fockian was calculated
Effective Fockian was diagonalized
Initial density was built
                      ------------------
                      INITIAL GUESS DONE
                      ------------------
-------------------
DFT GRID GENERATION
-------------------

General Integration Accuracy     IntAcc      ... 4.959
Radial Grid Type                 RadialGrid  ... OptM3 with GC (2021)
Angular Grid (max. ang.)         AngularGrid ... 6 (Lebedev-590)
Angular grid pruning method      GridPruning ... 4 (adaptive)
Weight generation scheme         WeightScheme... Becke
Basis function cutoff            BFCut       ... 1.0000e-11
Integration weight cutoff        WCut        ... 1.0000e-14
Angular grids for H and He will be reduced by one unit
Partially contracted basis set               ... off
Rotationally invariant grid construction     ... off

Total number of grid points                  ...    87984
Total number of batches                      ...     1381
Average number of points per batch           ...       63
Average number of grid points per atom       ...    10998
Time for grid setup =    2.831 sec

--------------------
COSX GRID GENERATION
--------------------

GRIDX 1
-------
General Integration Accuracy     IntAcc      ... 4.020
Radial Grid Type                 RadialGrid  ... OptM3 with GC (2021)
Angular Grid (max. ang.)         AngularGrid ... 2 (Lebedev-110)
Angular grid pruning method      GridPruning ... 4 (adaptive)
Weight generation scheme         WeightScheme... Becke
Basis function cutoff            BFCut       ... 1.0000e-11
Integration weight cutoff        WCut        ... 1.0000e-14
Angular grids for H and He will be reduced by one unit
Partially contracted basis set               ... on
Rotationally invariant grid construction     ... off

Total number of grid points                  ...     9491
Total number of batches                      ...      152
Average number of points per batch           ...       62
Average number of grid points per atom       ...     1186
UseSFitting                                  ... on

GRIDX 2
-------
General Integration Accuracy     IntAcc      ... 4.338
Radial Grid Type                 RadialGrid  ... OptM3 with GC (2021)
Angular Grid (max. ang.)         AngularGrid ... 3 (Lebedev-194)
Angular grid pruning method      GridPruning ... 4 (adaptive)
Weight generation scheme         WeightScheme... Becke
Basis function cutoff            BFCut       ... 1.0000e-11
Integration weight cutoff        WCut        ... 1.0000e-14
Angular grids for H and He will be reduced by one unit
Partially contracted basis set               ... on
Rotationally invariant grid construction     ... off

Total number of grid points                  ...    20891
Total number of batches                      ...      330
Average number of points per batch           ...       63
Average number of grid points per atom       ...     2611
UseSFitting                                  ... on

GRIDX 3
-------
General Integration Accuracy     IntAcc      ... 4.871
Radial Grid Type                 RadialGrid  ... OptM3 with GC (2021)
Angular Grid (max. ang.)         AngularGrid ... 4 (Lebedev-302)
Angular grid pruning method      GridPruning ... 4 (adaptive)
Weight generation scheme         WeightScheme... Becke
Basis function cutoff            BFCut       ... 1.0000e-11
Integration weight cutoff        WCut        ... 1.0000e-14
Angular grids for H and He will be reduced by one unit
Partially contracted basis set               ... on
Rotationally invariant grid construction     ... off

Total number of grid points                  ...    41495
Total number of batches                      ...      654
Average number of points per batch           ...       63
Average number of grid points per atom       ...     5187
UseSFitting                                  ... on

Time for X-Grid setup             =    3.633 sec

--------------
SCF ITERATIONS
--------------
ITER       Energy         Delta-E        Max-DP      RMS-DP      [F,P]     Damp
               ***  Starting incremental Fock matrix formation  ***
  0   -153.6043936480   0.000000000000 0.08811729  0.00396936  0.2504625 0.7000
  1   -153.7582669907  -0.153873342666 0.05582657  0.00239548  0.1322258 0.7000
                               ***Turning on DIIS***
  2   -153.8425305168  -0.084263526133 0.13559789  0.00462500  0.0951863 0.0000
  3   -154.0293813186  -0.186850801775 0.03581653  0.00171257  0.0444842 0.0000
  4   -154.0368660443  -0.007484725740 0.01477572  0.00063208  0.0275691 0.0000
  5   -154.0401078928  -0.003241848507 0.00741163  0.00019168  0.0048580 0.0000
  6   -154.0402401982  -0.000132305365 0.00252505  0.00008214  0.0013162 0.0000
  7   -154.0402630614  -0.000022863232 0.00172958  0.00005490  0.0007021 0.0000
               *** Restarting incremental Fock matrix formation ***
                                   *** Resetting DIIS ***
  8   -154.0402719648  -0.000008903334 0.00013409  0.00000898  0.0000956 0.0000
  9   -154.0402720946  -0.000000129797 0.00006818  0.00000315  0.0000784 0.0000
 10   -154.0402721485  -0.000000053965 0.00002563  0.00000180  0.0000194 0.0000
 11   -154.0402721565  -0.000000007941 0.00000929  0.00000056  0.0000117 0.0000
 12   -154.0402721575  -0.000000001012 0.00000474  0.00000024  0.0000047 0.0000
                            ***DIIS convergence achieved***

               *****************************************************
               *                     SUCCESS                       *
               *           SCF CONVERGED AFTER  13 CYCLES          *
               *****************************************************

Old exchange energy                            =     -8.553321488 Eh
New exchange energy                            =     -8.553316436 Eh
Exchange energy change after final integration =      0.000005053 Eh
Total energy after final integration           =   -154.040267105 Eh
Final COS-X integration done in                =     0.600 sec

----------------
TOTAL SCF ENERGY
----------------

Total Energy       :         -154.04026711 Eh           -4191.64877 eV

Components:
Nuclear Repulsion  :           74.94729850 Eh            2039.41967 eV
Electronic Energy  :         -228.98756561 Eh           -6231.06844 eV
One Electron Energy:         -357.42984659 Eh           -9726.16059 eV
Two Electron Energy:          128.44228098 Eh            3495.09215 eV
Max COSX asymmetry :            0.00000013 Eh               0.00000 eV

Virial components:
Potential Energy   :         -307.00147692 Eh           -8353.93489 eV
Kinetic Energy     :          152.96120981 Eh            4162.28613 eV
Virial Ratio       :            2.00705445


DFT components:
N(Alpha)           :       13.000000152487 electrons
N(Beta)            :       12.000000293223 electrons
N(Total)           :       25.000000445710 electrons
E(X)               :      -11.359584258148 Eh       
E(C)               :       -1.068261207391 Eh       
E(XC)              :      -12.427845465539 Eh       
DFET-embed. en.    :        0.000000000000 Eh       

---------------
SCF CONVERGENCE
---------------

  Last Energy change         ...   -5.0235e-10  Tolerance :   1.0000e-08
  Last MAX-Density change    ...    0.0000e+00  Tolerance :   1.0000e-07
  Last RMS-Density change    ...    0.0000e+00  Tolerance :   5.0000e-09
  Last DIIS Error            ...    9.9743e-07  Tolerance :   5.0000e-07

             **** THE GBW FILE WAS UPDATED (pbeh-3c.gbw) ****
             **** DENSITY pbeh-3c.scfp WAS UPDATED ****
             **** ENERGY FILE WAS UPDATED (pbeh-3c.en.tmp) ****
----------------------
UHF SPIN CONTAMINATION
----------------------

Warning: in a DFT calculation there is little theoretical justification to 
         calculate <S**2> as in Hartree-Fock theory. We will do it anyways
         but you should keep in mind that the values have only limited relevance

Expectation value of <S**2>     :     0.755163
Ideal value S*(S+1) for S=0.5   :     0.750000
Deviation                       :     0.005163

             **** THE GBW FILE WAS UPDATED (pbeh-3c.gbw) ****
             **** DENSITY pbeh-3c.scfp WAS UPDATED ****
----------------
ORBITAL ENERGIES
----------------
                 SPIN UP ORBITALS
  NO   OCC          E(Eh)            E(eV) 
   0   1.0000     -19.484684      -530.2052 
   1   1.0000     -10.488906      -285.4176 
   2   1.0000     -10.441777      -284.1352 
   3   1.0000      -1.120497       -30.4903 
   4   1.0000      -0.837914       -22.8008 
   5   1.0000      -0.678972       -18.4758 
   6   1.0000      -0.584844       -15.9144 
   7   1.0000      -0.514795       -14.0083 
   8   1.0000      -0.473063       -12.8727 
   9   1.0000      -0.458676       -12.4812 
  10   1.0000      -0.395290       -10.7564 
  11   1.0000      -0.335898        -9.1403 
  12   1.0000      -0.252591        -6.8733 
  13   0.0000       0.126245         3.4353 
  14   0.0000       0.181374         4.9354 
  15   0.0000       0.193042         5.2529 
  16   0.0000       0.224372         6.1055 
  17   0.0000       0.231052         6.2872 
  18   0.0000       0.262973         7.1559 
  19   0.0000       0.293797         7.9946 
  20   0.0000       0.500663        13.6237 
  21   0.0000       0.544915        14.8279 
  22   0.0000       0.559185        15.2162 
  23   0.0000       0.596543        16.2328 
  24   0.0000       0.624555        16.9950 
  25   0.0000       0.661345        17.9961 
  26   0.0000       0.834199        22.6997 
  27   0.0000       0.928234        25.2585 
  28   0.0000       0.964055        26.2333 
  29   0.0000       0.998561        27.1722 
  30   0.0000       1.044128        28.4122 
  31   0.0000       1.056343        28.7446 
  32   0.0000       1.098986        29.9049 
  33   0.0000       1.154006        31.4021 
  34   0.0000       1.229386        33.4533 
  35   0.0000       1.328510        36.1506 
  36   0.0000       1.441362        39.2215 
  37   0.0000       1.643036        44.7093 
  38   0.0000       1.696537        46.1651 
  39   0.0000       1.807252        49.1778 
  40   0.0000       1.930676        52.5364 
  41   0.0000       1.945968        52.9525 
  42   0.0000       2.001124        54.4534 
  43   0.0000       2.055163        55.9238 
  44   0.0000       2.131102        57.9902 
  45   0.0000       2.236270        60.8520 
  46   0.0000       2.354247        64.0623 
  47   0.0000       2.472240        67.2731 
  48   0.0000       2.499739        68.0214 
  49   0.0000       2.608799        70.9890 
  50   0.0000       2.718286        73.9683 
  51   0.0000       2.907166        79.1080 
  52   0.0000      13.521456       367.9375 
  53   0.0000      13.926898       378.9702 
  54   0.0000      25.502519       693.9588 

                 SPIN DOWN ORBITALS
  NO   OCC          E(Eh)            E(eV) 
   0   1.0000     -19.484784      -530.2079 
   1   1.0000     -10.490316      -285.4560 
   2   1.0000     -10.425751      -283.6991 
   3   1.0000      -1.120322       -30.4855 
   4   1.0000      -0.813087       -22.1252 
   5   1.0000      -0.651203       -17.7201 
   6   1.0000      -0.581890       -15.8340 
   7   1.0000      -0.501088       -13.6353 
   8   1.0000      -0.466101       -12.6832 
   9   1.0000      -0.449112       -12.2210 
  10   1.0000      -0.390728       -10.6322 
  11   1.0000      -0.327943        -8.9238 
  12   0.0000      -0.003674        -0.1000 
  13   0.0000       0.126921         3.4537 
  14   0.0000       0.191952         5.2233 
  15   0.0000       0.201199         5.4749 
  16   0.0000       0.230744         6.2789 
  17   0.0000       0.238646         6.4939 
  18   0.0000       0.270347         7.3565 
  19   0.0000       0.298857         8.1323 
  20   0.0000       0.506840        13.7918 
  21   0.0000       0.559935        15.2366 
  22   0.0000       0.613872        16.7043 
  23   0.0000       0.619130        16.8474 
  24   0.0000       0.648068        17.6348 
  25   0.0000       0.673430        18.3250 
  26   0.0000       0.857031        23.3210 
  27   0.0000       0.929953        25.3053 
  28   0.0000       0.971740        26.4424 
  29   0.0000       1.004914        27.3451 
  30   0.0000       1.051586        28.6151 
  31   0.0000       1.072809        29.1926 
  32   0.0000       1.102153        29.9911 
  33   0.0000       1.155729        31.4490 
  34   0.0000       1.241931        33.7947 
  35   0.0000       1.334202        36.3055 
  36   0.0000       1.458569        39.6897 
  37   0.0000       1.643478        44.7213 
  38   0.0000       1.757200        47.8158 
  39   0.0000       1.814876        49.3853 
  40   0.0000       1.931956        52.5712 
  41   0.0000       1.959902        53.3317 
  42   0.0000       2.030484        55.2523 
  43   0.0000       2.074325        56.4453 
  44   0.0000       2.139609        58.2217 
  45   0.0000       2.274237        61.8851 
  46   0.0000       2.374622        64.6168 
  47   0.0000       2.474607        67.3375 
  48   0.0000       2.507033        68.2198 
  49   0.0000       2.610540        71.0364 
  50   0.0000       2.726475        74.1911 
  51   0.0000       2.907853        79.1267 
  52   0.0000      13.536994       368.3603 
  53   0.0000      13.932733       379.1290 
  54   0.0000      25.502419       693.9561 

                    ********************************
                    * MULLIKEN POPULATION ANALYSIS *
                    ********************************

--------------------------------------------
MULLIKEN ATOMIC CHARGES AND SPIN POPULATIONS
--------------------------------------------
   0 C :   -0.458752    1.126220
   1 C :   -0.159578   -0.096427
   2 O :   -0.634957   -0.001571
   3 H :    0.242166   -0.062414
   4 H :    0.213812   -0.061120
   5 H :    0.190498    0.048109
   6 H :    0.190498    0.048109
   7 H :    0.416313   -0.000905
Sum of atomic charges         :   -0.0000000
Sum of atomic spin populations:    1.0000000

-----------------------------------------------------
MULLIKEN REDUCED ORBITAL CHARGES AND SPIN POPULATIONS
-----------------------------------------------------
CHARGE
  0 C s       :     3.349748  s :     3.349748
      pz      :     1.014486  p :     3.082005
      px      :     0.991563
      py      :     1.075956
      dz2     :     0.004574  d :     0.026999
      dxz     :     0.001739
      dyz     :     0.001405
      dx2y2   :     0.009994
      dxy     :     0.009287
  1 C s       :     3.258738  s :     3.258738
      pz      :     1.089580  p :     2.830340
      px      :     0.797751
      py      :     0.943008
      dz2     :     0.009031  d :     0.070501
      dxz     :     0.009726
      dyz     :     0.020696
      dx2y2   :     0.012565
      dxy     :     0.018484
  2 O s       :     3.822476  s :     3.822476
      pz      :     1.933550  p :     4.783672
      px      :     1.250905
      py      :     1.599216
      dz2     :     0.005276  d :     0.028809
      dxz     :     0.001353
      dyz     :     0.002998
      dx2y2   :     0.003159
      dxy     :     0.016023
  3 H s       :     0.757834  s :     0.757834
  4 H s       :     0.786188  s :     0.786188
  5 H s       :     0.809502  s :     0.809502
  6 H s       :     0.809502  s :     0.809502
  7 H s       :     0.583687  s :     0.583687

SPIN
  0 C s       :     0.102130  s :     0.102130
      pz      :     0.944629  p :     1.027372
      px      :     0.038419
      py      :     0.044324
      dz2     :    -0.003100  d :    -0.003282
      dxz     :     0.000083
      dyz     :     0.000044
      dx2y2   :    -0.000128
      dxy     :    -0.000181
  1 C s       :    -0.023852  s :    -0.023852
      pz      :    -0.032030  p :    -0.081229
      px      :    -0.027160
      py      :    -0.022038
      dz2     :     0.000099  d :     0.008653
      dxz     :     0.002848
      dyz     :     0.005576
      dx2y2   :     0.000061
      dxy     :     0.000069
  2 O s       :    -0.000235  s :    -0.000235
      pz      :    -0.001593  p :    -0.001233
      px      :     0.000315
      py      :     0.000045
      dz2     :    -0.000015  d :    -0.000102
      dxz     :    -0.000065
      dyz     :     0.000131
      dx2y2   :    -0.000129
      dxy     :    -0.000024
  3 H s       :    -0.062414  s :    -0.062414
  4 H s       :    -0.061120  s :    -0.061120
  5 H s       :     0.048109  s :     0.048109
  6 H s       :     0.048109  s :     0.048109
  7 H s       :    -0.000905  s :    -0.000905


                     *******************************
                     * LOEWDIN POPULATION ANALYSIS *
                     *******************************

-------------------------------------------
LOEWDIN ATOMIC CHARGES AND SPIN POPULATIONS
-------------------------------------------
   0 C :   -0.268415    0.999337
   1 C :   -0.104505   -0.024603
   2 O :   -0.417699   -0.001675
   3 H :    0.143968   -0.030340
   4 H :    0.128991   -0.029557
   5 H :    0.104375    0.043805
   6 H :    0.104375    0.043805
   7 H :    0.308912   -0.000771

----------------------------------------------------
LOEWDIN REDUCED ORBITAL CHARGES AND SPIN POPULATIONS
----------------------------------------------------
CHARGE
  0 C s       :     3.015104  s :     3.015104
      pz      :     1.009869  p :     3.201905
      px      :     1.079637
      py      :     1.112399
      dz2     :     0.005704  d :     0.051406
      dxz     :     0.003839
      dyz     :     0.002672
      dx2y2   :     0.019444
      dxy     :     0.019748
  1 C s       :     2.908500  s :     2.908500
      pz      :     1.097262  p :     3.047378
      px      :     0.928630
      py      :     1.021486
      dz2     :     0.018644  d :     0.148627
      dxz     :     0.019447
      dyz     :     0.040612
      dx2y2   :     0.026989
      dxy     :     0.042935
  2 O s       :     3.533061  s :     3.533061
      pz      :     1.932791  p :     4.834827
      px      :     1.276680
      py      :     1.625356
      dz2     :     0.007179  d :     0.049812
      dxz     :     0.003837
      dyz     :     0.004414
      dx2y2   :     0.007876
      dxy     :     0.026506
  3 H s       :     0.856032  s :     0.856032
  4 H s       :     0.871009  s :     0.871009
  5 H s       :     0.895625  s :     0.895625
  6 H s       :     0.895625  s :     0.895625
  7 H s       :     0.691088  s :     0.691088

SPIN
  0 C s       :     0.042679  s :     0.042679
      pz      :     0.915929  p :     0.961053
      px      :     0.022511
      py      :     0.022612
      dz2     :    -0.002901  d :    -0.004395
      dxz     :     0.000204
      dyz     :     0.000174
      dx2y2   :    -0.000866
      dxy     :    -0.001006
  1 C s       :    -0.007753  s :    -0.007753
      pz      :    -0.011077  p :    -0.035747
      px      :    -0.013026
      py      :    -0.011643
      dz2     :     0.000435  d :     0.018897
      dxz     :     0.006005
      dyz     :     0.011118
      dx2y2   :     0.000469
      dxy     :     0.000870
  2 O s       :    -0.000283  s :    -0.000283
      pz      :    -0.001651  p :    -0.001058
      px      :     0.000517
      py      :     0.000076
      dz2     :    -0.000027  d :    -0.000334
      dxz     :    -0.000201
      dyz     :     0.000273
      dx2y2   :    -0.000307
      dxy     :    -0.000072
  3 H s       :    -0.030340  s :    -0.030340
  4 H s       :    -0.029557  s :    -0.029557
  5 H s       :     0.043805  s :     0.043805
  6 H s       :     0.043805  s :     0.043805
  7 H s       :    -0.000771  s :    -0.000771


                      *****************************
                      * MAYER POPULATION ANALYSIS *
                      *****************************

  NA   - Mulliken gross atomic population
  ZA   - Total nuclear charge
  QA   - Mulliken gross atomic charge
  VA   - Mayer's total valence
  BVA  - Mayer's bonded valence
  FA   - Mayer's free valence

  ATOM       NA         ZA         QA         VA         BVA        FA
  0 C      6.4588     6.0000    -0.4588     3.7582     2.8471     0.9111
  1 C      6.1596     6.0000    -0.1596     3.7842     3.7802     0.0040
  2 O      8.6350     8.0000    -0.6350     1.8237     1.8237     0.0000
  3 H      0.7578     1.0000     0.2422     0.9192     0.9154     0.0038
  4 H      0.7862     1.0000     0.2138     0.9226     0.9189     0.0037
  5 H      0.8095     1.0000     0.1905     0.8985     0.8961     0.0024
  6 H      0.8095     1.0000     0.1905     0.8985     0.8961     0.0024
  7 H      0.5837     1.0000     0.4163     0.8025     0.8025     0.0000

  Mayer bond orders larger than 0.100000
B(  0-C ,  1-C ) :   1.0008 B(  0-C ,  3-H ) :   0.9174 B(  0-C ,  4-H ) :   0.9206 
B(  1-C ,  2-O ) :   1.0038 B(  1-C ,  5-H ) :   0.8947 B(  1-C ,  6-H ) :   0.8947 
B(  2-O ,  7-H ) :   0.7928 

-------
TIMINGS
-------

Total SCF time: 0 days 0 hours 1 min 22 sec 

Total time                  ....      82.848 sec
Sum of individual times     ....      74.355 sec  ( 89.7%)

Fock matrix formation       ....      61.054 sec  ( 73.7%)
  Split-RI-J                ....       4.430 sec  (  7.3% of F)
  Chain of spheres X        ....       6.619 sec  ( 10.8% of F)
  XC integration            ....      20.340 sec  ( 33.3% of F)
    Basis function eval.    ....       0.920 sec  (  4.5% of XC)
    Density eval.           ....       1.125 sec  (  5.5% of XC)
    XC-Functional eval.     ....       0.971 sec  (  4.8% of XC)
    XC-Potential eval.      ....       0.542 sec  (  2.7% of XC)
Diagonalization             ....       0.956 sec  (  1.2%)
Density matrix formation    ....       0.038 sec  (  0.0%)
Population analysis         ....       2.344 sec  (  2.8%)
Initial guess               ....       0.003 sec  (  0.0%)
Orbital Transformation      ....       0.000 sec  (  0.0%)
Orbital Orthonormalization  ....       0.000 sec  (  0.0%)
DIIS solution               ....       3.497 sec  (  4.2%)
Grid generation             ....       6.463 sec  (  7.8%)

Maximum memory used throughout the entire SCF-calculation: 46.5 MB


-------------------------------------------------------------------------------
                          DFT DISPERSION CORRECTION                            
                                                                               
                              DFTD3 V3.1  Rev 1                                
                          USING Becke-Johnson damping                          
-------------------------------------------------------------------------------
The PBEh-3c composite method is recognized
Using three-body term ABC
Active option DFTDOPT                   ...         4   

molecular C6(AA) [au] = 451.483228 


            DFT-D V3
 parameters
 s6 scaling factor         :     1.0000 
 a1 scaling factor         :     0.4860 
 s8 scaling factor         :     0.0000 
 a2 scaling factor         :     4.5000 
 Damping factor alpha9(ATM):    16.0000 
 ad hoc parameters k1-k3   :    16.0000     1.3333    -4.0000 

 Edisp/kcal,au: -1.305112632966  -0.002079829146 
 E6   /kcal   :  -1.306092656 
 E8   /kcal   :  -0.000000000 
 E6(ABC)      :   0.000980023 
 % E8         :   0.000000000 
 % E6(ABC)    :  -0.075091042 

-------------------------   ----------------
Dispersion correction           -0.002079829
-------------------------   ----------------

------------------   -----------------
gCP correction             0.015104251
------------------   -----------------

-------------------------   --------------------
FINAL SINGLE POINT ENERGY      -154.027242683880
-------------------------   --------------------


                            ***************************************
                            *     ORCA property calculations      *
                            ***************************************

                                    ---------------------
                                    Active property flags
                                    ---------------------
   (+) Dipole Moment


------------------------------------------------------------------------------
                       ORCA ELECTRIC PROPERTIES CALCULATION
------------------------------------------------------------------------------

Dipole Moment Calculation                       ... on
Quadrupole Moment Calculation                   ... off
Polarizability Calculation                      ... off
GBWName                                         ... pbeh-3c.gbw
Electron density                                ... pbeh-3c.scfp
The origin for moment calculation is the CENTER OF MASS  = ( 0.438277, -0.354704  0.000000)

-------------
DIPOLE MOMENT
-------------
                                X             Y             Z
Electronic contribution:      1.61255      -0.74451      -0.00000
Nuclear contribution   :     -1.51190       1.42897       0.00000
                        -----------------------------------------
Total Dipole Moment    :      0.10065       0.68446      -0.00000
                        -----------------------------------------
Magnitude (a.u.)       :      0.69182
Magnitude (Debye)      :      1.75847



--------------------
Rotational spectrum 
--------------------
 
Rotational constants in cm-1:     1.347274     0.334442     0.281976 
Rotational constants in MHz : 40390.267826 10026.330259  8453.427909 

 Dipole components along the rotational axes: 
x,y,z [a.u.] :    -0.100651     0.684462    -0.000000 
x,y,z [Debye]:    -0.255834     1.739765    -0.000000 

 

Timings for individual modules:

Sum of individual times         ...       86.920 sec (=   1.449 min)
GTO integral calculation        ...        2.840 sec (=   0.047 min)   3.3 %
SCF iterations                  ...       84.080 sec (=   1.401 min)  96.7 %
                             ****ORCA TERMINATED NORMALLY****
TOTAL RUN TIME: 0 days 0 hours 1 minutes 45 seconds 318 msec
