
                                 *****************
                                 * O   R   C   A *
                                 *****************

                                            #,                                       
                                            ###                                      
                                            ####                                     
                                            #####                                    
                                            ######                                   
                                           ########,                                 
                                     ,,################,,,,,                         
                               ,,#################################,,                 
                          ,,##########################################,,             
                       ,#########################################, ''#####,          
                    ,#############################################,,   '####,        
                  ,##################################################,,,,####,       
                ,###########''''           ''''###############################       
              ,#####''   ,,,,##########,,,,          '''####'''          '####       
            ,##' ,,,,###########################,,,                        '##       
           ' ,,###''''                  '''############,,,                           
         ,,##''                                '''############,,,,        ,,,,,,###''
      ,#''                                            '''#######################'''  
     '                                                          ''''####''''         
             ,#######,   #######,   ,#######,      ##                                
            ,#'     '#,  ##    ##  ,#'     '#,    #''#        ######   ,####,        
            ##       ##  ##   ,#'  ##            #'  '#       #        #'  '#        
            ##       ##  #######   ##           ,######,      #####,   #    #        
            '#,     ,#'  ##    ##  '#,     ,#' ,#      #,         ##   #,  ,#        
             '#######'   ##     ##  '#######'  #'      '#     #####' # '####'        



                  #######################################################
                  #                        -***-                        #
                  #          Department of theory and spectroscopy      #
                  #    Directorship and core code : Frank Neese         #
                  #        Max Planck Institute fuer Kohlenforschung    #
                  #                Kaiser Wilhelm Platz 1               #
                  #                 D-45470 Muelheim/Ruhr               #
                  #                      Germany                        #
                  #                                                     #
                  #                  All rights reserved                #
                  #                        -***-                        #
                  #######################################################


                         Program Version 5.0.3 -  RELEASE  -


 With contributions from (in alphabetic order):
   Daniel Aravena         : Magnetic Suceptibility
   Michael Atanasov       : Ab Initio Ligand Field Theory (pilot matlab implementation)
   Alexander A. Auer      : GIAO ZORA, VPT2 properties, NMR spectrum
   Ute Becker             : Parallelization
   Giovanni Bistoni       : ED, misc. LED, open-shell LED, HFLD
   Martin Brehm           : Molecular dynamics
   Dmytro Bykov           : SCF Hessian
   Vijay G. Chilkuri      : MRCI spin determinant printing, contributions to CSF-ICE
   Dipayan Datta          : RHF DLPNO-CCSD density
   Achintya Kumar Dutta   : EOM-CC, STEOM-CC
   Dmitry Ganyushin       : Spin-Orbit,Spin-Spin,Magnetic field MRCI
   Miquel Garcia          : C-PCM and meta-GGA Hessian, CC/C-PCM, Gaussian charge scheme
   Yang Guo               : DLPNO-NEVPT2, F12-NEVPT2, CIM, IAO-localization
   Andreas Hansen         : Spin unrestricted coupled pair/coupled cluster methods
   Benjamin Helmich-Paris : MC-RPA, TRAH-SCF, COSX integrals
   Lee Huntington         : MR-EOM, pCC
   Robert Izsak           : Overlap fitted RIJCOSX, COSX-SCS-MP3, EOM
   Marcus Kettner         : VPT2
   Christian Kollmar      : KDIIS, OOCD, Brueckner-CCSD(T), CCSD density, CASPT2, CASPT2-K
   Simone Kossmann        : Meta GGA functionals, TD-DFT gradient, OOMP2, MP2 Hessian
   Martin Krupicka        : Initial AUTO-CI
   Lucas Lang             : DCDCAS
   Marvin Lechner         : AUTO-CI (C++ implementation), FIC-MRCC
   Dagmar Lenk            : GEPOL surface, SMD
   Dimitrios Liakos       : Extrapolation schemes; Compound Job, initial MDCI parallelization
   Dimitrios Manganas     : Further ROCIS development; embedding schemes
   Dimitrios Pantazis     : SARC Basis sets
   Anastasios Papadopoulos: AUTO-CI, single reference methods and gradients
   Taras Petrenko         : DFT Hessian,TD-DFT gradient, ASA, ECA, R-Raman, ABS, FL, XAS/XES, NRVS
   Peter Pinski           : DLPNO-MP2, DLPNO-MP2 Gradient
   Christoph Reimann      : Effective Core Potentials
   Marius Retegan         : Local ZFS, SOC
   Christoph Riplinger    : Optimizer, TS searches, QM/MM, DLPNO-CCSD(T), (RO)-DLPNO pert. Triples
   Tobias Risthaus        : Range-separated hybrids, TD-DFT gradient, RPA, STAB
   Michael Roemelt        : Original ROCIS implementation
   Masaaki Saitow         : Open-shell DLPNO-CCSD energy and density
   Barbara Sandhoefer     : DKH picture change effects
   Avijit Sen             : IP-ROCIS
   Kantharuban Sivalingam : CASSCF convergence, NEVPT2, FIC-MRCI
   Bernardo de Souza      : ESD, SOC TD-DFT
   Georgi Stoychev        : AutoAux, RI-MP2 NMR, DLPNO-MP2 response
   Willem Van den Heuvel  : Paramagnetic NMR
   Boris Wezisla          : Elementary symmetry handling
   Frank Wennmohs         : Technical directorship


 We gratefully acknowledge several colleagues who have allowed us to
 interface, adapt or use parts of their codes:
   Stefan Grimme, W. Hujo, H. Kruse, P. Pracht,  : VdW corrections, initial TS optimization,
                  C. Bannwarth, S. Ehlert          DFT functionals, gCP, sTDA/sTD-DF
   Ed Valeev, F. Pavosevic, A. Kumar             : LibInt (2-el integral package), F12 methods
   Garnet Chan, S. Sharma, J. Yang, R. Olivares  : DMRG
   Ulf Ekstrom                                   : XCFun DFT Library
   Mihaly Kallay                                 : mrcc  (arbitrary order and MRCC methods)
   Jiri Pittner, Ondrej Demel                    : Mk-CCSD
   Frank Weinhold                                : gennbo (NPA and NBO analysis)
   Christopher J. Cramer and Donald G. Truhlar   : smd solvation model
   Lars Goerigk                                  : TD-DFT with DH, B97 family of functionals
   V. Asgeirsson, H. Jonsson                     : NEB implementation
   FAccTs GmbH                                   : IRC, NEB, NEB-TS, DLPNO-Multilevel, CI-OPT
                                                   MM, QMMM, 2- and 3-layer-ONIOM, Crystal-QMMM,
                                                   LR-CPCM, SF, NACMEs, symmetry and pop. for TD-DFT,
                                                   nearIR, NL-DFT gradient (VV10), updates on ESD,
                                                   ML-optimized integration grids
   S Lehtola, MJT Oliveira, MAL Marques          : LibXC Library
   Liviu Ungur et al                             : ANISO software


 Your calculation uses the libint2 library for the computation of 2-el integrals
 For citations please refer to: http://libint.valeyev.net

 Your ORCA version has been built with support for libXC version: 5.1.0
 For citations please refer to: https://tddft.org/programs/libxc/

 This ORCA versions uses:
   CBLAS   interface :  Fast vector & matrix operations
   LAPACKE interface :  Fast linear algebra routines
   SCALAPACK package :  Parallel linear algebra routines
   Shared memory     :  Shared parallel matrices
   BLAS/LAPACK       :  OpenBLAS 0.3.15  USE64BITINT DYNAMIC_ARCH NO_AFFINITY Haswell SINGLE_THREADED
        Core in use  :  Haswell
   Copyright (c) 2011-2014, The OpenBLAS Project




***************************************
The coordinates will be read from file: i10e.xyz
***************************************


Your calculation utilizes the geometrical counterpoise correction gCP
Please cite in your paper:
H.Kruse, S. Grimme J.Chem.Phys., 136, (2012), 154101 
   

Your calculation utilizes the atom-pairwise dispersion correction
with the Becke-Johnson damping scheme (D3BJ)
Cite in your paper:
S.Grimme, S.Ehrlich, L.Goerigk, J Comput Chem, (2011), 32, 1456–1465 
S.Grimme, J.Antony, S.Ehrlich and H.Krieg, J.Chem.Phys., 132, (2010), 154104 
   

Your calculation employs the composite approach PBEh-3c.
Please cite in your paper:
S. Grimme, J. G. Brandenburg, C. Bannwarth, A. Hansen J.Chem.Phys., 143, (2015), 054107 
   

================================================================================

----- Orbital basis set information -----
Your calculation utilizes the basis: def2-mSVP

----- AuxJ basis set information -----
Your calculation utilizes the auxiliary basis: def2/J
   F. Weigend, Phys. Chem. Chem. Phys. 8, 1057 (2006).

================================================================================
                                        WARNINGS
                       Please study these warnings very carefully!
================================================================================


INFO   : the flag for use of the SHARK integral package has been found!

================================================================================
                                       INPUT FILE
================================================================================
NAME = pbeh-3c.inp
|  1> ! PBEh-3c def2/J TightSCF DefGrid3
|  2> 
|  3> %maxcore 60000
|  4> 
|  5> %pal
|  6> nprocs 4
|  7> end
|  8> 
|  9> *xyzfile 0 1 i10e.xyz
| 10> 
| 11>                          ****END OF INPUT****
================================================================================

                       ****************************
                       * Single Point Calculation *
                       ****************************

---------------------------------
CARTESIAN COORDINATES (ANGSTROEM)
---------------------------------
  C     -1.679365    1.083083    0.484431
  C     -2.980625    1.599835    0.435878
  C     -4.035892    0.812719   -0.023917
  C     -3.792431   -0.496379   -0.447219
  C     -2.491707   -1.006494   -0.391370
  C     -1.411120   -0.248337    0.080023
  O     -0.708411    1.939746    0.947658
  C      0.010018   -0.837288    0.237610
  C      1.012904    0.101257   -0.488334
  C      2.248118    0.464852   -0.065242
  C      0.498682    0.572617   -1.846442
  C      3.095081    1.458471   -0.840809
  C      2.969731   -0.073279    1.161485
  C      0.153352   -2.232130   -0.414158
  H      0.171199    1.574371    0.728573
  C      0.197031   -1.022714    1.769718
  H     -3.139966    2.626585    0.757447
  H     -5.042189    1.225970   -0.057032
  H     -4.603939   -1.118630   -0.818213
  H     -2.318853   -2.026877   -0.721874
  H      1.305924    0.650891   -2.581701
  H     -0.247083   -0.128273   -2.235432
  H      0.000728    1.550362   -1.779150
  H      2.525249    2.064118   -1.550382
  H      3.895185    0.939129   -1.393274
  H      3.594126    2.140013   -0.137103
  H      2.927661   -1.166048    1.214425
  H      4.027621    0.214022    1.122631
  H      2.559181    0.318843    2.100533
  H      1.184235   -2.580106   -0.278475
  H     -0.519791   -2.957565    0.060504
  H     -0.066750   -2.203936   -1.487574
  H      1.079512   -1.620715    2.009803
  H      0.263704   -0.063253    2.292513
  H     -0.681121   -1.554858    2.154467

----------------------------
CARTESIAN COORDINATES (A.U.)
----------------------------
  NO LB      ZA    FRAG     MASS         X           Y           Z
   0 C     6.0000    0    12.011   -3.173540    2.046729    0.915442
   1 C     6.0000    0    12.011   -5.632566    3.023251    0.823690
   2 C     6.0000    0    12.011   -7.626730    1.535816   -0.045196
   3 C     6.0000    0    12.011   -7.166656   -0.938020   -0.845121
   4 C     6.0000    0    12.011   -4.708645   -1.901998   -0.739582
   5 C     6.0000    0    12.011   -2.666631   -0.469289    0.151222
   6 O     8.0000    0    15.999   -1.338702    3.665589    1.790814
   7 C     6.0000    0    12.011    0.018930   -1.582245    0.449018
   8 C     6.0000    0    12.011    1.914112    0.191349   -0.922818
   9 C     6.0000    0    12.011    4.248327    0.878442   -0.123289
  10 C     6.0000    0    12.011    0.942373    1.082090   -3.489270
  11 C     6.0000    0    12.011    5.848855    2.756110   -1.588898
  12 C     6.0000    0    12.011    5.611979   -0.138478    2.194889
  13 C     6.0000    0    12.011    0.289793   -4.218115   -0.782645
  14 H     1.0000    0     1.008    0.323520    2.975130    1.376804
  15 C     6.0000    0    12.011    0.372334   -1.932650    3.344283
  16 H     1.0000    0     1.008   -5.933676    4.963527    1.431367
  17 H     1.0000    0     1.008   -9.528356    2.316748   -0.107775
  18 H     1.0000    0     1.008   -8.700184   -2.113905   -1.546199
  19 H     1.0000    0     1.008   -4.381997   -3.830243   -1.364145
  20 H     1.0000    0     1.008    2.467840    1.230007   -4.878709
  21 H     1.0000    0     1.008   -0.466920   -0.242400   -4.224354
  22 H     1.0000    0     1.008    0.001376    2.929760   -3.362107
  23 H     1.0000    0     1.008    4.772028    3.900617   -2.929797
  24 H     1.0000    0     1.008    7.360833    1.774696   -2.632906
  25 H     1.0000    0     1.008    6.791914    4.044038   -0.259086
  26 H     1.0000    0     1.008    5.532477   -2.203512    2.294931
  27 H     1.0000    0     1.008    7.611100    0.404443    2.121466
  28 H     1.0000    0     1.008    4.836150    0.602526    3.969433
  29 H     1.0000    0     1.008    2.237879   -4.875694   -0.526242
  30 H     1.0000    0     1.008   -0.982263   -5.588989    0.114336
  31 H     1.0000    0     1.008   -0.126138   -4.164836   -2.811107
  32 H     1.0000    0     1.008    2.039982   -3.062708    3.797978
  33 H     1.0000    0     1.008    0.498329   -0.119532    4.332222
  34 H     1.0000    0     1.008   -1.287133   -2.938255    4.071353

--------------------------------
INTERNAL COORDINATES (ANGSTROEM)
--------------------------------
 C      0   0   0     0.000000000000     0.00000000     0.00000000
 C      1   0   0     1.400953020506     0.00000000     0.00000000
 C      2   1   0     1.394471373260   120.40592818     0.00000000
 C      3   2   1     1.397209893776   119.79456860   359.56893473
 C      4   3   2     1.398291043893   119.45868274     0.64805555
 C      5   4   3     1.401670962593   122.22478924     0.11491017
 O      1   2   3     1.375210732120   115.95711773   179.74132785
 C      6   5   4     1.546392237423   122.46293225   175.60085660
 C      8   6   5     1.553590617567   108.39370520   128.45392783
 C      9   8   6     1.355345385406   127.19359879   139.69249818
 C      9   8   6     1.526781859587   112.62749861   316.86412469
 C     10   9   8     1.518594420277   121.62745791   183.60543051
 C     10   9   8     1.521568228386   126.08740412     5.92940378
 C      8   6   5     1.546263970645   112.69297241    10.53602543
 H      7   1   2     0.977349091082   109.08964799   194.41447713
 C      8   6   5     1.554577608791   104.85746568   254.20093640
 H      2   1   3     1.087663472232   118.29603851   180.46310140
 H      3   2   1     1.088350514701   119.69636792   180.01808613
 H      4   3   2     1.087832246143   120.61546100   180.64846241
 H      5   4   3     1.086413369808   118.58704522   179.85859197
 H     11   9   8     1.094702148546   111.78750157   216.35639553
 H     11   9   8     1.094863279886   110.35351390   336.60214972
 H     11   9   8     1.099304998183   111.88221965    94.88312094
 H     12  10   9     1.093165652480   113.78345351    18.11580681
 H     12  10   9     1.102315692369   110.64138224   255.92325285
 H     12  10   9     1.099430754706   109.38260911   138.95184481
 H     13  10   9     1.094858906590   111.94728863    47.35079461
 H     13  10   9     1.096896444415   109.64551074   166.52724484
 H     13  10   9     1.097325630793   112.71312963   285.99439589
 H     14   8   6     1.096456283310   108.74024188   179.13367867
 H     14   8   6     1.097580029655   110.92081774   298.07631655
 H     14   8   6     1.096111403924   111.77525823    59.31274492
 H     16   8   6     1.092711899859   112.26985346   168.28467459
 H     16   8   6     1.094680268300   111.92903450   291.24689813
 H     16   8   6     1.096521497952   107.89984141    49.75676322

---------------------------
INTERNAL COORDINATES (A.U.)
---------------------------
 C      0   0   0     0.000000000000     0.00000000     0.00000000
 C      1   0   0     2.647417535245     0.00000000     0.00000000
 C      2   1   0     2.635168997055   120.40592818     0.00000000
 C      3   2   1     2.640344050842   119.79456860   359.56893473
 C      4   3   2     2.642387128473   119.45868274     0.64805555
 C      5   4   3     2.648774249171   122.22478924     0.11491017
 O      1   2   3     2.598771660137   115.95711773   179.74132785
 C      6   5   4     2.922257824350   122.46293225   175.60085660
 C      8   6   5     2.935860791432   108.39370520   128.45392783
 C      9   8   6     2.561231595291   127.19359879   139.69249818
 C      9   8   6     2.885199580858   112.62749861   316.86412469
 C     10   9   8     2.869727562824   121.62745791   183.60543051
 C     10   9   8     2.875347245725   126.08740412     5.92940378
 C      8   6   5     2.922015435268   112.69297241    10.53602543
 H      7   1   2     1.846922119382   109.08964799   194.41447713
 C      8   6   5     2.937725934541   104.85746568   254.20093640
 H      2   1   3     2.055386088389   118.29603851   180.46310140
 H      3   2   1     2.056684410498   119.69636792   180.01808613
 H      4   3   2     2.055705024858   120.61546100   180.64846241
 H      5   4   3     2.053023737169   118.58704522   179.85859197
 H     11   9   8     2.068687258967   111.78750157   216.35639553
 H     11   9   8     2.068991753071   110.35351390   336.60214972
 H     11   9   8     2.077385384217   111.88221965    94.88312094
 H     12  10   9     2.065783702196   113.78345351    18.11580681
 H     12  10   9     2.083074771702   110.64138224   255.92325285
 H     12  10   9     2.077623029605   109.38260911   138.95184481
 H     13  10   9     2.068983488739   111.94728863    47.35079461
 H     13  10   9     2.072833877216   109.64551074   166.52724484
 H     13  10   9     2.073644921932   112.71312963   285.99439589
 H     14   8   6     2.072002093274   108.74024188   179.13367867
 H     14   8   6     2.074125666110   110.92081774   298.07631655
 H     14   8   6     2.071350365684   111.77525823    59.31274492
 H     16   8   6     2.064926234010   112.26985346   168.28467459
 H     16   8   6     2.068645911294   111.92903450   291.24689813
 H     16   8   6     2.072125331086   107.89984141    49.75676322

---------------------
BASIS SET INFORMATION
---------------------
There are 3 groups of distinct atoms

 Group   1 Type C   : 8s4p1d contracted to 4s2p1d pattern {5111/31/1}
 Group   2 Type O   : 8s4p1d contracted to 4s2p1d pattern {5111/31/1}
 Group   3 Type H   : 4s contracted to 2s pattern {31}

Atom   0C    basis set group =>   1
Atom   1C    basis set group =>   1
Atom   2C    basis set group =>   1
Atom   3C    basis set group =>   1
Atom   4C    basis set group =>   1
Atom   5C    basis set group =>   1
Atom   6O    basis set group =>   2
Atom   7C    basis set group =>   1
Atom   8C    basis set group =>   1
Atom   9C    basis set group =>   1
Atom  10C    basis set group =>   1
Atom  11C    basis set group =>   1
Atom  12C    basis set group =>   1
Atom  13C    basis set group =>   1
Atom  14H    basis set group =>   3
Atom  15C    basis set group =>   1
Atom  16H    basis set group =>   3
Atom  17H    basis set group =>   3
Atom  18H    basis set group =>   3
Atom  19H    basis set group =>   3
Atom  20H    basis set group =>   3
Atom  21H    basis set group =>   3
Atom  22H    basis set group =>   3
Atom  23H    basis set group =>   3
Atom  24H    basis set group =>   3
Atom  25H    basis set group =>   3
Atom  26H    basis set group =>   3
Atom  27H    basis set group =>   3
Atom  28H    basis set group =>   3
Atom  29H    basis set group =>   3
Atom  30H    basis set group =>   3
Atom  31H    basis set group =>   3
Atom  32H    basis set group =>   3
Atom  33H    basis set group =>   3
Atom  34H    basis set group =>   3
---------------------------------
AUXILIARY/J BASIS SET INFORMATION
---------------------------------
There are 3 groups of distinct atoms

 Group   1 Type C   : 12s5p4d2f1g contracted to 6s4p3d1f1g pattern {711111/2111/211/2/1}
 Group   2 Type O   : 12s5p4d2f1g contracted to 6s4p3d1f1g pattern {711111/2111/211/2/1}
 Group   3 Type H   : 5s2p1d contracted to 3s1p1d pattern {311/2/1}

Atom   0C    basis set group =>   1
Atom   1C    basis set group =>   1
Atom   2C    basis set group =>   1
Atom   3C    basis set group =>   1
Atom   4C    basis set group =>   1
Atom   5C    basis set group =>   1
Atom   6O    basis set group =>   2
Atom   7C    basis set group =>   1
Atom   8C    basis set group =>   1
Atom   9C    basis set group =>   1
Atom  10C    basis set group =>   1
Atom  11C    basis set group =>   1
Atom  12C    basis set group =>   1
Atom  13C    basis set group =>   1
Atom  14H    basis set group =>   3
Atom  15C    basis set group =>   1
Atom  16H    basis set group =>   3
Atom  17H    basis set group =>   3
Atom  18H    basis set group =>   3
Atom  19H    basis set group =>   3
Atom  20H    basis set group =>   3
Atom  21H    basis set group =>   3
Atom  22H    basis set group =>   3
Atom  23H    basis set group =>   3
Atom  24H    basis set group =>   3
Atom  25H    basis set group =>   3
Atom  26H    basis set group =>   3
Atom  27H    basis set group =>   3
Atom  28H    basis set group =>   3
Atom  29H    basis set group =>   3
Atom  30H    basis set group =>   3
Atom  31H    basis set group =>   3
Atom  32H    basis set group =>   3
Atom  33H    basis set group =>   3
Atom  34H    basis set group =>   3


           ************************************************************
           *        Program running with 4 parallel MPI-processes     *
           *              working on a common directory               *
           ************************************************************
------------------------------------------------------------------------------
                           ORCA GTO INTEGRAL CALCULATION
                           -- RI-GTO INTEGRALS CHOSEN --
------------------------------------------------------------------------------
------------------------------------------------------------------------------
                   ___                                                        
                  /   \      - P O W E R E D   B Y -                         
                 /     \                                                     
                 |  |  |   _    _      __       _____    __    __             
                 |  |  |  | |  | |    /  \     |  _  \  |  |  /  |          
                  \  \/   | |  | |   /    \    | | | |  |  | /  /          
                 / \  \   | |__| |  /  /\  \   | |_| |  |  |/  /          
                |  |  |   |  __  | /  /__\  \  |    /   |      \           
                |  |  |   | |  | | |   __   |  |    \   |  |\   \          
                \     /   | |  | | |  |  |  |  | |\  \  |  | \   \       
                 \___/    |_|  |_| |__|  |__|  |_| \__\ |__|  \__/        
                                                                              
                      - O R C A' S   B I G   F R I E N D -                    
                                      &                                       
                       - I N T E G R A L  F E E D E R -                       
                                                                              
 v1 FN, 2020, v2 2021                                                         
------------------------------------------------------------------------------


Reading SHARK input file pbeh-3c.SHARKINP.tmp ... ok
----------------------
SHARK INTEGRAL PACKAGE
----------------------

Number of atoms                             ...     35
Number of basis functions                   ...    265
Number of shells                            ...    145
Maximum angular momentum                    ...      2
Integral batch strategy                     ... SHARK/LIBINT Hybrid
RI-J (if used) integral strategy            ... SPLIT-RIJ (Revised 2003 algorithm where possible)
Printlevel                                  ...      1
Contraction scheme used                     ... SEGMENTED contraction
Coulomb Range Separation                    ... NOT USED
Exchange Range Separation                   ... NOT USED
Finite Nucleus Model                        ... NOT USED
Auxiliary Coulomb fitting basis             ... AVAILABLE
   # of basis functions in Aux-J            ...    955
   # of shells in Aux-J                     ...    325
   Maximum angular momentum in Aux-J        ...      4
Auxiliary J/K fitting basis                 ... NOT available
Auxiliary Correlation fitting basis         ... NOT available
Auxiliary 'external' fitting basis          ... NOT available
Integral threshold                          ...     2.500000e-11
Primitive cut-off                           ...     2.500000e-12
Primitive pair pre-selection threshold      ...     2.500000e-12

Calculating pre-screening integrals         ... done (  0.0 sec) Dimension = 145
Organizing shell pair data                  ... done (  0.4 sec)
Shell pair information
Total number of shell pairs                 ...     10585
Shell pairs after pre-screening             ...      8688
Total number of primitive shell pairs       ...     38205
Primitive shell pairs kept                  ...     20436
          la=0 lb=0:   3824 shell pairs
          la=1 lb=0:   2711 shell pairs
          la=1 lb=1:    455 shell pairs
          la=2 lb=0:   1171 shell pairs
          la=2 lb=1:    427 shell pairs
          la=2 lb=2:    100 shell pairs

Calculating one electron integrals          ... done (  0.1 sec)
Calculating RI/J V-Matrix + Cholesky decomp.... done (  0.5 sec)
Calculating Nuclear repulsion               ... done (  0.1 sec) ENN=   1040.143139056858 Eh

SHARK setup successfully completed in   2.1 seconds

Maximum memory used throughout the entire GTOINT-calculation: 16.8 MB


           ************************************************************
           *        Program running with 4 parallel MPI-processes     *
           *              working on a common directory               *
           ************************************************************
-------------------------------------------------------------------------------
                                 ORCA SCF
-------------------------------------------------------------------------------

------------
SCF SETTINGS
------------
Hamiltonian:
 Density Functional     Method          .... DFT(GTOs)
 Exchange Functional    Exchange        .... PBE
   PBE kappa parameter   XKappa         ....  1.024500
   PBE mue parameter    XMuePBE         ....  0.123457
 Correlation Functional Correlation     .... PBE
   PBE beta parameter  CBetaPBE         ....  0.030000
 LDA part of GGA corr.  LDAOpt          .... PW91-LDA
 Gradients option       PostSCFGGA      .... off
 Hybrid DFT is turned on
   Fraction HF Exchange ScalHFX         ....  0.420000
   Scaling of DF-GGA-X  ScalDFX         ....  0.580000
   Scaling of DF-GGA-C  ScalDFC         ....  1.000000
   Scaling of DF-LDA-C  ScalLDAC        ....  1.000000
   Perturbative correction              ....  0.000000
   Density functional embedding theory  .... OFF
 RI-approximation to the Coulomb term is turned on
   Number of AuxJ basis functions       .... 955
   RIJ-ON(X) (HFX calculated with O(N)) .... on
   Number of AuxJ basis functions       .... 955
   RIJ-COSX (HFX calculated with COS-X)).... on


General Settings:
 Integral files         IntName         .... pbeh-3c
 Hartree-Fock type      HFTyp           .... RHF
 Total Charge           Charge          ....    0
 Multiplicity           Mult            ....    1
 Number of Electrons    NEL             ....  112
 Basis Dimension        Dim             ....  265
 Nuclear Repulsion      ENuc            ....   1040.1431390569 Eh

Convergence Acceleration:
 DIIS                   CNVDIIS         .... on
   Start iteration      DIISMaxIt       ....    12
   Startup error        DIISStart       ....  0.200000
   # of expansion vecs  DIISMaxEq       ....     5
   Bias factor          DIISBfac        ....   1.050
   Max. coefficient     DIISMaxC        ....  10.000
 Trust-Rad. Augm. Hess. CNVTRAH         .... auto
   Auto Start mean grad. ratio tolernc. ....  1.125000
   Auto Start start iteration           ....    20
   Auto Start num. interpolation iter.  ....    10
   Max. Number of Micro iterations      ....    16
   Max. Number of Macro iterations      .... Maxiter - #DIIS iter
   Number of Davidson start vectors     ....     2
   Converg. threshold I  (grad. norm)   ....   1.000e-05
   Converg. threshold II (energy diff.) ....   1.000e-08
   Grad. Scal. Fac. for Micro threshold ....   0.100
   Minimum threshold for Micro iter.    ....   0.010
   NR start threshold (gradient norm)   ....   0.001
   Initial trust radius                 ....   0.400
   Minimum AH scaling param. (alpha)    ....   1.000
   Maximum AH scaling param. (alpha)    .... 1000.000
   Orbital update algorithm             .... Taylor
   White noise on init. David. guess    .... on
   Maximum white noise                  ....   0.010
   Quad. conv. algorithm                .... NR
   COSX micro iterations for RIJONX calc.... off
 SOSCF                  CNVSOSCF        .... on
   Start iteration      SOSCFMaxIt      ....   150
   Startup grad/error   SOSCFStart      ....  0.003300
 Level Shifting         CNVShift        .... on
   Level shift para.    LevelShift      ....    0.2500
   Turn off err/grad.   ShiftErr        ....    0.0010
 Zerner damping         CNVZerner       .... off
 Static damping         CNVDamp         .... on
   Fraction old density DampFac         ....    0.7000
   Max. Damping (<1)    DampMax         ....    0.9800
   Min. Damping (>=0)   DampMin         ....    0.0000
   Turn off err/grad.   DampErr         ....    0.1000
 Fernandez-Rico         CNVRico         .... off

SCF Procedure:
 Maximum # iterations   MaxIter         ....   125
 SCF integral mode      SCFMode         .... Direct
   Integral package                     .... SHARK and LIBINT hybrid scheme
 Reset frequency        DirectResetFreq ....    20
 Integral Threshold     Thresh          ....  2.500e-11 Eh
 Primitive CutOff       TCut            ....  2.500e-12 Eh

Convergence Tolerance:
 Convergence Check Mode ConvCheckMode   .... Total+1el-Energy
 Convergence forced     ConvForced      .... 0
 Energy Change          TolE            ....  1.000e-08 Eh
 1-El. energy change                    ....  1.000e-05 Eh
 Orbital Gradient       TolG            ....  1.000e-05
 Orbital Rotation angle TolX            ....  1.000e-05
 DIIS Error             TolErr          ....  5.000e-07


Diagonalization of the overlap matrix:
Smallest eigenvalue                        ... 5.026e-04
Time for diagonalization                   ...    0.014 sec
Threshold for overlap eigenvalues          ... 1.000e-08
Number of eigenvalues below threshold      ... 0
Time for construction of square roots      ...    0.163 sec
Total time needed                          ...    0.192 sec

--------------------------------
INITIAL GUESS: MINIMAL BASIS EHT
--------------------------------
The minimal basis has 95 functions
EHT matrix was diagonalized
Basis set overlap was calculated now projecting the orbitals
Using GuessMode=FMatrix for the initial guess
C*T matrix was formed
Effective Fockian was calculated
Effective Fockian was diagonalized
Initial density was built
                      ------------------
                      INITIAL GUESS DONE
                      ------------------
-------------------
DFT GRID GENERATION
-------------------

General Integration Accuracy     IntAcc      ... 4.959
Radial Grid Type                 RadialGrid  ... OptM3 with GC (2021)
Angular Grid (max. ang.)         AngularGrid ... 6 (Lebedev-590)
Angular grid pruning method      GridPruning ... 4 (adaptive)
Weight generation scheme         WeightScheme... Becke
Basis function cutoff            BFCut       ... 1.0000e-11
Integration weight cutoff        WCut        ... 1.0000e-14
Angular grids for H and He will be reduced by one unit
Partially contracted basis set               ... off
Rotationally invariant grid construction     ... off

Total number of grid points                  ...   381289
Total number of batches                      ...     5978
Average number of points per batch           ...       63
Average number of grid points per atom       ...    10894
Time for grid setup =    7.026 sec

--------------------
COSX GRID GENERATION
--------------------

GRIDX 1
-------
General Integration Accuracy     IntAcc      ... 4.020
Radial Grid Type                 RadialGrid  ... OptM3 with GC (2021)
Angular Grid (max. ang.)         AngularGrid ... 2 (Lebedev-110)
Angular grid pruning method      GridPruning ... 4 (adaptive)
Weight generation scheme         WeightScheme... Becke
Basis function cutoff            BFCut       ... 1.0000e-11
Integration weight cutoff        WCut        ... 1.0000e-14
Angular grids for H and He will be reduced by one unit
Partially contracted basis set               ... on
Rotationally invariant grid construction     ... off

Total number of grid points                  ...    40739
Total number of batches                      ...      652
Average number of points per batch           ...       62
Average number of grid points per atom       ...     1164
UseSFitting                                  ... on

GRIDX 2
-------
General Integration Accuracy     IntAcc      ... 4.338
Radial Grid Type                 RadialGrid  ... OptM3 with GC (2021)
Angular Grid (max. ang.)         AngularGrid ... 3 (Lebedev-194)
Angular grid pruning method      GridPruning ... 4 (adaptive)
Weight generation scheme         WeightScheme... Becke
Basis function cutoff            BFCut       ... 1.0000e-11
Integration weight cutoff        WCut        ... 1.0000e-14
Angular grids for H and He will be reduced by one unit
Partially contracted basis set               ... on
Rotationally invariant grid construction     ... off

Total number of grid points                  ...    88631
Total number of batches                      ...     1404
Average number of points per batch           ...       63
Average number of grid points per atom       ...     2532
UseSFitting                                  ... on

GRIDX 3
-------
General Integration Accuracy     IntAcc      ... 4.871
Radial Grid Type                 RadialGrid  ... OptM3 with GC (2021)
Angular Grid (max. ang.)         AngularGrid ... 4 (Lebedev-302)
Angular grid pruning method      GridPruning ... 4 (adaptive)
Weight generation scheme         WeightScheme... Becke
Basis function cutoff            BFCut       ... 1.0000e-11
Integration weight cutoff        WCut        ... 1.0000e-14
Angular grids for H and He will be reduced by one unit
Partially contracted basis set               ... on
Rotationally invariant grid construction     ... off

Total number of grid points                  ...   170833
Total number of batches                      ...     2685
Average number of points per batch           ...       63
Average number of grid points per atom       ...     4881
UseSFitting                                  ... on

Time for X-Grid setup             =    7.843 sec

--------------
SCF ITERATIONS
--------------
ITER       Energy         Delta-E        Max-DP      RMS-DP      [F,P]     Damp
               ***  Starting incremental Fock matrix formation  ***
  0   -618.0251335925   0.000000000000 0.17929455  0.00360198  0.4565733 0.7000
  1   -618.4488828002  -0.423749207705 0.11480457  0.00248730  0.2855131 0.7000
                               ***Turning on DIIS***
  2   -618.7311646149  -0.282281814736 0.07021540  0.00174247  0.1997884 0.7000
  3   -618.9308085460  -0.199643931035 0.04283589  0.00131769  0.1406953 0.7000
  4   -619.0728373694  -0.142028823449 0.10479297  0.00323646  0.0985763 0.0000
  5   -619.4136537855  -0.340816416077 0.00705278  0.00014975  0.0068260 0.0000
  6   -619.4138724976  -0.000218712086 0.00272030  0.00005031  0.0037907 0.0000
                      *** Initiating the SOSCF procedure ***
                           *** Shutting down DIIS ***
                      *** Re-Reading the Fockian *** 
                      *** Removing any level shift *** 
ITER      Energy       Delta-E        Grad      Rot      Max-DP    RMS-DP
  7   -619.41391599  -0.0000434948  0.000211  0.000211  0.001399  0.000029
               *** Restarting incremental Fock matrix formation ***
  8   -619.41391715  -0.0000011549  0.000111  0.000292  0.000493  0.000015
  9   -619.41391834  -0.0000011916  0.000063  0.000156  0.000285  0.000008
 10   -619.41391861  -0.0000002698  0.000025  0.000048  0.000143  0.000003
 11   -619.41391864  -0.0000000300  0.000010  0.000019  0.000032  0.000001
 12   -619.41391865  -0.0000000064  0.000006  0.000010  0.000016  0.000001
                  ***Gradient check signals convergence***
              ***Rediagonalizing the Fockian in SOSCF/NRSCF***

               *****************************************************
               *                     SUCCESS                       *
               *           SCF CONVERGED AFTER  13 CYCLES          *
               *****************************************************

Old exchange energy                            =    -36.879610930 Eh
New exchange energy                            =    -36.879605976 Eh
Exchange energy change after final integration =      0.000004954 Eh
Total energy after final integration           =   -619.413913694 Eh
Final COS-X integration done in                =    33.217 sec

----------------
TOTAL SCF ENERGY
----------------

Total Energy       :         -619.41391369 Eh          -16855.10949 eV

Components:
Nuclear Repulsion  :         1040.14313906 Eh           28303.73375 eV
Electronic Energy  :        -1659.55705275 Eh          -45158.84324 eV
One Electron Energy:        -2903.52257236 Eh          -79008.86593 eV
Two Electron Energy:         1243.96551961 Eh           33850.02269 eV
Max COSX asymmetry :            0.00000148 Eh               0.00004 eV

Virial components:
Potential Energy   :        -1233.34209377 Eh          -33560.94458 eV
Kinetic Energy     :          613.92818007 Eh           16705.83509 eV
Virial Ratio       :            2.00893546


DFT components:
N(Alpha)           :       55.999995355073 electrons
N(Beta)            :       55.999995355073 electrons
N(Total)           :      111.999990710147 electrons
E(X)               :      -48.948740588648 Eh       
E(C)               :       -4.840208629070 Eh       
E(XC)              :      -53.788949217718 Eh       
DFET-embed. en.    :        0.000000000000 Eh       

---------------
SCF CONVERGENCE
---------------

  Last Energy change         ...   -2.8558e-09  Tolerance :   1.0000e-08
  Last MAX-Density change    ...    2.2204e-15  Tolerance :   1.0000e-07
  Last RMS-Density change    ...    2.9061e-17  Tolerance :   5.0000e-09
  Last Orbital Gradient      ...    2.4500e-06  Tolerance :   1.0000e-05
  Last Orbital Rotation      ...    7.4567e-06  Tolerance :   1.0000e-05

             **** THE GBW FILE WAS UPDATED (pbeh-3c.gbw) ****
             **** DENSITY pbeh-3c.scfp WAS UPDATED ****
             **** ENERGY FILE WAS UPDATED (pbeh-3c.en.tmp) ****
             **** THE GBW FILE WAS UPDATED (pbeh-3c.gbw) ****
             **** DENSITY pbeh-3c.scfp WAS UPDATED ****
----------------
ORBITAL ENERGIES
----------------

  NO   OCC          E(Eh)            E(eV) 
   0   2.0000     -19.508800      -530.8614 
   1   2.0000     -10.503569      -285.8166 
   2   2.0000     -10.476776      -285.0876 
   3   2.0000     -10.463932      -284.7381 
   4   2.0000     -10.459141      -284.6077 
   5   2.0000     -10.452913      -284.4382 
   6   2.0000     -10.444546      -284.2105 
   7   2.0000     -10.443591      -284.1846 
   8   2.0000     -10.439792      -284.0812 
   9   2.0000     -10.438621      -284.0493 
  10   2.0000     -10.436796      -283.9997 
  11   2.0000     -10.436188      -283.9831 
  12   2.0000     -10.435751      -283.9712 
  13   2.0000     -10.431324      -283.8508 
  14   2.0000     -10.430223      -283.8208 
  15   2.0000      -1.151342       -31.3296 
  16   2.0000      -0.952930       -25.9305 
  17   2.0000      -0.927780       -25.2462 
  18   2.0000      -0.885064       -24.0838 
  19   2.0000      -0.823316       -22.4036 
  20   2.0000      -0.820777       -22.3345 
  21   2.0000      -0.811997       -22.0956 
  22   2.0000      -0.776611       -21.1327 
  23   2.0000      -0.767648       -20.8888 
  24   2.0000      -0.725407       -19.7393 
  25   2.0000      -0.700672       -19.0663 
  26   2.0000      -0.669337       -18.2136 
  27   2.0000      -0.645213       -17.5571 
  28   2.0000      -0.600106       -16.3297 
  29   2.0000      -0.561203       -15.2711 
  30   2.0000      -0.553322       -15.0567 
  31   2.0000      -0.532275       -14.4839 
  32   2.0000      -0.521005       -14.1773 
  33   2.0000      -0.507606       -13.8127 
  34   2.0000      -0.501374       -13.6431 
  35   2.0000      -0.493241       -13.4218 
  36   2.0000      -0.486769       -13.2457 
  37   2.0000      -0.475015       -12.9258 
  38   2.0000      -0.467603       -12.7241 
  39   2.0000      -0.457701       -12.4547 
  40   2.0000      -0.451307       -12.2807 
  41   2.0000      -0.444256       -12.0888 
  42   2.0000      -0.440185       -11.9781 
  43   2.0000      -0.431447       -11.7403 
  44   2.0000      -0.428404       -11.6575 
  45   2.0000      -0.428039       -11.6475 
  46   2.0000      -0.418489       -11.3877 
  47   2.0000      -0.413682       -11.2569 
  48   2.0000      -0.406611       -11.0645 
  49   2.0000      -0.388407       -10.5691 
  50   2.0000      -0.374516       -10.1911 
  51   2.0000      -0.373023       -10.1505 
  52   2.0000      -0.360795        -9.8177 
  53   2.0000      -0.284349        -7.7375 
  54   2.0000      -0.273882        -7.4527 
  55   2.0000      -0.253373        -6.8946 
  56   0.0000       0.019246         0.5237 
  57   0.0000       0.034459         0.9377 
  58   0.0000       0.040971         1.1149 
  59   0.0000       0.107849         2.9347 
  60   0.0000       0.139629         3.7995 
  61   0.0000       0.157074         4.2742 
  62   0.0000       0.160028         4.3546 
  63   0.0000       0.163877         4.4593 
  64   0.0000       0.167355         4.5540 
  65   0.0000       0.179460         4.8834 
  66   0.0000       0.183812         5.0018 
  67   0.0000       0.191098         5.2001 
  68   0.0000       0.197299         5.3688 
  69   0.0000       0.204061         5.5528 
  70   0.0000       0.206719         5.6251 
  71   0.0000       0.215166         5.8550 
  72   0.0000       0.220266         5.9937 
  73   0.0000       0.230781         6.2799 
  74   0.0000       0.234785         6.3888 
  75   0.0000       0.239283         6.5112 
  76   0.0000       0.241086         6.5603 
  77   0.0000       0.246737         6.7141 
  78   0.0000       0.252972         6.8837 
  79   0.0000       0.260038         7.0760 
  80   0.0000       0.263706         7.1758 
  81   0.0000       0.271616         7.3910 
  82   0.0000       0.276264         7.5175 
  83   0.0000       0.282161         7.6780 
  84   0.0000       0.296162         8.0590 
  85   0.0000       0.304628         8.2894 
  86   0.0000       0.313035         8.5181 
  87   0.0000       0.335725         9.1355 
  88   0.0000       0.355005         9.6602 
  89   0.0000       0.369651        10.0587 
  90   0.0000       0.390602        10.6288 
  91   0.0000       0.409599        11.1457 
  92   0.0000       0.443093        12.0572 
  93   0.0000       0.474864        12.9217 
  94   0.0000       0.489357        13.3161 
  95   0.0000       0.499487        13.5917 
  96   0.0000       0.521487        14.1904 
  97   0.0000       0.526405        14.3242 
  98   0.0000       0.527493        14.3538 
  99   0.0000       0.540380        14.7045 
 100   0.0000       0.552289        15.0286 
 101   0.0000       0.565397        15.3852 
 102   0.0000       0.572792        15.5865 
 103   0.0000       0.584193        15.8967 
 104   0.0000       0.598589        16.2884 
 105   0.0000       0.604213        16.4415 
 106   0.0000       0.608633        16.5618 
 107   0.0000       0.616492        16.7756 
 108   0.0000       0.627609        17.0781 
 109   0.0000       0.630184        17.1482 
 110   0.0000       0.636825        17.3289 
 111   0.0000       0.645832        17.5740 
 112   0.0000       0.651495        17.7281 
 113   0.0000       0.659585        17.9482 
 114   0.0000       0.665869        18.1192 
 115   0.0000       0.679899        18.5010 
 116   0.0000       0.693198        18.8629 
 117   0.0000       0.693928        18.8827 
 118   0.0000       0.716691        19.5021 
 119   0.0000       0.724613        19.7177 
 120   0.0000       0.750834        20.4312 
 121   0.0000       0.757739        20.6191 
 122   0.0000       0.764025        20.7902 
 123   0.0000       0.768302        20.9066 
 124   0.0000       0.796453        21.6726 
 125   0.0000       0.802151        21.8276 
 126   0.0000       0.813169        22.1275 
 127   0.0000       0.834363        22.7042 
 128   0.0000       0.854194        23.2438 
 129   0.0000       0.871990        23.7281 
 130   0.0000       0.893140        24.3036 
 131   0.0000       0.923718        25.1356 
 132   0.0000       0.952211        25.9110 
 133   0.0000       0.959448        26.1079 
 134   0.0000       0.977783        26.6068 
 135   0.0000       0.987521        26.8718 
 136   0.0000       0.995961        27.1015 
 137   0.0000       1.005665        27.3655 
 138   0.0000       1.010944        27.5092 
 139   0.0000       1.018960        27.7273 
 140   0.0000       1.022467        27.8228 
 141   0.0000       1.033624        28.1263 
 142   0.0000       1.037620        28.2351 
 143   0.0000       1.045114        28.4390 
 144   0.0000       1.049707        28.5640 
 145   0.0000       1.053106        28.6565 
 146   0.0000       1.059678        28.8353 
 147   0.0000       1.066180        29.0122 
 148   0.0000       1.073295        29.2058 
 149   0.0000       1.082062        29.4444 
 150   0.0000       1.098423        29.8896 
 151   0.0000       1.107696        30.1419 
 152   0.0000       1.112769        30.2800 
 153   0.0000       1.125175        30.6176 
 154   0.0000       1.134733        30.8777 
 155   0.0000       1.148131        31.2422 
 156   0.0000       1.157572        31.4991 
 157   0.0000       1.168635        31.8002 
 158   0.0000       1.188890        32.3514 
 159   0.0000       1.199719        32.6460 
 160   0.0000       1.243986        33.8506 
 161   0.0000       1.262269        34.3481 
 162   0.0000       1.268321        34.5128 
 163   0.0000       1.297128        35.2966 
 164   0.0000       1.317523        35.8516 
 165   0.0000       1.328170        36.1413 
 166   0.0000       1.351470        36.7754 
 167   0.0000       1.376880        37.4668 
 168   0.0000       1.394990        37.9596 
 169   0.0000       1.430926        38.9375 
 170   0.0000       1.447617        39.3917 
 171   0.0000       1.465780        39.8859 
 172   0.0000       1.489227        40.5239 
 173   0.0000       1.498058        40.7642 
 174   0.0000       1.513299        41.1789 
 175   0.0000       1.523576        41.4586 
 176   0.0000       1.552837        42.2548 
 177   0.0000       1.559012        42.4229 
 178   0.0000       1.568096        42.6700 
 179   0.0000       1.588065        43.2135 
 180   0.0000       1.608122        43.7592 
 181   0.0000       1.651848        44.9491 
 182   0.0000       1.711688        46.5774 
 183   0.0000       1.728254        47.0282 
 184   0.0000       1.763205        47.9793 
 185   0.0000       1.805717        49.1361 
 186   0.0000       1.812961        49.3332 
 187   0.0000       1.830576        49.8125 
 188   0.0000       1.866938        50.8020 
 189   0.0000       1.869857        50.8814 
 190   0.0000       1.887442        51.3599 
 191   0.0000       1.901060        51.7305 
 192   0.0000       1.917026        52.1649 
 193   0.0000       1.919680        52.2372 
 194   0.0000       1.948910        53.0325 
 195   0.0000       1.966311        53.5061 
 196   0.0000       1.987071        54.0709 
 197   0.0000       1.996499        54.3275 
 198   0.0000       2.005957        54.5849 
 199   0.0000       2.024359        55.0856 
 200   0.0000       2.048062        55.7306 
 201   0.0000       2.075823        56.4860 
 202   0.0000       2.086570        56.7785 
 203   0.0000       2.107026        57.3351 
 204   0.0000       2.118924        57.6589 
 205   0.0000       2.133193        58.0471 
 206   0.0000       2.149522        58.4915 
 207   0.0000       2.167673        58.9854 
 208   0.0000       2.182146        59.3792 
 209   0.0000       2.197620        59.8003 
 210   0.0000       2.211262        60.1715 
 211   0.0000       2.224929        60.5434 
 212   0.0000       2.257687        61.4348 
 213   0.0000       2.265795        61.6554 
 214   0.0000       2.280082        62.0442 
 215   0.0000       2.307957        62.8027 
 216   0.0000       2.313571        62.9555 
 217   0.0000       2.337912        63.6178 
 218   0.0000       2.344233        63.7898 
 219   0.0000       2.358935        64.1899 
 220   0.0000       2.369037        64.4648 
 221   0.0000       2.380505        64.7768 
 222   0.0000       2.388349        64.9903 
 223   0.0000       2.398326        65.2618 
 224   0.0000       2.433382        66.2157 
 225   0.0000       2.442509        66.4641 
 226   0.0000       2.450326        66.6768 
 227   0.0000       2.472694        67.2854 
 228   0.0000       2.500333        68.0375 
 229   0.0000       2.526137        68.7397 
 230   0.0000       2.543290        69.2064 
 231   0.0000       2.576599        70.1128 
 232   0.0000       2.588446        70.4352 
 233   0.0000       2.638404        71.7946 
 234   0.0000       2.655691        72.2650 
 235   0.0000       2.682488        72.9942 
 236   0.0000       2.703088        73.5548 
 237   0.0000       2.722355        74.0790 
 238   0.0000       2.737814        74.4997 
 239   0.0000       2.759957        75.1022 
 240   0.0000       2.793947        76.0272 
 241   0.0000       2.830798        77.0299 
 242   0.0000       2.850285        77.5602 
 243   0.0000       2.877544        78.3019 
 244   0.0000       2.926776        79.6416 
 245   0.0000       2.992592        81.4326 
 246   0.0000       3.057215        83.1910 
 247   0.0000       3.150341        85.7251 
 248   0.0000       3.222507        87.6889 
 249   0.0000       3.473228        94.5113 
 250   0.0000      13.268019       361.0412 
 251   0.0000      13.479587       366.7982 
 252   0.0000      13.706771       372.9802 
 253   0.0000      13.729099       373.5878 
 254   0.0000      13.792526       375.3137 
 255   0.0000      13.833475       376.4280 
 256   0.0000      13.867375       377.3504 
 257   0.0000      13.897016       378.1570 
 258   0.0000      13.956175       379.7668 
 259   0.0000      14.170088       385.5877 
 260   0.0000      14.185615       386.0102 
 261   0.0000      14.199521       386.3886 
 262   0.0000      14.271498       388.3472 
 263   0.0000      14.528377       395.3372 
 264   0.0000      25.780367       701.5195 

                    ********************************
                    * MULLIKEN POPULATION ANALYSIS *
                    ********************************

-----------------------
MULLIKEN ATOMIC CHARGES
-----------------------
   0 C :    0.317315
   1 C :   -0.294181
   2 C :   -0.226897
   3 C :   -0.224629
   4 C :   -0.298131
   5 C :    0.050643
   6 O :   -0.625269
   7 C :   -0.187830
   8 C :    0.013677
   9 C :    0.042873
  10 C :   -0.704270
  11 C :   -0.709516
  12 C :   -0.717125
  13 C :   -0.632633
  14 H :    0.458081
  15 C :   -0.634073
  16 H :    0.233547
  17 H :    0.216105
  18 H :    0.212282
  19 H :    0.217822
  20 H :    0.233157
  21 H :    0.245571
  22 H :    0.243979
  23 H :    0.237530
  24 H :    0.230520
  25 H :    0.230483
  26 H :    0.229557
  27 H :    0.238305
  28 H :    0.236089
  29 H :    0.233103
  30 H :    0.221467
  31 H :    0.226272
  32 H :    0.215759
  33 H :    0.226551
  34 H :    0.243864
Sum of atomic charges:   -0.0000000

--------------------------------
MULLIKEN REDUCED ORBITAL CHARGES
--------------------------------
  0 C s       :     3.110098  s :     3.110098
      pz      :     0.907594  p :     2.498539
      px      :     0.791107
      py      :     0.799838
      dz2     :     0.007731  d :     0.074047
      dxz     :     0.013462
      dyz     :     0.010335
      dx2y2   :     0.019116
      dxy     :     0.023404
  1 C s       :     3.263699  s :     3.263699
      pz      :     1.043488  p :     2.993354
      px      :     0.916642
      py      :     1.033223
      dz2     :     0.003954  d :     0.037128
      dxz     :     0.006499
      dyz     :     0.004286
      dx2y2   :     0.012944
      dxy     :     0.009445
  2 C s       :     3.255876  s :     3.255876
      pz      :     0.974624  p :     2.930776
      px      :     1.022255
      py      :     0.933898
      dz2     :     0.005533  d :     0.040245
      dxz     :     0.003953
      dyz     :     0.006548
      dx2y2   :     0.011912
      dxy     :     0.012301
  3 C s       :     3.239468  s :     3.239468
      pz      :     1.028868  p :     2.946204
      px      :     0.968145
      py      :     0.949191
      dz2     :     0.003568  d :     0.038956
      dxz     :     0.005870
      dyz     :     0.005770
      dx2y2   :     0.010618
      dxy     :     0.013130
  4 C s       :     3.290714  s :     3.290714
      pz      :     1.003308  p :     2.967649
      px      :     0.912926
      py      :     1.051415
      dz2     :     0.004044  d :     0.039768
      dxz     :     0.008036
      dyz     :     0.004080
      dx2y2   :     0.013084
      dxy     :     0.010524
  5 C s       :     3.173081  s :     3.173081
      pz      :     1.024736  p :     2.734122
      px      :     0.869334
      py      :     0.840052
      dz2     :     0.004874  d :     0.042155
      dxz     :     0.006512
      dyz     :     0.006325
      dx2y2   :     0.013263
      dxy     :     0.011181
  6 O s       :     3.811742  s :     3.811742
      pz      :     1.792240  p :     4.783282
      px      :     1.325128
      py      :     1.665914
      dz2     :     0.004506  d :     0.030244
      dxz     :     0.004548
      dyz     :     0.005279
      dx2y2   :     0.005334
      dxy     :     0.010576
  7 C s       :     3.306463  s :     3.306463
      pz      :     0.962428  p :     2.828975
      px      :     0.915718
      py      :     0.950829
      dz2     :     0.012599  d :     0.052391
      dxz     :     0.008582
      dyz     :     0.010098
      dx2y2   :     0.010396
      dxy     :     0.010716
  8 C s       :     3.212643  s :     3.212643
      pz      :     0.900689  p :     2.730738
      px      :     0.884758
      py      :     0.945291
      dz2     :     0.009008  d :     0.042942
      dxz     :     0.010972
      dyz     :     0.006708
      dx2y2   :     0.007824
      dxy     :     0.008430
  9 C s       :     3.208510  s :     3.208510
      pz      :     0.895092  p :     2.704317
      px      :     0.876202
      py      :     0.933023
      dz2     :     0.007651  d :     0.044299
      dxz     :     0.011472
      dyz     :     0.006696
      dx2y2   :     0.008381
      dxy     :     0.010100
 10 C s       :     3.404841  s :     3.404841
      pz      :     0.983802  p :     3.262692
      px      :     1.132687
      py      :     1.146203
      dz2     :     0.007952  d :     0.036737
      dxz     :     0.010760
      dyz     :     0.004463
      dx2y2   :     0.004169
      dxy     :     0.009392
 11 C s       :     3.406287  s :     3.406287
      pz      :     1.104269  p :     3.266312
      px      :     1.093509
      py      :     1.068534
      dz2     :     0.001869  d :     0.036917
      dxz     :     0.010520
      dyz     :     0.011323
      dx2y2   :     0.003144
      dxy     :     0.010060
 12 C s       :     3.415093  s :     3.415093
      pz      :     1.032176  p :     3.265506
      px      :     1.109470
      py      :     1.123861
      dz2     :     0.010381  d :     0.036526
      dxz     :     0.005989
      dyz     :     0.005202
      dx2y2   :     0.011516
      dxy     :     0.003438
 13 C s       :     3.381500  s :     3.381500
      pz      :     1.098661  p :     3.214433
      px      :     1.148838
      py      :     0.966935
      dz2     :     0.011606  d :     0.036700
      dxz     :     0.003195
      dyz     :     0.005701
      dx2y2   :     0.007255
      dxy     :     0.008943
 14 H s       :     0.541919  s :     0.541919
 15 C s       :     3.391259  s :     3.391259
      pz      :     0.936003  p :     3.206138
      px      :     1.133430
      py      :     1.136704
      dz2     :     0.008398  d :     0.036676
      dxz     :     0.005426
      dyz     :     0.008333
      dx2y2   :     0.005450
      dxy     :     0.009069
 16 H s       :     0.766453  s :     0.766453
 17 H s       :     0.783895  s :     0.783895
 18 H s       :     0.787718  s :     0.787718
 19 H s       :     0.782178  s :     0.782178
 20 H s       :     0.766843  s :     0.766843
 21 H s       :     0.754429  s :     0.754429
 22 H s       :     0.756021  s :     0.756021
 23 H s       :     0.762470  s :     0.762470
 24 H s       :     0.769480  s :     0.769480
 25 H s       :     0.769517  s :     0.769517
 26 H s       :     0.770443  s :     0.770443
 27 H s       :     0.761695  s :     0.761695
 28 H s       :     0.763911  s :     0.763911
 29 H s       :     0.766897  s :     0.766897
 30 H s       :     0.778533  s :     0.778533
 31 H s       :     0.773728  s :     0.773728
 32 H s       :     0.784241  s :     0.784241
 33 H s       :     0.773449  s :     0.773449
 34 H s       :     0.756136  s :     0.756136


                     *******************************
                     * LOEWDIN POPULATION ANALYSIS *
                     *******************************

----------------------
LOEWDIN ATOMIC CHARGES
----------------------
   0 C :    0.073725
   1 C :   -0.161673
   2 C :   -0.129093
   3 C :   -0.162436
   4 C :   -0.134657
   5 C :   -0.077810
   6 O :   -0.330550
   7 C :   -0.072086
   8 C :   -0.088378
   9 C :   -0.077411
  10 C :   -0.351482
  11 C :   -0.353865
  12 C :   -0.353845
  13 C :   -0.334801
  14 H :    0.325472
  15 C :   -0.338478
  16 H :    0.145376
  17 H :    0.135537
  18 H :    0.133641
  19 H :    0.135777
  20 H :    0.133091
  21 H :    0.140407
  22 H :    0.142079
  23 H :    0.136016
  24 H :    0.138065
  25 H :    0.135040
  26 H :    0.134470
  27 H :    0.133539
  28 H :    0.140821
  29 H :    0.133176
  30 H :    0.128160
  31 H :    0.129552
  32 H :    0.124121
  33 H :    0.129881
  34 H :    0.138622

-------------------------------
LOEWDIN REDUCED ORBITAL CHARGES
-------------------------------
  0 C s       :     2.833161  s :     2.833161
      pz      :     0.938524  p :     2.921046
      px      :     0.977132
      py      :     1.005390
      dz2     :     0.016306  d :     0.172068
      dxz     :     0.028588
      dyz     :     0.023029
      dx2y2   :     0.048631
      dxy     :     0.055514
  1 C s       :     2.895084  s :     2.895084
      pz      :     1.038846  p :     3.182039
      px      :     1.068675
      py      :     1.074518
      dz2     :     0.007121  d :     0.084551
      dxz     :     0.014321
      dyz     :     0.007177
      dx2y2   :     0.030778
      dxy     :     0.025154
  2 C s       :     2.895270  s :     2.895270
      pz      :     0.991964  p :     3.143419
      px      :     1.075086
      py      :     1.076369
      dz2     :     0.009874  d :     0.090404
      dxz     :     0.007961
      dyz     :     0.014654
      dx2y2   :     0.028639
      dxy     :     0.029277
  3 C s       :     2.891453  s :     2.891453
      pz      :     1.032053  p :     3.182420
      px      :     1.075050
      py      :     1.075316
      dz2     :     0.006486  d :     0.088562
      dxz     :     0.011576
      dyz     :     0.011713
      dx2y2   :     0.027139
      dxy     :     0.031648
  4 C s       :     2.890229  s :     2.890229
      pz      :     1.006822  p :     3.153984
      px      :     1.078511
      py      :     1.068650
      dz2     :     0.007367  d :     0.090443
      dxz     :     0.017984
      dyz     :     0.007009
      dx2y2   :     0.031596
      dxy     :     0.026488
  5 C s       :     2.857176  s :     2.857176
      pz      :     1.022711  p :     3.119421
      px      :     1.041431
      py      :     1.055279
      dz2     :     0.009538  d :     0.101212
      dxz     :     0.013705
      dyz     :     0.013981
      dx2y2   :     0.034249
      dxy     :     0.029740
  6 O s       :     3.490390  s :     3.490390
      pz      :     1.788968  p :     4.787141
      px      :     1.317989
      py      :     1.680184
      dz2     :     0.006892  d :     0.053019
      dxz     :     0.008862
      dyz     :     0.007308
      dx2y2   :     0.011591
      dxy     :     0.018367
  7 C s       :     2.842668  s :     2.842668
      pz      :     1.050089  p :     3.110170
      px      :     1.016670
      py      :     1.043411
      dz2     :     0.029426  d :     0.119249
      dxz     :     0.018033
      dyz     :     0.022637
      dx2y2   :     0.023847
      dxy     :     0.025305
  8 C s       :     2.878390  s :     2.878390
      pz      :     1.034362  p :     3.108680
      px      :     1.068043
      py      :     1.006275
      dz2     :     0.021895  d :     0.101309
      dxz     :     0.027503
      dyz     :     0.014096
      dx2y2   :     0.017998
      dxy     :     0.019816
  9 C s       :     2.870747  s :     2.870747
      pz      :     1.026452  p :     3.101934
      px      :     1.066417
      py      :     1.009065
      dz2     :     0.018082  d :     0.104730
      dxz     :     0.028877
      dyz     :     0.014303
      dx2y2   :     0.019412
      dxy     :     0.024057
 10 C s       :     2.947842  s :     2.947842
      pz      :     1.073619  p :     3.335413
      px      :     1.124306
      py      :     1.137488
      dz2     :     0.016551  d :     0.068227
      dxz     :     0.019700
      dyz     :     0.009477
      dx2y2   :     0.006765
      dxy     :     0.015735
 11 C s       :     2.952091  s :     2.952091
      pz      :     1.119170  p :     3.333431
      px      :     1.110806
      py      :     1.103455
      dz2     :     0.003505  d :     0.068343
      dxz     :     0.019320
      dyz     :     0.020747
      dx2y2   :     0.006342
      dxy     :     0.018429
 12 C s       :     2.950925  s :     2.950925
      pz      :     1.094660  p :     3.335244
      px      :     1.113117
      py      :     1.127467
      dz2     :     0.019910  d :     0.067677
      dxz     :     0.011849
      dyz     :     0.010180
      dx2y2   :     0.019734
      dxy     :     0.006002
 13 C s       :     2.956774  s :     2.956774
      pz      :     1.117116  p :     3.309773
      px      :     1.131619
      py      :     1.061039
      dz2     :     0.020213  d :     0.068254
      dxz     :     0.005164
      dyz     :     0.012028
      dx2y2   :     0.014461
      dxy     :     0.016388
 14 H s       :     0.674528  s :     0.674528
 15 C s       :     2.958255  s :     2.958255
      pz      :     1.048605  p :     3.312348
      px      :     1.130706
      py      :     1.133036
      dz2     :     0.018129  d :     0.067876
      dxz     :     0.010739
      dyz     :     0.015704
      dx2y2   :     0.008622
      dxy     :     0.014683
 16 H s       :     0.854624  s :     0.854624
 17 H s       :     0.864463  s :     0.864463
 18 H s       :     0.866359  s :     0.866359
 19 H s       :     0.864223  s :     0.864223
 20 H s       :     0.866909  s :     0.866909
 21 H s       :     0.859593  s :     0.859593
 22 H s       :     0.857921  s :     0.857921
 23 H s       :     0.863984  s :     0.863984
 24 H s       :     0.861935  s :     0.861935
 25 H s       :     0.864960  s :     0.864960
 26 H s       :     0.865530  s :     0.865530
 27 H s       :     0.866461  s :     0.866461
 28 H s       :     0.859179  s :     0.859179
 29 H s       :     0.866824  s :     0.866824
 30 H s       :     0.871840  s :     0.871840
 31 H s       :     0.870448  s :     0.870448
 32 H s       :     0.875879  s :     0.875879
 33 H s       :     0.870119  s :     0.870119
 34 H s       :     0.861378  s :     0.861378


                      *****************************
                      * MAYER POPULATION ANALYSIS *
                      *****************************

  NA   - Mulliken gross atomic population
  ZA   - Total nuclear charge
  QA   - Mulliken gross atomic charge
  VA   - Mayer's total valence
  BVA  - Mayer's bonded valence
  FA   - Mayer's free valence

  ATOM       NA         ZA         QA         VA         BVA        FA
  0 C      5.6827     6.0000     0.3173     3.8155     3.8155    -0.0000
  1 C      6.2942     6.0000    -0.2942     3.7967     3.7967    -0.0000
  2 C      6.2269     6.0000    -0.2269     3.8371     3.8371     0.0000
  3 C      6.2246     6.0000    -0.2246     3.8212     3.8212    -0.0000
  4 C      6.2981     6.0000    -0.2981     3.8417     3.8417     0.0000
  5 C      5.9494     6.0000     0.0506     3.5835     3.5835    -0.0000
  6 O      8.6253     8.0000    -0.6253     1.9636     1.9636    -0.0000
  7 C      6.1878     6.0000    -0.1878     3.8400     3.8400     0.0000
  8 C      5.9863     6.0000     0.0137     3.6669     3.6669    -0.0000
  9 C      5.9571     6.0000     0.0429     3.7127     3.7127    -0.0000
 10 C      6.7043     6.0000    -0.7043     3.7003     3.7003    -0.0000
 11 C      6.7095     6.0000    -0.7095     3.7350     3.7350     0.0000
 12 C      6.7171     6.0000    -0.7171     3.7010     3.7010     0.0000
 13 C      6.6326     6.0000    -0.6326     3.6954     3.6954     0.0000
 14 H      0.5419     1.0000     0.4581     0.7852     0.7852    -0.0000
 15 C      6.6341     6.0000    -0.6341     3.6616     3.6616     0.0000
 16 H      0.7665     1.0000     0.2335     0.9106     0.9106     0.0000
 17 H      0.7839     1.0000     0.2161     0.9138     0.9138    -0.0000
 18 H      0.7877     1.0000     0.2123     0.9150     0.9150    -0.0000
 19 H      0.7822     1.0000     0.2178     0.9165     0.9165     0.0000
 20 H      0.7668     1.0000     0.2332     0.9067     0.9067    -0.0000
 21 H      0.7544     1.0000     0.2456     0.9057     0.9057    -0.0000
 22 H      0.7560     1.0000     0.2440     0.9024     0.9024     0.0000
 23 H      0.7625     1.0000     0.2375     0.9077     0.9077    -0.0000
 24 H      0.7695     1.0000     0.2305     0.9030     0.9030     0.0000
 25 H      0.7695     1.0000     0.2305     0.9053     0.9053    -0.0000
 26 H      0.7704     1.0000     0.2296     0.9101     0.9101     0.0000
 27 H      0.7617     1.0000     0.2383     0.9051     0.9051    -0.0000
 28 H      0.7639     1.0000     0.2361     0.9057     0.9057    -0.0000
 29 H      0.7669     1.0000     0.2331     0.9119     0.9119    -0.0000
 30 H      0.7785     1.0000     0.2215     0.9144     0.9144     0.0000
 31 H      0.7737     1.0000     0.2263     0.9154     0.9154    -0.0000
 32 H      0.7842     1.0000     0.2158     0.9173     0.9173    -0.0000
 33 H      0.7734     1.0000     0.2266     0.9230     0.9230    -0.0000
 34 H      0.7561     1.0000     0.2439     0.9062     0.9062     0.0000

  Mayer bond orders larger than 0.100000
B(  0-C ,  1-C ) :   1.3793 B(  0-C ,  5-C ) :   1.2814 B(  0-C ,  6-O ) :   1.1166 
B(  1-C ,  2-C ) :   1.4348 B(  1-C , 16-H ) :   0.9096 B(  2-C ,  3-C ) :   1.4255 
B(  2-C , 17-H ) :   0.9205 B(  3-C ,  4-C ) :   1.4231 B(  3-C , 18-H ) :   0.9210 
B(  4-C ,  5-C ) :   1.4105 B(  4-C , 19-H ) :   0.9157 B(  5-C ,  7-C ) :   0.9419 
B(  6-O , 14-H ) :   0.7038 B(  7-C ,  8-C ) :   0.9575 B(  7-C , 13-C ) :   0.9981 
B(  7-C , 15-C ) :   0.9799 B(  8-C ,  9-C ) :   1.7938 B(  8-C , 10-C ) :   0.9686 
B(  9-C , 11-C ) :   0.9909 B(  9-C , 12-C ) :   0.9621 B( 10-C , 20-H ) :   0.9221 
B( 10-C , 21-H ) :   0.9103 B( 10-C , 22-H ) :   0.9038 B( 11-C , 23-H ) :   0.9188 
B( 11-C , 24-H ) :   0.9116 B( 11-C , 25-H ) :   0.9169 B( 12-C , 26-H ) :   0.9182 
B( 12-C , 27-H ) :   0.9238 B( 12-C , 28-H ) :   0.9121 B( 13-C , 29-H ) :   0.9190 
B( 13-C , 30-H ) :   0.9165 B( 13-C , 31-H ) :   0.9188 B( 15-C , 32-H ) :   0.9176 
B( 15-C , 33-H ) :   0.9161 B( 15-C , 34-H ) :   0.9158 

-------
TIMINGS
-------

Total SCF time: 0 days 0 hours 4 min 42 sec 

Total time                  ....     282.433 sec
Sum of individual times     ....     274.034 sec  ( 97.0%)

Fock matrix formation       ....     244.935 sec  ( 86.7%)
  Split-RI-J                ....      16.598 sec  (  6.8% of F)
  Chain of spheres X        ....     173.039 sec  ( 70.6% of F)
  XC integration            ....      41.585 sec  ( 17.0% of F)
    Basis function eval.    ....      13.872 sec  ( 33.4% of XC)
    Density eval.           ....       8.431 sec  ( 20.3% of XC)
    XC-Functional eval.     ....       3.108 sec  (  7.5% of XC)
    XC-Potential eval.      ....       4.304 sec  ( 10.3% of XC)
Diagonalization             ....       3.176 sec  (  1.1%)
Density matrix formation    ....       0.376 sec  (  0.1%)
Population analysis         ....       0.320 sec  (  0.1%)
Initial guess               ....       0.066 sec  (  0.0%)
Orbital Transformation      ....       0.000 sec  (  0.0%)
Orbital Orthonormalization  ....       0.000 sec  (  0.0%)
DIIS solution               ....       5.062 sec  (  1.8%)
SOSCF solution              ....       5.231 sec  (  1.9%)
Grid generation             ....      14.869 sec  (  5.3%)

Maximum memory used throughout the entire SCF-calculation: 97.7 MB


-------------------------------------------------------------------------------
                          DFT DISPERSION CORRECTION                            
                                                                               
                              DFTD3 V3.1  Rev 1                                
                          USING Becke-Johnson damping                          
-------------------------------------------------------------------------------
The PBEh-3c composite method is recognized
Using three-body term ABC
Active option DFTDOPT                   ...         4   

molecular C6(AA) [au] = 10808.841650 


            DFT-D V3
 parameters
 s6 scaling factor         :     1.0000 
 a1 scaling factor         :     0.4860 
 s8 scaling factor         :     0.0000 
 a2 scaling factor         :     4.5000 
 Damping factor alpha9(ATM):    16.0000 
 ad hoc parameters k1-k3   :    16.0000     1.3333    -4.0000 

 Edisp/kcal,au: -15.878056226437  -0.025303290530 
 E6   /kcal   : -16.114858831 
 E8   /kcal   :  -0.000000000 
 E6(ABC)      :   0.236802604 
 % E8         :   0.000000000 
 % E6(ABC)    :  -1.491382829 

-------------------------   ----------------
Dispersion correction           -0.025303291
-------------------------   ----------------

------------------   -----------------
gCP correction             0.049683918
------------------   -----------------

-------------------------   --------------------
FINAL SINGLE POINT ENERGY      -619.389533066079
-------------------------   --------------------


                            ***************************************
                            *     ORCA property calculations      *
                            ***************************************

                                    ---------------------
                                    Active property flags
                                    ---------------------
   (+) Dipole Moment


------------------------------------------------------------------------------
                       ORCA ELECTRIC PROPERTIES CALCULATION
------------------------------------------------------------------------------

Dipole Moment Calculation                       ... on
Quadrupole Moment Calculation                   ... off
Polarizability Calculation                      ... off
GBWName                                         ... pbeh-3c.gbw
Electron density                                ... pbeh-3c.scfp
The origin for moment calculation is the CENTER OF MASS  = (-0.729823,  0.286887  0.095946)

-------------
DIPOLE MOMENT
-------------
                                X             Y             Z
Electronic contribution:    -12.97339       4.33442       1.25191
Nuclear contribution   :     13.72896      -4.80727      -1.50167
                        -----------------------------------------
Total Dipole Moment    :      0.75558      -0.47285      -0.24976
                        -----------------------------------------
Magnitude (a.u.)       :      0.92567
Magnitude (Debye)      :      2.35286



--------------------
Rotational spectrum 
--------------------
 
Rotational constants in cm-1:     0.035814     0.014118     0.012869 
Rotational constants in MHz :  1073.683325   423.238960   385.799679 

 Dipole components along the rotational axes: 
x,y,z [a.u.] :     0.755577    -0.472846    -0.249764 
x,y,z [Debye]:     1.920525    -1.201879    -0.634849 

 

Timings for individual modules:

Sum of individual times         ...      285.892 sec (=   4.765 min)
GTO integral calculation        ...        2.688 sec (=   0.045 min)   0.9 %
SCF iterations                  ...      283.204 sec (=   4.720 min)  99.1 %
                             ****ORCA TERMINATED NORMALLY****
TOTAL RUN TIME: 0 days 0 hours 4 minutes 47 seconds 206 msec
