
                                 *****************
                                 * O   R   C   A *
                                 *****************

                                            #,                                       
                                            ###                                      
                                            ####                                     
                                            #####                                    
                                            ######                                   
                                           ########,                                 
                                     ,,################,,,,,                         
                               ,,#################################,,                 
                          ,,##########################################,,             
                       ,#########################################, ''#####,          
                    ,#############################################,,   '####,        
                  ,##################################################,,,,####,       
                ,###########''''           ''''###############################       
              ,#####''   ,,,,##########,,,,          '''####'''          '####       
            ,##' ,,,,###########################,,,                        '##       
           ' ,,###''''                  '''############,,,                           
         ,,##''                                '''############,,,,        ,,,,,,###''
      ,#''                                            '''#######################'''  
     '                                                          ''''####''''         
             ,#######,   #######,   ,#######,      ##                                
            ,#'     '#,  ##    ##  ,#'     '#,    #''#        ######   ,####,        
            ##       ##  ##   ,#'  ##            #'  '#       #        #'  '#        
            ##       ##  #######   ##           ,######,      #####,   #    #        
            '#,     ,#'  ##    ##  '#,     ,#' ,#      #,         ##   #,  ,#        
             '#######'   ##     ##  '#######'  #'      '#     #####' # '####'        



                  #######################################################
                  #                        -***-                        #
                  #          Department of theory and spectroscopy      #
                  #    Directorship and core code : Frank Neese         #
                  #        Max Planck Institute fuer Kohlenforschung    #
                  #                Kaiser Wilhelm Platz 1               #
                  #                 D-45470 Muelheim/Ruhr               #
                  #                      Germany                        #
                  #                                                     #
                  #                  All rights reserved                #
                  #                        -***-                        #
                  #######################################################


                         Program Version 5.0.3 -  RELEASE  -


 With contributions from (in alphabetic order):
   Daniel Aravena         : Magnetic Suceptibility
   Michael Atanasov       : Ab Initio Ligand Field Theory (pilot matlab implementation)
   Alexander A. Auer      : GIAO ZORA, VPT2 properties, NMR spectrum
   Ute Becker             : Parallelization
   Giovanni Bistoni       : ED, misc. LED, open-shell LED, HFLD
   Martin Brehm           : Molecular dynamics
   Dmytro Bykov           : SCF Hessian
   Vijay G. Chilkuri      : MRCI spin determinant printing, contributions to CSF-ICE
   Dipayan Datta          : RHF DLPNO-CCSD density
   Achintya Kumar Dutta   : EOM-CC, STEOM-CC
   Dmitry Ganyushin       : Spin-Orbit,Spin-Spin,Magnetic field MRCI
   Miquel Garcia          : C-PCM and meta-GGA Hessian, CC/C-PCM, Gaussian charge scheme
   Yang Guo               : DLPNO-NEVPT2, F12-NEVPT2, CIM, IAO-localization
   Andreas Hansen         : Spin unrestricted coupled pair/coupled cluster methods
   Benjamin Helmich-Paris : MC-RPA, TRAH-SCF, COSX integrals
   Lee Huntington         : MR-EOM, pCC
   Robert Izsak           : Overlap fitted RIJCOSX, COSX-SCS-MP3, EOM
   Marcus Kettner         : VPT2
   Christian Kollmar      : KDIIS, OOCD, Brueckner-CCSD(T), CCSD density, CASPT2, CASPT2-K
   Simone Kossmann        : Meta GGA functionals, TD-DFT gradient, OOMP2, MP2 Hessian
   Martin Krupicka        : Initial AUTO-CI
   Lucas Lang             : DCDCAS
   Marvin Lechner         : AUTO-CI (C++ implementation), FIC-MRCC
   Dagmar Lenk            : GEPOL surface, SMD
   Dimitrios Liakos       : Extrapolation schemes; Compound Job, initial MDCI parallelization
   Dimitrios Manganas     : Further ROCIS development; embedding schemes
   Dimitrios Pantazis     : SARC Basis sets
   Anastasios Papadopoulos: AUTO-CI, single reference methods and gradients
   Taras Petrenko         : DFT Hessian,TD-DFT gradient, ASA, ECA, R-Raman, ABS, FL, XAS/XES, NRVS
   Peter Pinski           : DLPNO-MP2, DLPNO-MP2 Gradient
   Christoph Reimann      : Effective Core Potentials
   Marius Retegan         : Local ZFS, SOC
   Christoph Riplinger    : Optimizer, TS searches, QM/MM, DLPNO-CCSD(T), (RO)-DLPNO pert. Triples
   Tobias Risthaus        : Range-separated hybrids, TD-DFT gradient, RPA, STAB
   Michael Roemelt        : Original ROCIS implementation
   Masaaki Saitow         : Open-shell DLPNO-CCSD energy and density
   Barbara Sandhoefer     : DKH picture change effects
   Avijit Sen             : IP-ROCIS
   Kantharuban Sivalingam : CASSCF convergence, NEVPT2, FIC-MRCI
   Bernardo de Souza      : ESD, SOC TD-DFT
   Georgi Stoychev        : AutoAux, RI-MP2 NMR, DLPNO-MP2 response
   Willem Van den Heuvel  : Paramagnetic NMR
   Boris Wezisla          : Elementary symmetry handling
   Frank Wennmohs         : Technical directorship


 We gratefully acknowledge several colleagues who have allowed us to
 interface, adapt or use parts of their codes:
   Stefan Grimme, W. Hujo, H. Kruse, P. Pracht,  : VdW corrections, initial TS optimization,
                  C. Bannwarth, S. Ehlert          DFT functionals, gCP, sTDA/sTD-DF
   Ed Valeev, F. Pavosevic, A. Kumar             : LibInt (2-el integral package), F12 methods
   Garnet Chan, S. Sharma, J. Yang, R. Olivares  : DMRG
   Ulf Ekstrom                                   : XCFun DFT Library
   Mihaly Kallay                                 : mrcc  (arbitrary order and MRCC methods)
   Jiri Pittner, Ondrej Demel                    : Mk-CCSD
   Frank Weinhold                                : gennbo (NPA and NBO analysis)
   Christopher J. Cramer and Donald G. Truhlar   : smd solvation model
   Lars Goerigk                                  : TD-DFT with DH, B97 family of functionals
   V. Asgeirsson, H. Jonsson                     : NEB implementation
   FAccTs GmbH                                   : IRC, NEB, NEB-TS, DLPNO-Multilevel, CI-OPT
                                                   MM, QMMM, 2- and 3-layer-ONIOM, Crystal-QMMM,
                                                   LR-CPCM, SF, NACMEs, symmetry and pop. for TD-DFT,
                                                   nearIR, NL-DFT gradient (VV10), updates on ESD,
                                                   ML-optimized integration grids
   S Lehtola, MJT Oliveira, MAL Marques          : LibXC Library
   Liviu Ungur et al                             : ANISO software


 Your calculation uses the libint2 library for the computation of 2-el integrals
 For citations please refer to: http://libint.valeyev.net

 Your ORCA version has been built with support for libXC version: 5.1.0
 For citations please refer to: https://tddft.org/programs/libxc/

 This ORCA versions uses:
   CBLAS   interface :  Fast vector & matrix operations
   LAPACKE interface :  Fast linear algebra routines
   SCALAPACK package :  Parallel linear algebra routines
   Shared memory     :  Shared parallel matrices
   BLAS/LAPACK       :  OpenBLAS 0.3.15  USE64BITINT DYNAMIC_ARCH NO_AFFINITY Haswell SINGLE_THREADED
        Core in use  :  Haswell
   Copyright (c) 2011-2014, The OpenBLAS Project




***************************************
The coordinates will be read from file: H3OpH2O3.xyz
***************************************


Your calculation utilizes the geometrical counterpoise correction gCP
Please cite in your paper:
H.Kruse, S. Grimme J.Chem.Phys., 136, (2012), 154101 
   

Your calculation utilizes the atom-pairwise dispersion correction
with the Becke-Johnson damping scheme (D3BJ)
Cite in your paper:
S.Grimme, S.Ehrlich, L.Goerigk, J Comput Chem, (2011), 32, 1456–1465 
S.Grimme, J.Antony, S.Ehrlich and H.Krieg, J.Chem.Phys., 132, (2010), 154104 
   

Your calculation employs the composite approach PBEh-3c.
Please cite in your paper:
S. Grimme, J. G. Brandenburg, C. Bannwarth, A. Hansen J.Chem.Phys., 143, (2015), 054107 
   

================================================================================

----- Orbital basis set information -----
Your calculation utilizes the basis: def2-mSVP

----- AuxJ basis set information -----
Your calculation utilizes the auxiliary basis: def2/J
   F. Weigend, Phys. Chem. Chem. Phys. 8, 1057 (2006).

================================================================================
                                        WARNINGS
                       Please study these warnings very carefully!
================================================================================


INFO   : the flag for use of the SHARK integral package has been found!

================================================================================
                                       INPUT FILE
================================================================================
NAME = pbeh-3c.inp
|  1> ! PBEh-3c def2/J TightSCF DefGrid3
|  2> 
|  3> %maxcore 60000
|  4> 
|  5> %pal
|  6> nprocs 4
|  7> end
|  8> 
|  9> *xyzfile 1 1 H3OpH2O3.xyz
| 10> 
| 11>                          ****END OF INPUT****
================================================================================

                       ****************************
                       * Single Point Calculation *
                       ****************************

---------------------------------
CARTESIAN COORDINATES (ANGSTROEM)
---------------------------------
  O      0.448855    2.450661   -0.112838
  H      0.536564    3.108236    0.585837
  H      0.958737    2.767861   -0.865725
  O     -2.346762   -0.836610   -0.112838
  H     -2.876406   -0.553640   -0.865725
  H     -2.960094   -1.089440    0.585837
  O      1.897907   -1.614050   -0.112838
  H      2.423529   -2.018797    0.585837
  H      1.917669   -2.214221   -0.865725
  O      0.000000    0.000000    0.498037
  H      0.720674   -0.658645    0.226714
  H      0.210067    0.953444    0.226714
  H     -0.930740   -0.294799    0.226714

----------------------------
CARTESIAN COORDINATES (A.U.)
----------------------------
  NO LB      ZA    FRAG     MASS         X           Y           Z
   0 O     8.0000    0    15.999    0.848213    4.631078   -0.213233
   1 H     1.0000    0     1.008    1.013960    5.873716    1.107071
   2 H     1.0000    0     1.008    1.811750    5.230499   -1.635983
   3 O     8.0000    0    15.999   -4.434738   -1.580965   -0.213233
   4 H     1.0000    0     1.008   -5.435620   -1.046228   -1.635983
   5 H     1.0000    0     1.008   -5.593767   -2.058743    1.107071
   6 O     8.0000    0    15.999    3.586524   -3.050113   -0.213233
   7 H     1.0000    0     1.008    4.579807   -3.814973    1.107071
   8 H     1.0000    0     1.008    3.623870   -4.184271   -1.635983
   9 O     8.0000    0    15.999    0.000000    0.000000    0.941154
  10 H     1.0000    0     1.008    1.361876   -1.244659    0.428427
  11 H     1.0000    0     1.008    0.396968    1.801749    0.428427
  12 H     1.0000    0     1.008   -1.758844   -0.557090    0.428427

--------------------------------
INTERNAL COORDINATES (ANGSTROEM)
--------------------------------
 O      0   0   0     0.000000000000     0.00000000     0.00000000
 H      1   0   0     0.963454547144     0.00000000     0.00000000
 H      1   2   0     0.963033588164   107.09333622     0.00000000
 O      1   2   3     4.315278799918   125.37338687   191.37531767
 H      4   1   2     0.963033588987    97.61189269   114.85986965
 H      4   1   2     0.963454509747   127.75731415   356.26703758
 O      4   1   2     4.315278718688    59.99999987   242.79221702
 H      7   4   1     0.963454539284   127.75731877   113.47481638
 H      7   4   1     0.963033569607    97.61190073   232.06765548
 O      7   4   1     2.565224845345    32.74235528    26.12248692
 H     10   7   4     1.013311678909     2.64493879   340.61051934
 H     10   7   4     1.013311666493   112.01744769   225.77579167
 H     10   7   4     1.013311604339   115.64257048   357.35815003

---------------------------
INTERNAL COORDINATES (A.U.)
---------------------------
 O      0   0   0     0.000000000000     0.00000000     0.00000000
 H      1   0   0     1.820665236583     0.00000000     0.00000000
 H      1   2   0     1.819869739397   107.09333622     0.00000000
 O      1   2   3     8.154695123361   125.37338687   191.37531767
 H      4   1   2     1.819869740953    97.61189269   114.85986965
 H      4   1   2     1.820665165913   127.75731415   356.26703758
 O      4   1   2     8.154694969859    59.99999987   242.79221702
 H      7   4   1     1.820665221730   127.75731877   113.47481638
 H      7   4   1     1.819869704331    97.61190073   232.06765548
 O      7   4   1     4.847572429632    32.74235528    26.12248692
 H     10   7   4     1.914881561441     2.64493879   340.61051934
 H     10   7   4     1.914881537978   112.01744769   225.77579167
 H     10   7   4     1.914881420525   115.64257048   357.35815003

---------------------
BASIS SET INFORMATION
---------------------
There are 2 groups of distinct atoms

 Group   1 Type O   : 8s4p1d contracted to 4s2p1d pattern {5111/31/1}
 Group   2 Type H   : 4s contracted to 2s pattern {31}

Atom   0O    basis set group =>   1
Atom   1H    basis set group =>   2
Atom   2H    basis set group =>   2
Atom   3O    basis set group =>   1
Atom   4H    basis set group =>   2
Atom   5H    basis set group =>   2
Atom   6O    basis set group =>   1
Atom   7H    basis set group =>   2
Atom   8H    basis set group =>   2
Atom   9O    basis set group =>   1
Atom  10H    basis set group =>   2
Atom  11H    basis set group =>   2
Atom  12H    basis set group =>   2
---------------------------------
AUXILIARY/J BASIS SET INFORMATION
---------------------------------
There are 2 groups of distinct atoms

 Group   1 Type O   : 12s5p4d2f1g contracted to 6s4p3d1f1g pattern {711111/2111/211/2/1}
 Group   2 Type H   : 5s2p1d contracted to 3s1p1d pattern {311/2/1}

Atom   0O    basis set group =>   1
Atom   1H    basis set group =>   2
Atom   2H    basis set group =>   2
Atom   3O    basis set group =>   1
Atom   4H    basis set group =>   2
Atom   5H    basis set group =>   2
Atom   6O    basis set group =>   1
Atom   7H    basis set group =>   2
Atom   8H    basis set group =>   2
Atom   9O    basis set group =>   1
Atom  10H    basis set group =>   2
Atom  11H    basis set group =>   2
Atom  12H    basis set group =>   2


           ************************************************************
           *        Program running with 4 parallel MPI-processes     *
           *              working on a common directory               *
           ************************************************************
------------------------------------------------------------------------------
                           ORCA GTO INTEGRAL CALCULATION
                           -- RI-GTO INTEGRALS CHOSEN --
------------------------------------------------------------------------------
------------------------------------------------------------------------------
                   ___                                                        
                  /   \      - P O W E R E D   B Y -                         
                 /     \                                                     
                 |  |  |   _    _      __       _____    __    __             
                 |  |  |  | |  | |    /  \     |  _  \  |  |  /  |          
                  \  \/   | |  | |   /    \    | | | |  |  | /  /          
                 / \  \   | |__| |  /  /\  \   | |_| |  |  |/  /          
                |  |  |   |  __  | /  /__\  \  |    /   |      \           
                |  |  |   | |  | | |   __   |  |    \   |  |\   \          
                \     /   | |  | | |  |  |  |  | |\  \  |  | \   \       
                 \___/    |_|  |_| |__|  |__|  |_| \__\ |__|  \__/        
                                                                              
                      - O R C A' S   B I G   F R I E N D -                    
                                      &                                       
                       - I N T E G R A L  F E E D E R -                       
                                                                              
 v1 FN, 2020, v2 2021                                                         
------------------------------------------------------------------------------


Reading SHARK input file pbeh-3c.SHARKINP.tmp ... ok
----------------------
SHARK INTEGRAL PACKAGE
----------------------

Number of atoms                             ...     13
Number of basis functions                   ...     78
Number of shells                            ...     46
Maximum angular momentum                    ...      2
Integral batch strategy                     ... SHARK/LIBINT Hybrid
RI-J (if used) integral strategy            ... SPLIT-RIJ (Revised 2003 algorithm where possible)
Printlevel                                  ...      1
Contraction scheme used                     ... SEGMENTED contraction
Coulomb Range Separation                    ... NOT USED
Exchange Range Separation                   ... NOT USED
Finite Nucleus Model                        ... NOT USED
Auxiliary Coulomb fitting basis             ... AVAILABLE
   # of basis functions in Aux-J            ...    295
   # of shells in Aux-J                     ...    105
   Maximum angular momentum in Aux-J        ...      4
Auxiliary J/K fitting basis                 ... NOT available
Auxiliary Correlation fitting basis         ... NOT available
Auxiliary 'external' fitting basis          ... NOT available
Integral threshold                          ...     2.500000e-11
Primitive cut-off                           ...     2.500000e-12
Primitive pair pre-selection threshold      ...     2.500000e-12

Calculating pre-screening integrals         ... done (  0.1 sec) Dimension = 46
Organizing shell pair data                  ... done (  0.0 sec)
Shell pair information
Total number of shell pairs                 ...      1081
Shell pairs after pre-screening             ...       934
Total number of primitive shell pairs       ...      3995
Primitive shell pairs kept                  ...      2531
          la=0 lb=0:    508 shell pairs
          la=1 lb=0:    242 shell pairs
          la=1 lb=1:     33 shell pairs
          la=2 lb=0:    109 shell pairs
          la=2 lb=1:     32 shell pairs
          la=2 lb=2:     10 shell pairs

Calculating one electron integrals          ... done (  0.0 sec)
Calculating RI/J V-Matrix + Cholesky decomp.... done (  0.3 sec)
Calculating Nuclear repulsion               ... done (  0.1 sec) ENN=    143.115550770476 Eh

SHARK setup successfully completed in   1.2 seconds

Maximum memory used throughout the entire GTOINT-calculation: 9.6 MB


           ************************************************************
           *        Program running with 4 parallel MPI-processes     *
           *              working on a common directory               *
           ************************************************************
-------------------------------------------------------------------------------
                                 ORCA SCF
-------------------------------------------------------------------------------

------------
SCF SETTINGS
------------
Hamiltonian:
 Density Functional     Method          .... DFT(GTOs)
 Exchange Functional    Exchange        .... PBE
   PBE kappa parameter   XKappa         ....  1.024500
   PBE mue parameter    XMuePBE         ....  0.123457
 Correlation Functional Correlation     .... PBE
   PBE beta parameter  CBetaPBE         ....  0.030000
 LDA part of GGA corr.  LDAOpt          .... PW91-LDA
 Gradients option       PostSCFGGA      .... off
 Hybrid DFT is turned on
   Fraction HF Exchange ScalHFX         ....  0.420000
   Scaling of DF-GGA-X  ScalDFX         ....  0.580000
   Scaling of DF-GGA-C  ScalDFC         ....  1.000000
   Scaling of DF-LDA-C  ScalLDAC        ....  1.000000
   Perturbative correction              ....  0.000000
   Density functional embedding theory  .... OFF
 RI-approximation to the Coulomb term is turned on
   Number of AuxJ basis functions       .... 295
   RIJ-ON(X) (HFX calculated with O(N)) .... on
   Number of AuxJ basis functions       .... 295
   RIJ-COSX (HFX calculated with COS-X)).... on


General Settings:
 Integral files         IntName         .... pbeh-3c
 Hartree-Fock type      HFTyp           .... RHF
 Total Charge           Charge          ....    1
 Multiplicity           Mult            ....    1
 Number of Electrons    NEL             ....   40
 Basis Dimension        Dim             ....   78
 Nuclear Repulsion      ENuc            ....    143.1155507705 Eh

Convergence Acceleration:
 DIIS                   CNVDIIS         .... on
   Start iteration      DIISMaxIt       ....    12
   Startup error        DIISStart       ....  0.200000
   # of expansion vecs  DIISMaxEq       ....     5
   Bias factor          DIISBfac        ....   1.050
   Max. coefficient     DIISMaxC        ....  10.000
 Trust-Rad. Augm. Hess. CNVTRAH         .... auto
   Auto Start mean grad. ratio tolernc. ....  1.125000
   Auto Start start iteration           ....    20
   Auto Start num. interpolation iter.  ....    10
   Max. Number of Micro iterations      ....    16
   Max. Number of Macro iterations      .... Maxiter - #DIIS iter
   Number of Davidson start vectors     ....     2
   Converg. threshold I  (grad. norm)   ....   1.000e-05
   Converg. threshold II (energy diff.) ....   1.000e-08
   Grad. Scal. Fac. for Micro threshold ....   0.100
   Minimum threshold for Micro iter.    ....   0.010
   NR start threshold (gradient norm)   ....   0.001
   Initial trust radius                 ....   0.400
   Minimum AH scaling param. (alpha)    ....   1.000
   Maximum AH scaling param. (alpha)    .... 1000.000
   Orbital update algorithm             .... Taylor
   White noise on init. David. guess    .... on
   Maximum white noise                  ....   0.010
   Quad. conv. algorithm                .... NR
   COSX micro iterations for RIJONX calc.... off
 SOSCF                  CNVSOSCF        .... on
   Start iteration      SOSCFMaxIt      ....   150
   Startup grad/error   SOSCFStart      ....  0.003300
 Level Shifting         CNVShift        .... on
   Level shift para.    LevelShift      ....    0.2500
   Turn off err/grad.   ShiftErr        ....    0.0010
 Zerner damping         CNVZerner       .... off
 Static damping         CNVDamp         .... on
   Fraction old density DampFac         ....    0.7000
   Max. Damping (<1)    DampMax         ....    0.9800
   Min. Damping (>=0)   DampMin         ....    0.0000
   Turn off err/grad.   DampErr         ....    0.1000
 Fernandez-Rico         CNVRico         .... off

SCF Procedure:
 Maximum # iterations   MaxIter         ....   125
 SCF integral mode      SCFMode         .... Direct
   Integral package                     .... SHARK and LIBINT hybrid scheme
 Reset frequency        DirectResetFreq ....    20
 Integral Threshold     Thresh          ....  2.500e-11 Eh
 Primitive CutOff       TCut            ....  2.500e-12 Eh

Convergence Tolerance:
 Convergence Check Mode ConvCheckMode   .... Total+1el-Energy
 Convergence forced     ConvForced      .... 0
 Energy Change          TolE            ....  1.000e-08 Eh
 1-El. energy change                    ....  1.000e-05 Eh
 Orbital Gradient       TolG            ....  1.000e-05
 Orbital Rotation angle TolX            ....  1.000e-05
 DIIS Error             TolErr          ....  5.000e-07


Diagonalization of the overlap matrix:
Smallest eigenvalue                        ... 2.898e-02
Time for diagonalization                   ...    0.001 sec
Threshold for overlap eigenvalues          ... 1.000e-08
Number of eigenvalues below threshold      ... 0
Time for construction of square roots      ...    0.239 sec
Total time needed                          ...    0.241 sec

--------------------------------
INITIAL GUESS: MINIMAL BASIS EHT
--------------------------------
The minimal basis has 29 functions
EHT matrix was diagonalized
Basis set overlap was calculated now projecting the orbitals
Using GuessMode=FMatrix for the initial guess
C*T matrix was formed
Effective Fockian was calculated
Effective Fockian was diagonalized
Initial density was built
                      ------------------
                      INITIAL GUESS DONE
                      ------------------
-------------------
DFT GRID GENERATION
-------------------

General Integration Accuracy     IntAcc      ... 4.959
Radial Grid Type                 RadialGrid  ... OptM3 with GC (2021)
Angular Grid (max. ang.)         AngularGrid ... 6 (Lebedev-590)
Angular grid pruning method      GridPruning ... 4 (adaptive)
Weight generation scheme         WeightScheme... Becke
Basis function cutoff            BFCut       ... 1.0000e-11
Integration weight cutoff        WCut        ... 1.0000e-14
Angular grids for H and He will be reduced by one unit
Partially contracted basis set               ... off
Rotationally invariant grid construction     ... off

Total number of grid points                  ...   138462
Total number of batches                      ...     2169
Average number of points per batch           ...       63
Average number of grid points per atom       ...    10651
Time for grid setup =    3.205 sec

--------------------
COSX GRID GENERATION
--------------------

GRIDX 1
-------
General Integration Accuracy     IntAcc      ... 4.020
Radial Grid Type                 RadialGrid  ... OptM3 with GC (2021)
Angular Grid (max. ang.)         AngularGrid ... 2 (Lebedev-110)
Angular grid pruning method      GridPruning ... 4 (adaptive)
Weight generation scheme         WeightScheme... Becke
Basis function cutoff            BFCut       ... 1.0000e-11
Integration weight cutoff        WCut        ... 1.0000e-14
Angular grids for H and He will be reduced by one unit
Partially contracted basis set               ... on
Rotationally invariant grid construction     ... off

Total number of grid points                  ...    14520
Total number of batches                      ...      235
Average number of points per batch           ...       61
Average number of grid points per atom       ...     1117
UseSFitting                                  ... on

GRIDX 2
-------
General Integration Accuracy     IntAcc      ... 4.338
Radial Grid Type                 RadialGrid  ... OptM3 with GC (2021)
Angular Grid (max. ang.)         AngularGrid ... 3 (Lebedev-194)
Angular grid pruning method      GridPruning ... 4 (adaptive)
Weight generation scheme         WeightScheme... Becke
Basis function cutoff            BFCut       ... 1.0000e-11
Integration weight cutoff        WCut        ... 1.0000e-14
Angular grids for H and He will be reduced by one unit
Partially contracted basis set               ... on
Rotationally invariant grid construction     ... off

Total number of grid points                  ...    31809
Total number of batches                      ...      503
Average number of points per batch           ...       63
Average number of grid points per atom       ...     2447
UseSFitting                                  ... on

GRIDX 3
-------
General Integration Accuracy     IntAcc      ... 4.871
Radial Grid Type                 RadialGrid  ... OptM3 with GC (2021)
Angular Grid (max. ang.)         AngularGrid ... 4 (Lebedev-302)
Angular grid pruning method      GridPruning ... 4 (adaptive)
Weight generation scheme         WeightScheme... Becke
Basis function cutoff            BFCut       ... 1.0000e-11
Integration weight cutoff        WCut        ... 1.0000e-14
Angular grids for H and He will be reduced by one unit
Partially contracted basis set               ... on
Rotationally invariant grid construction     ... off

Total number of grid points                  ...    64297
Total number of batches                      ...     1012
Average number of points per batch           ...       63
Average number of grid points per atom       ...     4946
UseSFitting                                  ... on

Time for X-Grid setup             =    4.586 sec

--------------
SCF ITERATIONS
--------------
ITER       Energy         Delta-E        Max-DP      RMS-DP      [F,P]     Damp
               ***  Starting incremental Fock matrix formation  ***
  0   -304.7387594079   0.000000000000 0.14961119  0.00675568  0.4487687 0.7000
  1   -304.9953917863  -0.256632378362 0.08528926  0.00406831  0.2350030 0.7000
                               ***Turning on DIIS***
  2   -305.1393655200  -0.143973733709 0.05303477  0.00241526  0.1538922 0.7000
  3   -305.2373010379  -0.097935517922 0.03555715  0.00155817  0.1049424 0.7000
  4   -305.3069681893  -0.069667151354 0.09100628  0.00402669  0.0775552 0.0000
  5   -305.4757431517  -0.168774962432 0.00857584  0.00041973  0.0102244 0.0000
  6   -305.4760510776  -0.000307925914 0.00228205  0.00011298  0.0044986 0.0000
                      *** Initiating the SOSCF procedure ***
                           *** Shutting down DIIS ***
                      *** Re-Reading the Fockian *** 
                      *** Removing any level shift *** 
ITER      Energy       Delta-E        Grad      Rot      Max-DP    RMS-DP
  7   -305.47611130  -0.0000602183  0.000531  0.000531  0.000946  0.000071
               *** Restarting incremental Fock matrix formation ***
  8   -305.47612629  -0.0000149932  0.000067  0.000100  0.000196  0.000010
  9   -305.47612636  -0.0000000729  0.000063  0.000031  0.000104  0.000004
 10   -305.47612640  -0.0000000419  0.000007  0.000003  0.000015  0.000001
 11   -305.47612640   0.0000000001  0.000003  0.000002  0.000006  0.000000
                  ***Gradient check signals convergence***
              ***Rediagonalizing the Fockian in SOSCF/NRSCF***

               *****************************************************
               *                     SUCCESS                       *
               *           SCF CONVERGED AFTER  12 CYCLES          *
               *****************************************************

Old exchange energy                            =    -15.068523627 Eh
New exchange energy                            =    -15.068530533 Eh
Exchange energy change after final integration =     -0.000006906 Eh
Total energy after final integration           =   -305.476133312 Eh
Final COS-X integration done in                =     1.452 sec

----------------
TOTAL SCF ENERGY
----------------

Total Energy       :         -305.47613331 Eh           -8312.42818 eV

Components:
Nuclear Repulsion  :          143.11555077 Eh            3894.37212 eV
Electronic Energy  :         -448.59168408 Eh          -12206.80031 eV
One Electron Energy:         -697.30320177 Eh          -18974.58477 eV
Two Electron Energy:          248.71151769 Eh            6767.78446 eV
Max COSX asymmetry :            0.00000077 Eh               0.00002 eV

Virial components:
Potential Energy   :         -609.06071247 Eh          -16573.38456 eV
Kinetic Energy     :          303.58457915 Eh            8260.95638 eV
Virial Ratio       :            2.00623073


DFT components:
N(Alpha)           :       20.000000284551 electrons
N(Beta)            :       20.000000284551 electrons
N(Total)           :       40.000000569102 electrons
E(X)               :      -20.082023830795 Eh       
E(C)               :       -1.783246394270 Eh       
E(XC)              :      -21.865270225065 Eh       
DFET-embed. en.    :        0.000000000000 Eh       

---------------
SCF CONVERGENCE
---------------

  Last Energy change         ...   -2.5424e-09  Tolerance :   1.0000e-08
  Last MAX-Density change    ...    8.6042e-16  Tolerance :   1.0000e-07
  Last RMS-Density change    ...    5.7731e-17  Tolerance :   5.0000e-09
  Last Orbital Gradient      ...    1.0398e-06  Tolerance :   1.0000e-05
  Last Orbital Rotation      ...    7.0670e-07  Tolerance :   1.0000e-05

             **** THE GBW FILE WAS UPDATED (pbeh-3c.gbw) ****
             **** DENSITY pbeh-3c.scfp WAS UPDATED ****
             **** ENERGY FILE WAS UPDATED (pbeh-3c.en.tmp) ****
             **** THE GBW FILE WAS UPDATED (pbeh-3c.gbw) ****
             **** DENSITY pbeh-3c.scfp WAS UPDATED ****
----------------
ORBITAL ENERGIES
----------------

  NO   OCC          E(Eh)            E(eV) 
   0   2.0000     -19.718445      -536.5662 
   1   2.0000     -19.677552      -535.4534 
   2   2.0000     -19.677551      -535.4534 
   3   2.0000     -19.677526      -535.4527 
   4   2.0000      -1.359522       -36.9945 
   5   2.0000      -1.300871       -35.3985 
   6   2.0000      -1.300871       -35.3985 
   7   2.0000      -1.295452       -35.2510 
   8   2.0000      -0.829773       -22.5793 
   9   2.0000      -0.829773       -22.5793 
  10   2.0000      -0.780324       -21.2337 
  11   2.0000      -0.779863       -21.2212 
  12   2.0000      -0.779862       -21.2211 
  13   2.0000      -0.673921       -18.3383 
  14   2.0000      -0.631920       -17.1954 
  15   2.0000      -0.631919       -17.1954 
  16   2.0000      -0.612890       -16.6776 
  17   2.0000      -0.561028       -15.2663 
  18   2.0000      -0.558736       -15.2040 
  19   2.0000      -0.558733       -15.2039 
  20   0.0000      -0.054219        -1.4754 
  21   0.0000      -0.031347        -0.8530 
  22   0.0000      -0.031347        -0.8530 
  23   0.0000       0.049417         1.3447 
  24   0.0000       0.049490         1.3467 
  25   0.0000       0.049490         1.3467 
  26   0.0000       0.073631         2.0036 
  27   0.0000       0.186703         5.0804 
  28   0.0000       0.186703         5.0805 
  29   0.0000       0.637390        17.3443 
  30   0.0000       0.639569        17.4036 
  31   0.0000       0.639570        17.4036 
  32   0.0000       0.668663        18.1952 
  33   0.0000       0.700594        19.0641 
  34   0.0000       0.700594        19.0641 
  35   0.0000       0.783876        21.3303 
  36   0.0000       0.787220        21.4213 
  37   0.0000       0.787223        21.4214 
  38   0.0000       0.803358        21.8605 
  39   0.0000       0.824376        22.4324 
  40   0.0000       0.840527        22.8719 
  41   0.0000       0.840528        22.8719 
  42   0.0000       0.977239        26.5920 
  43   0.0000       0.977242        26.5921 
  44   0.0000       1.019454        27.7407 
  45   0.0000       1.025807        27.9136 
  46   0.0000       1.032456        28.0946 
  47   0.0000       1.032457        28.0946 
  48   0.0000       1.144180        31.1347 
  49   0.0000       1.144187        31.1349 
  50   0.0000       1.527149        41.5558 
  51   0.0000       1.539551        41.8933 
  52   0.0000       1.539563        41.8936 
  53   0.0000       1.600520        43.5524 
  54   0.0000       1.600522        43.5524 
  55   0.0000       1.600993        43.5652 
  56   0.0000       1.608183        43.7609 
  57   0.0000       1.609627        43.8002 
  58   0.0000       1.609630        43.8003 
  59   0.0000       1.629288        44.3352 
  60   0.0000       1.629291        44.3353 
  61   0.0000       1.638633        44.5895 
  62   0.0000       1.698088        46.2073 
  63   0.0000       1.746991        47.5380 
  64   0.0000       1.746995        47.5382 
  65   0.0000       2.224028        60.5189 
  66   0.0000       2.228274        60.6344 
  67   0.0000       2.228281        60.6346 
  68   0.0000       2.477050        67.4040 
  69   0.0000       2.478140        67.4336 
  70   0.0000       2.478148        67.4338 
  71   0.0000       2.511301        68.3360 
  72   0.0000       2.665542        72.5331 
  73   0.0000       2.665554        72.5334 
  74   0.0000      25.046183       681.5413 
  75   0.0000      25.184883       685.3155 
  76   0.0000      25.184891       685.3157 
  77   0.0000      25.432978       692.0665 

                    ********************************
                    * MULLIKEN POPULATION ANALYSIS *
                    ********************************

-----------------------
MULLIKEN ATOMIC CHARGES
-----------------------
   0 O :   -0.835489
   1 H :    0.473335
   2 H :    0.471112
   3 O :   -0.835493
   4 H :    0.471117
   5 H :    0.473332
   6 O :   -0.835489
   7 H :    0.473329
   8 H :    0.471120
   9 O :   -0.876161
  10 H :    0.516423
  11 H :    0.516425
  12 H :    0.516438
Sum of atomic charges:    1.0000000

--------------------------------
MULLIKEN REDUCED ORBITAL CHARGES
--------------------------------
  0 O s       :     3.811310  s :     3.811310
      pz      :     1.450729  p :     5.001998
      px      :     1.868570
      py      :     1.682700
      dz2     :     0.000422  d :     0.022181
      dxz     :     0.005552
      dyz     :     0.009871
      dx2y2   :     0.003434
      dxy     :     0.002902
  1 H s       :     0.526665  s :     0.526665
  2 H s       :     0.528888  s :     0.528888
  3 O s       :     3.811312  s :     3.811312
      pz      :     1.450734  p :     5.001999
      px      :     1.637435
      py      :     1.913830
      dz2     :     0.000422  d :     0.022181
      dxz     :     0.013843
      dyz     :     0.001580
      dx2y2   :     0.003145
      dxy     :     0.003192
  4 H s       :     0.528883  s :     0.528883
  5 H s       :     0.526668  s :     0.526668
  6 O s       :     3.811311  s :     3.811311
      pz      :     1.450726  p :     5.001997
      px      :     1.820894
      py      :     1.730377
      dz2     :     0.000422  d :     0.022181
      dxz     :     0.003740
      dyz     :     0.011683
      dx2y2   :     0.002926
      dxy     :     0.003411
  7 H s       :     0.526671  s :     0.526671
  8 H s       :     0.528880  s :     0.528880
  9 O s       :     3.804029  s :     3.804029
      pz      :     1.936756  p :     5.051692
      px      :     1.557470
      py      :     1.557466
      dz2     :     0.001981  d :     0.020441
      dxz     :     0.004504
      dyz     :     0.004504
      dx2y2   :     0.004726
      dxy     :     0.004726
 10 H s       :     0.483577  s :     0.483577
 11 H s       :     0.483575  s :     0.483575
 12 H s       :     0.483562  s :     0.483562


                     *******************************
                     * LOEWDIN POPULATION ANALYSIS *
                     *******************************

----------------------
LOEWDIN ATOMIC CHARGES
----------------------
   0 O :   -0.547625
   1 H :    0.341239
   2 H :    0.339200
   3 O :   -0.547626
   4 H :    0.339202
   5 H :    0.341238
   6 O :   -0.547625
   7 H :    0.341236
   8 H :    0.339203
   9 O :   -0.440409
  10 H :    0.347321
  11 H :    0.347322
  12 H :    0.347324

-------------------------------
LOEWDIN REDUCED ORBITAL CHARGES
-------------------------------
  0 O s       :     3.549201  s :     3.549201
      pz      :     1.434613  p :     4.969497
      px      :     1.866364
      py      :     1.668520
      dz2     :     0.001131  d :     0.028927
      dxz     :     0.007036
      dyz     :     0.013518
      dx2y2   :     0.004293
      dxy     :     0.002949
  1 H s       :     0.658761  s :     0.658761
  2 H s       :     0.660800  s :     0.660800
  3 O s       :     3.549203  s :     3.549203
      pz      :     1.434616  p :     4.969497
      px      :     1.624772
      py      :     1.910108
      dz2     :     0.001131  d :     0.028927
      dxz     :     0.018656
      dyz     :     0.001898
      dx2y2   :     0.003252
      dxy     :     0.003990
  4 H s       :     0.660798  s :     0.660798
  5 H s       :     0.658762  s :     0.658762
  6 O s       :     3.549202  s :     3.549202
      pz      :     1.434612  p :     4.969496
      px      :     1.811186
      py      :     1.723698
      dz2     :     0.001131  d :     0.028927
      dxz     :     0.005139
      dyz     :     0.015415
      dx2y2   :     0.003318
      dxy     :     0.003924
  7 H s       :     0.658764  s :     0.658764
  8 H s       :     0.660797  s :     0.660797
  9 O s       :     3.484418  s :     3.484418
      pz      :     1.932345  p :     4.928632
      px      :     1.498144
      py      :     1.498143
      dz2     :     0.002260  d :     0.027359
      dxz     :     0.004864
      dyz     :     0.004864
      dx2y2   :     0.007686
      dxy     :     0.007686
 10 H s       :     0.652679  s :     0.652679
 11 H s       :     0.652678  s :     0.652678
 12 H s       :     0.652676  s :     0.652676


                      *****************************
                      * MAYER POPULATION ANALYSIS *
                      *****************************

  NA   - Mulliken gross atomic population
  ZA   - Total nuclear charge
  QA   - Mulliken gross atomic charge
  VA   - Mayer's total valence
  BVA  - Mayer's bonded valence
  FA   - Mayer's free valence

  ATOM       NA         ZA         QA         VA         BVA        FA
  0 O      8.8355     8.0000    -0.8355     1.7310     1.7310     0.0000
  1 H      0.5267     1.0000     0.4733     0.7604     0.7604     0.0000
  2 H      0.5289     1.0000     0.4711     0.7625     0.7625    -0.0000
  3 O      8.8355     8.0000    -0.8355     1.7310     1.7310    -0.0000
  4 H      0.5289     1.0000     0.4711     0.7625     0.7625    -0.0000
  5 H      0.5267     1.0000     0.4733     0.7604     0.7604    -0.0000
  6 O      8.8355     8.0000    -0.8355     1.7310     1.7310    -0.0000
  7 H      0.5267     1.0000     0.4733     0.7604     0.7604    -0.0000
  8 H      0.5289     1.0000     0.4711     0.7625     0.7625    -0.0000
  9 O      8.8762     8.0000    -0.8762     1.7153     1.7153     0.0000
 10 H      0.4836     1.0000     0.5164     0.7622     0.7622    -0.0000
 11 H      0.4836     1.0000     0.5164     0.7622     0.7622     0.0000
 12 H      0.4836     1.0000     0.5164     0.7622     0.7622    -0.0000

  Mayer bond orders larger than 0.100000
B(  0-O ,  1-H ) :   0.7586 B(  0-O ,  2-H ) :   0.7606 B(  0-O , 11-H ) :   0.2005 
B(  3-O ,  4-H ) :   0.7606 B(  3-O ,  5-H ) :   0.7586 B(  3-O , 12-H ) :   0.2005 
B(  6-O ,  7-H ) :   0.7586 B(  6-O ,  8-H ) :   0.7606 B(  6-O , 10-H ) :   0.2005 
B(  9-O , 10-H ) :   0.5565 B(  9-O , 11-H ) :   0.5565 B(  9-O , 12-H ) :   0.5565 


-------
TIMINGS
-------

Total SCF time: 0 days 0 hours 1 min 5 sec 

Total time                  ....      65.982 sec
Sum of individual times     ....      59.890 sec  ( 90.8%)

Fock matrix formation       ....      45.602 sec  ( 69.1%)
  Split-RI-J                ....       5.688 sec  ( 12.5% of F)
  Chain of spheres X        ....      11.276 sec  ( 24.7% of F)
  XC integration            ....      13.445 sec  ( 29.5% of F)
    Basis function eval.    ....       1.817 sec  ( 13.5% of XC)
    Density eval.           ....       0.792 sec  (  5.9% of XC)
    XC-Functional eval.     ....       1.376 sec  ( 10.2% of XC)
    XC-Potential eval.      ....       0.329 sec  (  2.5% of XC)
Diagonalization             ....       0.450 sec  (  0.7%)
Density matrix formation    ....       0.140 sec  (  0.2%)
Population analysis         ....       0.354 sec  (  0.5%)
Initial guess               ....       0.005 sec  (  0.0%)
Orbital Transformation      ....       0.000 sec  (  0.0%)
Orbital Orthonormalization  ....       0.000 sec  (  0.0%)
DIIS solution               ....       3.102 sec  (  4.7%)
SOSCF solution              ....       2.449 sec  (  3.7%)
Grid generation             ....       7.790 sec  ( 11.8%)

Maximum memory used throughout the entire SCF-calculation: 49.2 MB


-------------------------------------------------------------------------------
                          DFT DISPERSION CORRECTION                            
                                                                               
                              DFTD3 V3.1  Rev 1                                
                          USING Becke-Johnson damping                          
-------------------------------------------------------------------------------
The PBEh-3c composite method is recognized
Using three-body term ABC
Active option DFTDOPT                   ...         4   

molecular C6(AA) [au] = 807.073726 


            DFT-D V3
 parameters
 s6 scaling factor         :     1.0000 
 a1 scaling factor         :     0.4860 
 s8 scaling factor         :     0.0000 
 a2 scaling factor         :     4.5000 
 Damping factor alpha9(ATM):    16.0000 
 ad hoc parameters k1-k3   :    16.0000     1.3333    -4.0000 

 Edisp/kcal,au: -1.783896881332  -0.002842820331 
 E6   /kcal   :  -1.786805671 
 E8   /kcal   :  -0.000000000 
 E6(ABC)      :   0.002908789 
 % E8         :   0.000000000 
 % E6(ABC)    :  -0.163058158 

-------------------------   ----------------
Dispersion correction           -0.002842820
-------------------------   ----------------

------------------   -----------------
gCP correction             0.024183146
------------------   -----------------

-------------------------   --------------------
FINAL SINGLE POINT ENERGY      -305.454792987080
-------------------------   --------------------


                            ***************************************
                            *     ORCA property calculations      *
                            ***************************************

                                    ---------------------
                                    Active property flags
                                    ---------------------
   (+) Dipole Moment


------------------------------------------------------------------------------
                       ORCA ELECTRIC PROPERTIES CALCULATION
------------------------------------------------------------------------------

Dipole Moment Calculation                       ... on
Quadrupole Moment Calculation                   ... off
Polarizability Calculation                      ... off
GBWName                                         ... pbeh-3c.gbw
Electron density                                ... pbeh-3c.scfp
The origin for moment calculation is the CENTER OF MASS  = (-0.000000,  0.000000  0.061848)

-------------
DIPOLE MOMENT
-------------
                                X             Y             Z
Electronic contribution:     -0.00001       0.00001       0.10951
Nuclear contribution   :      0.00000       0.00000      -0.42558
                        -----------------------------------------
Total Dipole Moment    :     -0.00001       0.00001      -0.31608
                        -----------------------------------------
Magnitude (a.u.)       :      0.31608
Magnitude (Debye)      :      0.80341



--------------------
Rotational spectrum 
--------------------
 
Rotational constants in cm-1:     0.090447     0.090447     0.047241 
Rotational constants in MHz :  2711.522799  2711.522701  1416.254034 

 Dipole components along the rotational axes: 
x,y,z [a.u.] :     0.000000    -0.000013    -0.316078 
x,y,z [Debye]:     0.000001    -0.000032    -0.803407 

 

Timings for individual modules:

Sum of individual times         ...       68.658 sec (=   1.144 min)
GTO integral calculation        ...        1.630 sec (=   0.027 min)   2.4 %
SCF iterations                  ...       67.027 sec (=   1.117 min)  97.6 %
                             ****ORCA TERMINATED NORMALLY****
TOTAL RUN TIME: 0 days 0 hours 1 minutes 12 seconds 765 msec
