
                                 *****************
                                 * O   R   C   A *
                                 *****************

                                            #,                                       
                                            ###                                      
                                            ####                                     
                                            #####                                    
                                            ######                                   
                                           ########,                                 
                                     ,,################,,,,,                         
                               ,,#################################,,                 
                          ,,##########################################,,             
                       ,#########################################, ''#####,          
                    ,#############################################,,   '####,        
                  ,##################################################,,,,####,       
                ,###########''''           ''''###############################       
              ,#####''   ,,,,##########,,,,          '''####'''          '####       
            ,##' ,,,,###########################,,,                        '##       
           ' ,,###''''                  '''############,,,                           
         ,,##''                                '''############,,,,        ,,,,,,###''
      ,#''                                            '''#######################'''  
     '                                                          ''''####''''         
             ,#######,   #######,   ,#######,      ##                                
            ,#'     '#,  ##    ##  ,#'     '#,    #''#        ######   ,####,        
            ##       ##  ##   ,#'  ##            #'  '#       #        #'  '#        
            ##       ##  #######   ##           ,######,      #####,   #    #        
            '#,     ,#'  ##    ##  '#,     ,#' ,#      #,         ##   #,  ,#        
             '#######'   ##     ##  '#######'  #'      '#     #####' # '####'        



                  #######################################################
                  #                        -***-                        #
                  #          Department of theory and spectroscopy      #
                  #    Directorship and core code : Frank Neese         #
                  #        Max Planck Institute fuer Kohlenforschung    #
                  #                Kaiser Wilhelm Platz 1               #
                  #                 D-45470 Muelheim/Ruhr               #
                  #                      Germany                        #
                  #                                                     #
                  #                  All rights reserved                #
                  #                        -***-                        #
                  #######################################################


                         Program Version 5.0.3 -  RELEASE  -


 With contributions from (in alphabetic order):
   Daniel Aravena         : Magnetic Suceptibility
   Michael Atanasov       : Ab Initio Ligand Field Theory (pilot matlab implementation)
   Alexander A. Auer      : GIAO ZORA, VPT2 properties, NMR spectrum
   Ute Becker             : Parallelization
   Giovanni Bistoni       : ED, misc. LED, open-shell LED, HFLD
   Martin Brehm           : Molecular dynamics
   Dmytro Bykov           : SCF Hessian
   Vijay G. Chilkuri      : MRCI spin determinant printing, contributions to CSF-ICE
   Dipayan Datta          : RHF DLPNO-CCSD density
   Achintya Kumar Dutta   : EOM-CC, STEOM-CC
   Dmitry Ganyushin       : Spin-Orbit,Spin-Spin,Magnetic field MRCI
   Miquel Garcia          : C-PCM and meta-GGA Hessian, CC/C-PCM, Gaussian charge scheme
   Yang Guo               : DLPNO-NEVPT2, F12-NEVPT2, CIM, IAO-localization
   Andreas Hansen         : Spin unrestricted coupled pair/coupled cluster methods
   Benjamin Helmich-Paris : MC-RPA, TRAH-SCF, COSX integrals
   Lee Huntington         : MR-EOM, pCC
   Robert Izsak           : Overlap fitted RIJCOSX, COSX-SCS-MP3, EOM
   Marcus Kettner         : VPT2
   Christian Kollmar      : KDIIS, OOCD, Brueckner-CCSD(T), CCSD density, CASPT2, CASPT2-K
   Simone Kossmann        : Meta GGA functionals, TD-DFT gradient, OOMP2, MP2 Hessian
   Martin Krupicka        : Initial AUTO-CI
   Lucas Lang             : DCDCAS
   Marvin Lechner         : AUTO-CI (C++ implementation), FIC-MRCC
   Dagmar Lenk            : GEPOL surface, SMD
   Dimitrios Liakos       : Extrapolation schemes; Compound Job, initial MDCI parallelization
   Dimitrios Manganas     : Further ROCIS development; embedding schemes
   Dimitrios Pantazis     : SARC Basis sets
   Anastasios Papadopoulos: AUTO-CI, single reference methods and gradients
   Taras Petrenko         : DFT Hessian,TD-DFT gradient, ASA, ECA, R-Raman, ABS, FL, XAS/XES, NRVS
   Peter Pinski           : DLPNO-MP2, DLPNO-MP2 Gradient
   Christoph Reimann      : Effective Core Potentials
   Marius Retegan         : Local ZFS, SOC
   Christoph Riplinger    : Optimizer, TS searches, QM/MM, DLPNO-CCSD(T), (RO)-DLPNO pert. Triples
   Tobias Risthaus        : Range-separated hybrids, TD-DFT gradient, RPA, STAB
   Michael Roemelt        : Original ROCIS implementation
   Masaaki Saitow         : Open-shell DLPNO-CCSD energy and density
   Barbara Sandhoefer     : DKH picture change effects
   Avijit Sen             : IP-ROCIS
   Kantharuban Sivalingam : CASSCF convergence, NEVPT2, FIC-MRCI
   Bernardo de Souza      : ESD, SOC TD-DFT
   Georgi Stoychev        : AutoAux, RI-MP2 NMR, DLPNO-MP2 response
   Willem Van den Heuvel  : Paramagnetic NMR
   Boris Wezisla          : Elementary symmetry handling
   Frank Wennmohs         : Technical directorship


 We gratefully acknowledge several colleagues who have allowed us to
 interface, adapt or use parts of their codes:
   Stefan Grimme, W. Hujo, H. Kruse, P. Pracht,  : VdW corrections, initial TS optimization,
                  C. Bannwarth, S. Ehlert          DFT functionals, gCP, sTDA/sTD-DF
   Ed Valeev, F. Pavosevic, A. Kumar             : LibInt (2-el integral package), F12 methods
   Garnet Chan, S. Sharma, J. Yang, R. Olivares  : DMRG
   Ulf Ekstrom                                   : XCFun DFT Library
   Mihaly Kallay                                 : mrcc  (arbitrary order and MRCC methods)
   Jiri Pittner, Ondrej Demel                    : Mk-CCSD
   Frank Weinhold                                : gennbo (NPA and NBO analysis)
   Christopher J. Cramer and Donald G. Truhlar   : smd solvation model
   Lars Goerigk                                  : TD-DFT with DH, B97 family of functionals
   V. Asgeirsson, H. Jonsson                     : NEB implementation
   FAccTs GmbH                                   : IRC, NEB, NEB-TS, DLPNO-Multilevel, CI-OPT
                                                   MM, QMMM, 2- and 3-layer-ONIOM, Crystal-QMMM,
                                                   LR-CPCM, SF, NACMEs, symmetry and pop. for TD-DFT,
                                                   nearIR, NL-DFT gradient (VV10), updates on ESD,
                                                   ML-optimized integration grids
   S Lehtola, MJT Oliveira, MAL Marques          : LibXC Library
   Liviu Ungur et al                             : ANISO software


 Your calculation uses the libint2 library for the computation of 2-el integrals
 For citations please refer to: http://libint.valeyev.net

 Your ORCA version has been built with support for libXC version: 5.1.0
 For citations please refer to: https://tddft.org/programs/libxc/

 This ORCA versions uses:
   CBLAS   interface :  Fast vector & matrix operations
   LAPACKE interface :  Fast linear algebra routines
   SCALAPACK package :  Parallel linear algebra routines
   Shared memory     :  Shared parallel matrices
   BLAS/LAPACK       :  OpenBLAS 0.3.15  USE64BITINT DYNAMIC_ARCH NO_AFFINITY Haswell SINGLE_THREADED
        Core in use  :  Haswell
   Copyright (c) 2011-2014, The OpenBLAS Project




***************************************
The coordinates will be read from file: chdiene.xyz
***************************************


Your calculation utilizes the geometrical counterpoise correction gCP
Please cite in your paper:
H.Kruse, S. Grimme J.Chem.Phys., 136, (2012), 154101 
   

Your calculation utilizes the atom-pairwise dispersion correction
with the Becke-Johnson damping scheme (D3BJ)
Cite in your paper:
S.Grimme, S.Ehrlich, L.Goerigk, J Comput Chem, (2011), 32, 1456–1465 
S.Grimme, J.Antony, S.Ehrlich and H.Krieg, J.Chem.Phys., 132, (2010), 154104 
   

Your calculation employs the composite approach PBEh-3c.
Please cite in your paper:
S. Grimme, J. G. Brandenburg, C. Bannwarth, A. Hansen J.Chem.Phys., 143, (2015), 054107 
   

================================================================================

----- Orbital basis set information -----
Your calculation utilizes the basis: def2-mSVP

----- AuxJ basis set information -----
Your calculation utilizes the auxiliary basis: def2/J
   F. Weigend, Phys. Chem. Chem. Phys. 8, 1057 (2006).

================================================================================
                                        WARNINGS
                       Please study these warnings very carefully!
================================================================================


INFO   : the flag for use of the SHARK integral package has been found!

================================================================================
                                       INPUT FILE
================================================================================
NAME = pbeh-3c.inp
|  1> ! PBEh-3c def2/J TightSCF DefGrid3
|  2> 
|  3> %maxcore 60000
|  4> 
|  5> %pal
|  6> nprocs 4
|  7> end
|  8> 
|  9> *xyzfile 0 1 chdiene.xyz
| 10> 
| 11>                          ****END OF INPUT****
================================================================================

                       ****************************
                       * Single Point Calculation *
                       ****************************

---------------------------------
CARTESIAN COORDINATES (ANGSTROEM)
---------------------------------
  C     -1.413529    0.064733    0.234775
  C     -0.720395    0.112174    1.374950
  C      0.720395   -0.112174    1.374950
  C      1.413529   -0.064733    0.234775
  C      0.720903    0.247633   -1.058141
  C     -0.720903   -0.247633   -1.058141
  H     -2.491087    0.191819    0.236248
  H     -1.221750    0.292589    2.319814
  H      1.221750   -0.292589    2.319814
  H      2.491087   -0.191819    0.236248
  H      1.265838   -0.178348   -1.904132
  H      0.737373    1.338671   -1.203513
  H     -1.265838    0.178348   -1.904132
  H     -0.737373   -1.338671   -1.203513

----------------------------
CARTESIAN COORDINATES (A.U.)
----------------------------
  NO LB      ZA    FRAG     MASS         X           Y           Z
   0 C     6.0000    0    12.011   -2.671183    0.122328    0.443661
   1 C     6.0000    0    12.011   -1.361350    0.211979    2.598278
   2 C     6.0000    0    12.011    1.361350   -0.211979    2.598278
   3 C     6.0000    0    12.011    2.671183   -0.122328    0.443661
   4 C     6.0000    0    12.011    1.362309    0.467959   -1.999597
   5 C     6.0000    0    12.011   -1.362309   -0.467959   -1.999597
   6 H     1.0000    0     1.008   -4.707472    0.362486    0.446445
   7 H     1.0000    0     1.008   -2.308773    0.552913    4.383812
   8 H     1.0000    0     1.008    2.308773   -0.552913    4.383812
   9 H     1.0000    0     1.008    4.707472   -0.362486    0.446445
  10 H     1.0000    0     1.008    2.392088   -0.337029   -3.598289
  11 H     1.0000    0     1.008    1.393432    2.529721   -2.274311
  12 H     1.0000    0     1.008   -2.392088    0.337029   -3.598289
  13 H     1.0000    0     1.008   -1.393432   -2.529721   -2.274311

--------------------------------
INTERNAL COORDINATES (ANGSTROEM)
--------------------------------
 C      0   0   0     0.000000000000     0.00000000     0.00000000
 C      1   0   0     1.335171369344     0.00000000     0.00000000
 C      2   1   0     1.458152950431   120.49654619     0.00000000
 C      3   2   1     1.335171369344   120.49654619    15.33715521
 C      4   3   2     1.499645916040   120.25623419     1.22721345
 C      1   2   3     1.499645916040   120.25623419     1.22721345
 H      1   2   3     1.085027024259   120.67981172   177.53985790
 H      2   1   3     1.084745968795   120.65088864   181.58799811
 H      3   2   1     1.084745968795   118.83394325   193.77768142
 H      4   3   2     1.085027024259   120.67981172   177.53985790
 H      5   4   3     1.092756015579   110.85111541   205.79157698
 H      5   4   3     1.100802821499   108.26368881    89.84978243
 H      6   1   2     1.092756015579   110.85111541   205.79157698
 H      6   1   2     1.100802821499   108.26368881    89.84978243

---------------------------
INTERNAL COORDINATES (A.U.)
---------------------------
 C      0   0   0     0.000000000000     0.00000000     0.00000000
 C      1   0   0     2.523108229913     0.00000000     0.00000000
 C      2   1   0     2.755509737683   120.49654619     0.00000000
 C      3   2   1     2.523108229913   120.49654619    15.33715521
 C      4   3   2     2.833920079170   120.25623419     1.22721345
 C      1   2   3     2.833920079170   120.25623419     1.22721345
 H      1   2   3     2.050403923752   120.67981172   177.53985790
 H      2   1   3     2.049872805897   120.65088864   181.58799811
 H      3   2   1     2.049872805897   118.83394325   193.77768142
 H      4   3   2     2.050403923752   120.67981172   177.53985790
 H      5   4   3     2.065009600639   110.85111541   205.79157698
 H      5   4   3     2.080215860081   108.26368881    89.84978243
 H      6   1   2     2.065009600639   110.85111541   205.79157698
 H      6   1   2     2.080215860081   108.26368881    89.84978243

---------------------
BASIS SET INFORMATION
---------------------
There are 2 groups of distinct atoms

 Group   1 Type C   : 8s4p1d contracted to 4s2p1d pattern {5111/31/1}
 Group   2 Type H   : 4s contracted to 2s pattern {31}

Atom   0C    basis set group =>   1
Atom   1C    basis set group =>   1
Atom   2C    basis set group =>   1
Atom   3C    basis set group =>   1
Atom   4C    basis set group =>   1
Atom   5C    basis set group =>   1
Atom   6H    basis set group =>   2
Atom   7H    basis set group =>   2
Atom   8H    basis set group =>   2
Atom   9H    basis set group =>   2
Atom  10H    basis set group =>   2
Atom  11H    basis set group =>   2
Atom  12H    basis set group =>   2
Atom  13H    basis set group =>   2
---------------------------------
AUXILIARY/J BASIS SET INFORMATION
---------------------------------
There are 2 groups of distinct atoms

 Group   1 Type C   : 12s5p4d2f1g contracted to 6s4p3d1f1g pattern {711111/2111/211/2/1}
 Group   2 Type H   : 5s2p1d contracted to 3s1p1d pattern {311/2/1}

Atom   0C    basis set group =>   1
Atom   1C    basis set group =>   1
Atom   2C    basis set group =>   1
Atom   3C    basis set group =>   1
Atom   4C    basis set group =>   1
Atom   5C    basis set group =>   1
Atom   6H    basis set group =>   2
Atom   7H    basis set group =>   2
Atom   8H    basis set group =>   2
Atom   9H    basis set group =>   2
Atom  10H    basis set group =>   2
Atom  11H    basis set group =>   2
Atom  12H    basis set group =>   2
Atom  13H    basis set group =>   2


           ************************************************************
           *        Program running with 4 parallel MPI-processes     *
           *              working on a common directory               *
           ************************************************************
------------------------------------------------------------------------------
                           ORCA GTO INTEGRAL CALCULATION
                           -- RI-GTO INTEGRALS CHOSEN --
------------------------------------------------------------------------------
------------------------------------------------------------------------------
                   ___                                                        
                  /   \      - P O W E R E D   B Y -                         
                 /     \                                                     
                 |  |  |   _    _      __       _____    __    __             
                 |  |  |  | |  | |    /  \     |  _  \  |  |  /  |          
                  \  \/   | |  | |   /    \    | | | |  |  | /  /          
                 / \  \   | |__| |  /  /\  \   | |_| |  |  |/  /          
                |  |  |   |  __  | /  /__\  \  |    /   |      \           
                |  |  |   | |  | | |   __   |  |    \   |  |\   \          
                \     /   | |  | | |  |  |  |  | |\  \  |  | \   \       
                 \___/    |_|  |_| |__|  |__|  |_| \__\ |__|  \__/        
                                                                              
                      - O R C A' S   B I G   F R I E N D -                    
                                      &                                       
                       - I N T E G R A L  F E E D E R -                       
                                                                              
 v1 FN, 2020, v2 2021                                                         
------------------------------------------------------------------------------


Reading SHARK input file pbeh-3c.SHARKINP.tmp ... ok
----------------------
SHARK INTEGRAL PACKAGE
----------------------

Number of atoms                             ...     14
Number of basis functions                   ...    106
Number of shells                            ...     58
Maximum angular momentum                    ...      2
Integral batch strategy                     ... SHARK/LIBINT Hybrid
RI-J (if used) integral strategy            ... SPLIT-RIJ (Revised 2003 algorithm where possible)
Printlevel                                  ...      1
Contraction scheme used                     ... SEGMENTED contraction
Coulomb Range Separation                    ... NOT USED
Exchange Range Separation                   ... NOT USED
Finite Nucleus Model                        ... NOT USED
Auxiliary Coulomb fitting basis             ... AVAILABLE
   # of basis functions in Aux-J            ...    382
   # of shells in Aux-J                     ...    130
   Maximum angular momentum in Aux-J        ...      4
Auxiliary J/K fitting basis                 ... NOT available
Auxiliary Correlation fitting basis         ... NOT available
Auxiliary 'external' fitting basis          ... NOT available
Integral threshold                          ...     2.500000e-11
Primitive cut-off                           ...     2.500000e-12
Primitive pair pre-selection threshold      ...     2.500000e-12

Calculating pre-screening integrals         ... done (  0.1 sec) Dimension = 58
Organizing shell pair data                  ... done (  0.1 sec)
Shell pair information
Total number of shell pairs                 ...      1711
Shell pairs after pre-screening             ...      1650
Total number of primitive shell pairs       ...      6207
Primitive shell pairs kept                  ...      4519
          la=0 lb=0:    759 shell pairs
          la=1 lb=0:    480 shell pairs
          la=1 lb=1:     78 shell pairs
          la=2 lb=0:    240 shell pairs
          la=2 lb=1:     72 shell pairs
          la=2 lb=2:     21 shell pairs

Calculating one electron integrals          ... done (  0.0 sec)
Calculating RI/J V-Matrix + Cholesky decomp.... done (  0.2 sec)
Calculating Nuclear repulsion               ... done (  0.0 sec) ENN=    220.142170354220 Eh

SHARK setup successfully completed in   1.0 seconds

Maximum memory used throughout the entire GTOINT-calculation: 10.4 MB


           ************************************************************
           *        Program running with 4 parallel MPI-processes     *
           *              working on a common directory               *
           ************************************************************
-------------------------------------------------------------------------------
                                 ORCA SCF
-------------------------------------------------------------------------------

------------
SCF SETTINGS
------------
Hamiltonian:
 Density Functional     Method          .... DFT(GTOs)
 Exchange Functional    Exchange        .... PBE
   PBE kappa parameter   XKappa         ....  1.024500
   PBE mue parameter    XMuePBE         ....  0.123457
 Correlation Functional Correlation     .... PBE
   PBE beta parameter  CBetaPBE         ....  0.030000
 LDA part of GGA corr.  LDAOpt          .... PW91-LDA
 Gradients option       PostSCFGGA      .... off
 Hybrid DFT is turned on
   Fraction HF Exchange ScalHFX         ....  0.420000
   Scaling of DF-GGA-X  ScalDFX         ....  0.580000
   Scaling of DF-GGA-C  ScalDFC         ....  1.000000
   Scaling of DF-LDA-C  ScalLDAC        ....  1.000000
   Perturbative correction              ....  0.000000
   Density functional embedding theory  .... OFF
 RI-approximation to the Coulomb term is turned on
   Number of AuxJ basis functions       .... 382
   RIJ-ON(X) (HFX calculated with O(N)) .... on
   Number of AuxJ basis functions       .... 382
   RIJ-COSX (HFX calculated with COS-X)).... on


General Settings:
 Integral files         IntName         .... pbeh-3c
 Hartree-Fock type      HFTyp           .... RHF
 Total Charge           Charge          ....    0
 Multiplicity           Mult            ....    1
 Number of Electrons    NEL             ....   44
 Basis Dimension        Dim             ....  106
 Nuclear Repulsion      ENuc            ....    220.1421703542 Eh

Convergence Acceleration:
 DIIS                   CNVDIIS         .... on
   Start iteration      DIISMaxIt       ....    12
   Startup error        DIISStart       ....  0.200000
   # of expansion vecs  DIISMaxEq       ....     5
   Bias factor          DIISBfac        ....   1.050
   Max. coefficient     DIISMaxC        ....  10.000
 Trust-Rad. Augm. Hess. CNVTRAH         .... auto
   Auto Start mean grad. ratio tolernc. ....  1.125000
   Auto Start start iteration           ....    20
   Auto Start num. interpolation iter.  ....    10
   Max. Number of Micro iterations      ....    16
   Max. Number of Macro iterations      .... Maxiter - #DIIS iter
   Number of Davidson start vectors     ....     2
   Converg. threshold I  (grad. norm)   ....   1.000e-05
   Converg. threshold II (energy diff.) ....   1.000e-08
   Grad. Scal. Fac. for Micro threshold ....   0.100
   Minimum threshold for Micro iter.    ....   0.010
   NR start threshold (gradient norm)   ....   0.001
   Initial trust radius                 ....   0.400
   Minimum AH scaling param. (alpha)    ....   1.000
   Maximum AH scaling param. (alpha)    .... 1000.000
   Orbital update algorithm             .... Taylor
   White noise on init. David. guess    .... on
   Maximum white noise                  ....   0.010
   Quad. conv. algorithm                .... NR
   COSX micro iterations for RIJONX calc.... off
 SOSCF                  CNVSOSCF        .... on
   Start iteration      SOSCFMaxIt      ....   150
   Startup grad/error   SOSCFStart      ....  0.003300
 Level Shifting         CNVShift        .... on
   Level shift para.    LevelShift      ....    0.2500
   Turn off err/grad.   ShiftErr        ....    0.0010
 Zerner damping         CNVZerner       .... off
 Static damping         CNVDamp         .... on
   Fraction old density DampFac         ....    0.7000
   Max. Damping (<1)    DampMax         ....    0.9800
   Min. Damping (>=0)   DampMin         ....    0.0000
   Turn off err/grad.   DampErr         ....    0.1000
 Fernandez-Rico         CNVRico         .... off

SCF Procedure:
 Maximum # iterations   MaxIter         ....   125
 SCF integral mode      SCFMode         .... Direct
   Integral package                     .... SHARK and LIBINT hybrid scheme
 Reset frequency        DirectResetFreq ....    20
 Integral Threshold     Thresh          ....  2.500e-11 Eh
 Primitive CutOff       TCut            ....  2.500e-12 Eh

Convergence Tolerance:
 Convergence Check Mode ConvCheckMode   .... Total+1el-Energy
 Convergence forced     ConvForced      .... 0
 Energy Change          TolE            ....  1.000e-08 Eh
 1-El. energy change                    ....  1.000e-05 Eh
 Orbital Gradient       TolG            ....  1.000e-05
 Orbital Rotation angle TolX            ....  1.000e-05
 DIIS Error             TolErr          ....  5.000e-07


Diagonalization of the overlap matrix:
Smallest eigenvalue                        ... 1.352e-03
Time for diagonalization                   ...    0.006 sec
Threshold for overlap eigenvalues          ... 1.000e-08
Number of eigenvalues below threshold      ... 0
Time for construction of square roots      ...    0.103 sec
Total time needed                          ...    0.114 sec

--------------------------------
INITIAL GUESS: MINIMAL BASIS EHT
--------------------------------
The minimal basis has 38 functions
EHT matrix was diagonalized
Basis set overlap was calculated now projecting the orbitals
Using GuessMode=FMatrix for the initial guess
C*T matrix was formed
Effective Fockian was calculated
Effective Fockian was diagonalized
Initial density was built
                      ------------------
                      INITIAL GUESS DONE
                      ------------------
-------------------
DFT GRID GENERATION
-------------------

General Integration Accuracy     IntAcc      ... 4.959
Radial Grid Type                 RadialGrid  ... OptM3 with GC (2021)
Angular Grid (max. ang.)         AngularGrid ... 6 (Lebedev-590)
Angular grid pruning method      GridPruning ... 4 (adaptive)
Weight generation scheme         WeightScheme... Becke
Basis function cutoff            BFCut       ... 1.0000e-11
Integration weight cutoff        WCut        ... 1.0000e-14
Angular grids for H and He will be reduced by one unit
Partially contracted basis set               ... off
Rotationally invariant grid construction     ... off

Total number of grid points                  ...   155470
Total number of batches                      ...     2438
Average number of points per batch           ...       63
Average number of grid points per atom       ...    11105
Time for grid setup =    2.610 sec

--------------------
COSX GRID GENERATION
--------------------

GRIDX 1
-------
General Integration Accuracy     IntAcc      ... 4.020
Radial Grid Type                 RadialGrid  ... OptM3 with GC (2021)
Angular Grid (max. ang.)         AngularGrid ... 2 (Lebedev-110)
Angular grid pruning method      GridPruning ... 4 (adaptive)
Weight generation scheme         WeightScheme... Becke
Basis function cutoff            BFCut       ... 1.0000e-11
Integration weight cutoff        WCut        ... 1.0000e-14
Angular grids for H and He will be reduced by one unit
Partially contracted basis set               ... on
Rotationally invariant grid construction     ... off

Total number of grid points                  ...    16922
Total number of batches                      ...      272
Average number of points per batch           ...       62
Average number of grid points per atom       ...     1209
UseSFitting                                  ... on

GRIDX 2
-------
General Integration Accuracy     IntAcc      ... 4.338
Radial Grid Type                 RadialGrid  ... OptM3 with GC (2021)
Angular Grid (max. ang.)         AngularGrid ... 3 (Lebedev-194)
Angular grid pruning method      GridPruning ... 4 (adaptive)
Weight generation scheme         WeightScheme... Becke
Basis function cutoff            BFCut       ... 1.0000e-11
Integration weight cutoff        WCut        ... 1.0000e-14
Angular grids for H and He will be reduced by one unit
Partially contracted basis set               ... on
Rotationally invariant grid construction     ... off

Total number of grid points                  ...    37080
Total number of batches                      ...      586
Average number of points per batch           ...       63
Average number of grid points per atom       ...     2649
UseSFitting                                  ... on

GRIDX 3
-------
General Integration Accuracy     IntAcc      ... 4.871
Radial Grid Type                 RadialGrid  ... OptM3 with GC (2021)
Angular Grid (max. ang.)         AngularGrid ... 4 (Lebedev-302)
Angular grid pruning method      GridPruning ... 4 (adaptive)
Weight generation scheme         WeightScheme... Becke
Basis function cutoff            BFCut       ... 1.0000e-11
Integration weight cutoff        WCut        ... 1.0000e-14
Angular grids for H and He will be reduced by one unit
Partially contracted basis set               ... on
Rotationally invariant grid construction     ... off

Total number of grid points                  ...    72144
Total number of batches                      ...     1134
Average number of points per batch           ...       63
Average number of grid points per atom       ...     5153
UseSFitting                                  ... on

Time for X-Grid setup             =    1.982 sec

--------------
SCF ITERATIONS
--------------
ITER       Energy         Delta-E        Max-DP      RMS-DP      [F,P]     Damp
               ***  Starting incremental Fock matrix formation  ***
  0   -232.3690761671   0.000000000000 0.06866602  0.00413787  0.4165151 0.7000
  1   -232.5250668700  -0.155990702879 0.05191090  0.00305229  0.2933784 0.7000
  2   -232.6372635862  -0.112196716230 0.03804466  0.00224997  0.2055330 0.7000
                               ***Turning on DIIS***
  3   -232.7172996849  -0.080036098659 0.02768263  0.00165983  0.1441087 0.7000
  4   -232.7741923113  -0.056892626425 0.02127511  0.00129830  0.1011147 0.7000
  5   -232.8145255583  -0.040333247027 0.05182683  0.00322543  0.0708904 0.0000
                      *** Initiating the SOSCF procedure ***
                           *** Shutting down DIIS ***
                      *** Re-Reading the Fockian *** 
                      *** Removing any level shift *** 
ITER      Energy       Delta-E        Grad      Rot      Max-DP    RMS-DP
  6   -232.91064499  -0.0961194301  0.001812  0.001812  0.002235  0.000116
               *** Restarting incremental Fock matrix formation ***
  7   -232.91068421  -0.0000392216  0.000659  0.000774  0.001025  0.000064
  8   -232.91069017  -0.0000059608  0.000122  0.000227  0.000366  0.000021
  9   -232.91069034  -0.0000001727  0.000074  0.000105  0.000133  0.000007
 10   -232.91069053  -0.0000001836  0.000021  0.000047  0.000055  0.000002
 11   -232.91069052   0.0000000027  0.000021  0.000024  0.000025  0.000001
                 **** Energy Check signals convergence ****
              ***Rediagonalizing the Fockian in SOSCF/NRSCF***

               *****************************************************
               *                     SUCCESS                       *
               *           SCF CONVERGED AFTER  12 CYCLES          *
               *****************************************************

Old exchange energy                            =    -14.252822138 Eh
New exchange energy                            =    -14.252814541 Eh
Exchange energy change after final integration =      0.000007597 Eh
Total energy after final integration           =   -232.910682936 Eh
Final COS-X integration done in                =     2.151 sec

----------------
TOTAL SCF ENERGY
----------------

Total Energy       :         -232.91068294 Eh           -6337.82189 eV

Components:
Nuclear Repulsion  :          220.14217035 Eh            5990.37300 eV
Electronic Energy  :         -453.05285329 Eh          -12328.19489 eV
One Electron Energy:         -748.65707296 Eh          -20371.99465 eV
Two Electron Energy:          295.60421967 Eh            8043.79976 eV
Max COSX asymmetry :            0.00000086 Eh               0.00002 eV

Virial components:
Potential Energy   :         -463.92618204 Eh          -12624.07321 eV
Kinetic Energy     :          231.01549911 Eh            6286.25132 eV
Virial Ratio       :            2.00820371


DFT components:
N(Alpha)           :       22.000002380544 electrons
N(Beta)            :       22.000002380544 electrons
N(Total)           :       44.000004761088 electrons
E(X)               :      -18.904230941481 Eh       
E(C)               :       -1.880729868448 Eh       
E(XC)              :      -20.784960809929 Eh       
DFET-embed. en.    :        0.000000000000 Eh       

---------------
SCF CONVERGENCE
---------------

  Last Energy change         ...   -8.7448e-09  Tolerance :   1.0000e-08
  Last MAX-Density change    ...    1.0671e-15  Tolerance :   1.0000e-07
  Last RMS-Density change    ...    3.9443e-17  Tolerance :   5.0000e-09
  Last Orbital Gradient      ...    7.0175e-07  Tolerance :   1.0000e-05
  Last Orbital Rotation      ...    1.9949e-06  Tolerance :   1.0000e-05

             **** THE GBW FILE WAS UPDATED (pbeh-3c.gbw) ****
             **** DENSITY pbeh-3c.scfp WAS UPDATED ****
             **** ENERGY FILE WAS UPDATED (pbeh-3c.en.tmp) ****
             **** THE GBW FILE WAS UPDATED (pbeh-3c.gbw) ****
             **** DENSITY pbeh-3c.scfp WAS UPDATED ****
----------------
ORBITAL ENERGIES
----------------

  NO   OCC          E(Eh)            E(eV) 
   0   2.0000     -10.440210      -284.0925 
   1   2.0000     -10.440188      -284.0920 
   2   2.0000     -10.438418      -284.0438 
   3   2.0000     -10.438181      -284.0373 
   4   2.0000     -10.436449      -283.9902 
   5   2.0000     -10.436134      -283.9816 
   6   2.0000      -0.936899       -25.4943 
   7   2.0000      -0.829697       -22.5772 
   8   2.0000      -0.829087       -22.5606 
   9   2.0000      -0.694034       -18.8856 
  10   2.0000      -0.660343       -17.9688 
  11   2.0000      -0.572573       -15.5805 
  12   2.0000      -0.550030       -14.9671 
  13   2.0000      -0.500425       -13.6172 
  14   2.0000      -0.481703       -13.1078 
  15   2.0000      -0.472306       -12.8521 
  16   2.0000      -0.446725       -12.1560 
  17   2.0000      -0.420920       -11.4538 
  18   2.0000      -0.383379       -10.4323 
  19   2.0000      -0.365961        -9.9583 
  20   2.0000      -0.353011        -9.6059 
  21   2.0000      -0.249911        -6.8004 
  22   0.0000       0.002756         0.0750 
  23   0.0000       0.114961         3.1283 
  24   0.0000       0.148278         4.0348 
  25   0.0000       0.187071         5.0905 
  26   0.0000       0.193278         5.2594 
  27   0.0000       0.205910         5.6031 
  28   0.0000       0.210561         5.7297 
  29   0.0000       0.217064         5.9066 
  30   0.0000       0.247739         6.7413 
  31   0.0000       0.257470         7.0061 
  32   0.0000       0.266201         7.2437 
  33   0.0000       0.280889         7.6434 
  34   0.0000       0.309675         8.4267 
  35   0.0000       0.350334         9.5331 
  36   0.0000       0.402999        10.9662 
  37   0.0000       0.463347        12.6083 
  38   0.0000       0.489219        13.3123 
  39   0.0000       0.531878        14.4731 
  40   0.0000       0.564145        15.3512 
  41   0.0000       0.570848        15.5336 
  42   0.0000       0.580963        15.8088 
  43   0.0000       0.602432        16.3930 
  44   0.0000       0.616006        16.7624 
  45   0.0000       0.622598        16.9418 
  46   0.0000       0.659029        17.9331 
  47   0.0000       0.678111        18.4523 
  48   0.0000       0.681442        18.5430 
  49   0.0000       0.715433        19.4679 
  50   0.0000       0.716430        19.4950 
  51   0.0000       0.798551        21.7297 
  52   0.0000       0.861436        23.4409 
  53   0.0000       0.910413        24.7736 
  54   0.0000       0.938145        25.5282 
  55   0.0000       0.954591        25.9757 
  56   0.0000       0.981950        26.7202 
  57   0.0000       0.997978        27.1564 
  58   0.0000       1.011725        27.5304 
  59   0.0000       1.025514        27.9057 
  60   0.0000       1.038818        28.2677 
  61   0.0000       1.051890        28.6234 
  62   0.0000       1.066784        29.0287 
  63   0.0000       1.087162        29.5832 
  64   0.0000       1.128032        30.6953 
  65   0.0000       1.175545        31.9882 
  66   0.0000       1.227098        33.3910 
  67   0.0000       1.278293        34.7841 
  68   0.0000       1.344607        36.5886 
  69   0.0000       1.437430        39.1145 
  70   0.0000       1.520016        41.3617 
  71   0.0000       1.569683        42.7132 
  72   0.0000       1.579085        42.9691 
  73   0.0000       1.617992        44.0278 
  74   0.0000       1.636930        44.5431 
  75   0.0000       1.772203        48.2241 
  76   0.0000       1.874918        51.0191 
  77   0.0000       1.886376        51.3309 
  78   0.0000       1.966089        53.5000 
  79   0.0000       1.995822        54.3091 
  80   0.0000       1.998640        54.3857 
  81   0.0000       2.062959        56.1360 
  82   0.0000       2.107615        57.3511 
  83   0.0000       2.124451        57.8093 
  84   0.0000       2.239985        60.9531 
  85   0.0000       2.255971        61.3881 
  86   0.0000       2.281424        62.0807 
  87   0.0000       2.296251        62.4842 
  88   0.0000       2.377244        64.6881 
  89   0.0000       2.452251        66.7292 
  90   0.0000       2.467438        67.1424 
  91   0.0000       2.577543        70.1385 
  92   0.0000       2.600294        70.7576 
  93   0.0000       2.626425        71.4687 
  94   0.0000       2.681127        72.9572 
  95   0.0000       2.729428        74.2715 
  96   0.0000       2.761275        75.1381 
  97   0.0000       2.817052        76.6559 
  98   0.0000       2.997473        81.5654 
  99   0.0000       3.266665        88.8905 
 100   0.0000      13.311886       362.2348 
 101   0.0000      13.632760       370.9663 
 102   0.0000      13.790856       375.2683 
 103   0.0000      14.011967       381.2850 
 104   0.0000      14.150125       385.0445 
 105   0.0000      14.341414       390.2497 

                    ********************************
                    * MULLIKEN POPULATION ANALYSIS *
                    ********************************

-----------------------
MULLIKEN ATOMIC CHARGES
-----------------------
   0 C :   -0.219261
   1 C :   -0.205965
   2 C :   -0.205965
   3 C :   -0.219261
   4 C :   -0.464713
   5 C :   -0.464713
   6 H :    0.218512
   7 H :    0.215419
   8 H :    0.215419
   9 H :    0.218512
  10 H :    0.225559
  11 H :    0.230448
  12 H :    0.225559
  13 H :    0.230448
Sum of atomic charges:    0.0000000

--------------------------------
MULLIKEN REDUCED ORBITAL CHARGES
--------------------------------
  0 C s       :     3.253802  s :     3.253802
      pz      :     0.899154  p :     2.925891
      px      :     1.053336
      py      :     0.973401
      dz2     :     0.012249  d :     0.039568
      dxz     :     0.010220
      dyz     :     0.007502
      dx2y2   :     0.007265
      dxy     :     0.002331
  1 C s       :     3.225812  s :     3.225812
      pz      :     1.001213  p :     2.940035
      px      :     0.927376
      py      :     1.011446
      dz2     :     0.010943  d :     0.040118
      dxz     :     0.012636
      dyz     :     0.004651
      dx2y2   :     0.005887
      dxy     :     0.006001
  2 C s       :     3.225812  s :     3.225812
      pz      :     1.001213  p :     2.940035
      px      :     0.927376
      py      :     1.011446
      dz2     :     0.010943  d :     0.040118
      dxz     :     0.012636
      dyz     :     0.004651
      dx2y2   :     0.005887
      dxy     :     0.006001
  3 C s       :     3.253802  s :     3.253802
      pz      :     0.899154  p :     2.925891
      px      :     1.053336
      py      :     0.973401
      dz2     :     0.012249  d :     0.039568
      dxz     :     0.010220
      dyz     :     0.007502
      dx2y2   :     0.007265
      dxy     :     0.002331
  4 C s       :     3.337336  s :     3.337336
      pz      :     1.017606  p :     3.083200
      px      :     0.949470
      py      :     1.116124
      dz2     :     0.009473  d :     0.044177
      dxz     :     0.011500
      dyz     :     0.005719
      dx2y2   :     0.012051
      dxy     :     0.005434
  5 C s       :     3.337336  s :     3.337336
      pz      :     1.017606  p :     3.083200
      px      :     0.949470
      py      :     1.116124
      dz2     :     0.009473  d :     0.044177
      dxz     :     0.011500
      dyz     :     0.005719
      dx2y2   :     0.012051
      dxy     :     0.005434
  6 H s       :     0.781488  s :     0.781488
  7 H s       :     0.784581  s :     0.784581
  8 H s       :     0.784581  s :     0.784581
  9 H s       :     0.781488  s :     0.781488
 10 H s       :     0.774441  s :     0.774441
 11 H s       :     0.769552  s :     0.769552
 12 H s       :     0.774441  s :     0.774441
 13 H s       :     0.769552  s :     0.769552


                     *******************************
                     * LOEWDIN POPULATION ANALYSIS *
                     *******************************

----------------------
LOEWDIN ATOMIC CHARGES
----------------------
   0 C :   -0.138406
   1 C :   -0.156691
   2 C :   -0.156691
   3 C :   -0.138406
   4 C :   -0.236509
   5 C :   -0.236509
   6 H :    0.131611
   7 H :    0.133099
   8 H :    0.133099
   9 H :    0.131611
  10 H :    0.131749
  11 H :    0.135146
  12 H :    0.131749
  13 H :    0.135146

-------------------------------
LOEWDIN REDUCED ORBITAL CHARGES
-------------------------------
  0 C s       :     2.908068  s :     2.908068
      pz      :     1.082878  p :     3.142062
      px      :     1.079421
      py      :     0.979763
      dz2     :     0.029959  d :     0.088276
      dxz     :     0.026774
      dyz     :     0.015220
      dx2y2   :     0.012328
      dxy     :     0.003995
  1 C s       :     2.895439  s :     2.895439
      pz      :     1.097361  p :     3.170053
      px      :     1.068362
      py      :     1.004330
      dz2     :     0.026231  d :     0.091198
      dxz     :     0.030822
      dyz     :     0.008225
      dx2y2   :     0.013252
      dxy     :     0.012668
  2 C s       :     2.895439  s :     2.895439
      pz      :     1.097361  p :     3.170053
      px      :     1.068362
      py      :     1.004330
      dz2     :     0.026231  d :     0.091198
      dxz     :     0.030822
      dyz     :     0.008225
      dx2y2   :     0.013252
      dxy     :     0.012668
  3 C s       :     2.908068  s :     2.908068
      pz      :     1.082878  p :     3.142062
      px      :     1.079421
      py      :     0.979763
      dz2     :     0.029959  d :     0.088276
      dxz     :     0.026774
      dyz     :     0.015220
      dx2y2   :     0.012328
      dxy     :     0.003995
  4 C s       :     2.902618  s :     2.902618
      pz      :     1.074451  p :     3.243710
      px      :     1.061059
      py      :     1.108200
      dz2     :     0.019994  d :     0.090181
      dxz     :     0.024438
      dyz     :     0.010834
      dx2y2   :     0.023727
      dxy     :     0.011188
  5 C s       :     2.902618  s :     2.902618
      pz      :     1.074451  p :     3.243710
      px      :     1.061059
      py      :     1.108200
      dz2     :     0.019994  d :     0.090181
      dxz     :     0.024438
      dyz     :     0.010834
      dx2y2   :     0.023727
      dxy     :     0.011188
  6 H s       :     0.868389  s :     0.868389
  7 H s       :     0.866901  s :     0.866901
  8 H s       :     0.866901  s :     0.866901
  9 H s       :     0.868389  s :     0.868389
 10 H s       :     0.868251  s :     0.868251
 11 H s       :     0.864854  s :     0.864854
 12 H s       :     0.868251  s :     0.868251
 13 H s       :     0.864854  s :     0.864854


                      *****************************
                      * MAYER POPULATION ANALYSIS *
                      *****************************

  NA   - Mulliken gross atomic population
  ZA   - Total nuclear charge
  QA   - Mulliken gross atomic charge
  VA   - Mayer's total valence
  BVA  - Mayer's bonded valence
  FA   - Mayer's free valence

  ATOM       NA         ZA         QA         VA         BVA        FA
  0 C      6.2193     6.0000    -0.2193     3.7681     3.7681     0.0000
  1 C      6.2060     6.0000    -0.2060     3.8226     3.8226     0.0000
  2 C      6.2060     6.0000    -0.2060     3.8226     3.8226     0.0000
  3 C      6.2193     6.0000    -0.2193     3.7681     3.7681    -0.0000
  4 C      6.4647     6.0000    -0.4647     3.7389     3.7389    -0.0000
  5 C      6.4647     6.0000    -0.4647     3.7389     3.7389    -0.0000
  6 H      0.7815     1.0000     0.2185     0.9182     0.9182     0.0000
  7 H      0.7846     1.0000     0.2154     0.9130     0.9130     0.0000
  8 H      0.7846     1.0000     0.2154     0.9130     0.9130     0.0000
  9 H      0.7815     1.0000     0.2185     0.9182     0.9182     0.0000
 10 H      0.7744     1.0000     0.2256     0.9060     0.9060     0.0000
 11 H      0.7696     1.0000     0.2304     0.8957     0.8957    -0.0000
 12 H      0.7744     1.0000     0.2256     0.9060     0.9060     0.0000
 13 H      0.7696     1.0000     0.2304     0.8957     0.8957     0.0000

  Mayer bond orders larger than 0.100000
B(  0-C ,  1-C ) :   1.8360 B(  0-C ,  5-C ) :   0.9926 B(  0-C ,  6-H ) :   0.9236 
B(  1-C ,  2-C ) :   1.0971 B(  1-C ,  7-H ) :   0.9192 B(  2-C ,  3-C ) :   1.8360 
B(  2-C ,  8-H ) :   0.9192 B(  3-C ,  4-C ) :   0.9926 B(  3-C ,  9-H ) :   0.9236 
B(  4-C ,  5-C ) :   0.9853 B(  4-C , 10-H ) :   0.9198 B(  4-C , 11-H ) :   0.9013 
B(  5-C , 12-H ) :   0.9198 B(  5-C , 13-H ) :   0.9013 

-------
TIMINGS
-------

Total SCF time: 0 days 0 hours 0 min 50 sec 

Total time                  ....      50.095 sec
Sum of individual times     ....      46.953 sec  ( 93.7%)

Fock matrix formation       ....      39.904 sec  ( 79.7%)
  Split-RI-J                ....       4.324 sec  ( 10.8% of F)
  Chain of spheres X        ....      15.310 sec  ( 38.4% of F)
  XC integration            ....      11.198 sec  ( 28.1% of F)
    Basis function eval.    ....       2.051 sec  ( 18.3% of XC)
    Density eval.           ....       1.307 sec  ( 11.7% of XC)
    XC-Functional eval.     ....       0.985 sec  (  8.8% of XC)
    XC-Potential eval.      ....       0.833 sec  (  7.4% of XC)
Diagonalization             ....       0.456 sec  (  0.9%)
Density matrix formation    ....       0.039 sec  (  0.1%)
Population analysis         ....       0.320 sec  (  0.6%)
Initial guess               ....       0.010 sec  (  0.0%)
Orbital Transformation      ....       0.000 sec  (  0.0%)
Orbital Orthonormalization  ....       0.000 sec  (  0.0%)
DIIS solution               ....       1.252 sec  (  2.5%)
SOSCF solution              ....       0.379 sec  (  0.8%)
Grid generation             ....       4.592 sec  (  9.2%)

Maximum memory used throughout the entire SCF-calculation: 51.9 MB


-------------------------------------------------------------------------------
                          DFT DISPERSION CORRECTION                            
                                                                               
                              DFTD3 V3.1  Rev 1                                
                          USING Becke-Johnson damping                          
-------------------------------------------------------------------------------
The PBEh-3c composite method is recognized
Using three-body term ABC
Active option DFTDOPT                   ...         4   

molecular C6(AA) [au] = 1824.801946 


            DFT-D V3
 parameters
 s6 scaling factor         :     1.0000 
 a1 scaling factor         :     0.4860 
 s8 scaling factor         :     0.0000 
 a2 scaling factor         :     4.5000 
 Damping factor alpha9(ATM):    16.0000 
 ad hoc parameters k1-k3   :    16.0000     1.3333    -4.0000 

 Edisp/kcal,au: -4.284857774316  -0.006828354781 
 E6   /kcal   :  -4.299545362 
 E8   /kcal   :  -0.000000000 
 E6(ABC)      :   0.014687587 
 % E8         :   0.000000000 
 % E6(ABC)    :  -0.342778875 

-------------------------   ----------------
Dispersion correction           -0.006828355
-------------------------   ----------------

------------------   -----------------
gCP correction             0.019527552
------------------   -----------------

-------------------------   --------------------
FINAL SINGLE POINT ENERGY      -232.897983738174
-------------------------   --------------------


                            ***************************************
                            *     ORCA property calculations      *
                            ***************************************

                                    ---------------------
                                    Active property flags
                                    ---------------------
   (+) Dipole Moment


------------------------------------------------------------------------------
                       ORCA ELECTRIC PROPERTIES CALCULATION
------------------------------------------------------------------------------

Dipole Moment Calculation                       ... on
Quadrupole Moment Calculation                   ... off
Polarizability Calculation                      ... off
GBWName                                         ... pbeh-3c.gbw
Electron density                                ... pbeh-3c.scfp
The origin for moment calculation is the CENTER OF MASS  = (-0.000000,  0.000000  0.286257)

-------------
DIPOLE MOMENT
-------------
                                X             Y             Z
Electronic contribution:     -0.00000       0.00000       1.99032
Nuclear contribution   :     -0.00000       0.00000      -2.17189
                        -----------------------------------------
Total Dipole Moment    :     -0.00000       0.00000      -0.18157
                        -----------------------------------------
Magnitude (a.u.)       :      0.18157
Magnitude (Debye)      :      0.46151



--------------------
Rotational spectrum 
--------------------
 
Rotational constants in cm-1:     0.170980     0.170648     0.090739 
Rotational constants in MHz :  5125.858640  5115.898042  2720.298826 

 Dipole components along the rotational axes: 
x,y,z [a.u.] :    -0.181567    -0.000000     0.000000 
x,y,z [Debye]:    -0.461507    -0.000000     0.000000 

 

Timings for individual modules:

Sum of individual times         ...       51.989 sec (=   0.866 min)
GTO integral calculation        ...        1.314 sec (=   0.022 min)   2.5 %
SCF iterations                  ...       50.674 sec (=   0.845 min)  97.5 %
                             ****ORCA TERMINATED NORMALLY****
TOTAL RUN TIME: 0 days 0 hours 0 minutes 53 seconds 190 msec
