
                                 *****************
                                 * O   R   C   A *
                                 *****************

                                            #,                                       
                                            ###                                      
                                            ####                                     
                                            #####                                    
                                            ######                                   
                                           ########,                                 
                                     ,,################,,,,,                         
                               ,,#################################,,                 
                          ,,##########################################,,             
                       ,#########################################, ''#####,          
                    ,#############################################,,   '####,        
                  ,##################################################,,,,####,       
                ,###########''''           ''''###############################       
              ,#####''   ,,,,##########,,,,          '''####'''          '####       
            ,##' ,,,,###########################,,,                        '##       
           ' ,,###''''                  '''############,,,                           
         ,,##''                                '''############,,,,        ,,,,,,###''
      ,#''                                            '''#######################'''  
     '                                                          ''''####''''         
             ,#######,   #######,   ,#######,      ##                                
            ,#'     '#,  ##    ##  ,#'     '#,    #''#        ######   ,####,        
            ##       ##  ##   ,#'  ##            #'  '#       #        #'  '#        
            ##       ##  #######   ##           ,######,      #####,   #    #        
            '#,     ,#'  ##    ##  '#,     ,#' ,#      #,         ##   #,  ,#        
             '#######'   ##     ##  '#######'  #'      '#     #####' # '####'        



                  #######################################################
                  #                        -***-                        #
                  #          Department of theory and spectroscopy      #
                  #    Directorship and core code : Frank Neese         #
                  #        Max Planck Institute fuer Kohlenforschung    #
                  #                Kaiser Wilhelm Platz 1               #
                  #                 D-45470 Muelheim/Ruhr               #
                  #                      Germany                        #
                  #                                                     #
                  #                  All rights reserved                #
                  #                        -***-                        #
                  #######################################################


                         Program Version 5.0.3 -  RELEASE  -


 With contributions from (in alphabetic order):
   Daniel Aravena         : Magnetic Suceptibility
   Michael Atanasov       : Ab Initio Ligand Field Theory (pilot matlab implementation)
   Alexander A. Auer      : GIAO ZORA, VPT2 properties, NMR spectrum
   Ute Becker             : Parallelization
   Giovanni Bistoni       : ED, misc. LED, open-shell LED, HFLD
   Martin Brehm           : Molecular dynamics
   Dmytro Bykov           : SCF Hessian
   Vijay G. Chilkuri      : MRCI spin determinant printing, contributions to CSF-ICE
   Dipayan Datta          : RHF DLPNO-CCSD density
   Achintya Kumar Dutta   : EOM-CC, STEOM-CC
   Dmitry Ganyushin       : Spin-Orbit,Spin-Spin,Magnetic field MRCI
   Miquel Garcia          : C-PCM and meta-GGA Hessian, CC/C-PCM, Gaussian charge scheme
   Yang Guo               : DLPNO-NEVPT2, F12-NEVPT2, CIM, IAO-localization
   Andreas Hansen         : Spin unrestricted coupled pair/coupled cluster methods
   Benjamin Helmich-Paris : MC-RPA, TRAH-SCF, COSX integrals
   Lee Huntington         : MR-EOM, pCC
   Robert Izsak           : Overlap fitted RIJCOSX, COSX-SCS-MP3, EOM
   Marcus Kettner         : VPT2
   Christian Kollmar      : KDIIS, OOCD, Brueckner-CCSD(T), CCSD density, CASPT2, CASPT2-K
   Simone Kossmann        : Meta GGA functionals, TD-DFT gradient, OOMP2, MP2 Hessian
   Martin Krupicka        : Initial AUTO-CI
   Lucas Lang             : DCDCAS
   Marvin Lechner         : AUTO-CI (C++ implementation), FIC-MRCC
   Dagmar Lenk            : GEPOL surface, SMD
   Dimitrios Liakos       : Extrapolation schemes; Compound Job, initial MDCI parallelization
   Dimitrios Manganas     : Further ROCIS development; embedding schemes
   Dimitrios Pantazis     : SARC Basis sets
   Anastasios Papadopoulos: AUTO-CI, single reference methods and gradients
   Taras Petrenko         : DFT Hessian,TD-DFT gradient, ASA, ECA, R-Raman, ABS, FL, XAS/XES, NRVS
   Peter Pinski           : DLPNO-MP2, DLPNO-MP2 Gradient
   Christoph Reimann      : Effective Core Potentials
   Marius Retegan         : Local ZFS, SOC
   Christoph Riplinger    : Optimizer, TS searches, QM/MM, DLPNO-CCSD(T), (RO)-DLPNO pert. Triples
   Tobias Risthaus        : Range-separated hybrids, TD-DFT gradient, RPA, STAB
   Michael Roemelt        : Original ROCIS implementation
   Masaaki Saitow         : Open-shell DLPNO-CCSD energy and density
   Barbara Sandhoefer     : DKH picture change effects
   Avijit Sen             : IP-ROCIS
   Kantharuban Sivalingam : CASSCF convergence, NEVPT2, FIC-MRCI
   Bernardo de Souza      : ESD, SOC TD-DFT
   Georgi Stoychev        : AutoAux, RI-MP2 NMR, DLPNO-MP2 response
   Willem Van den Heuvel  : Paramagnetic NMR
   Boris Wezisla          : Elementary symmetry handling
   Frank Wennmohs         : Technical directorship


 We gratefully acknowledge several colleagues who have allowed us to
 interface, adapt or use parts of their codes:
   Stefan Grimme, W. Hujo, H. Kruse, P. Pracht,  : VdW corrections, initial TS optimization,
                  C. Bannwarth, S. Ehlert          DFT functionals, gCP, sTDA/sTD-DF
   Ed Valeev, F. Pavosevic, A. Kumar             : LibInt (2-el integral package), F12 methods
   Garnet Chan, S. Sharma, J. Yang, R. Olivares  : DMRG
   Ulf Ekstrom                                   : XCFun DFT Library
   Mihaly Kallay                                 : mrcc  (arbitrary order and MRCC methods)
   Jiri Pittner, Ondrej Demel                    : Mk-CCSD
   Frank Weinhold                                : gennbo (NPA and NBO analysis)
   Christopher J. Cramer and Donald G. Truhlar   : smd solvation model
   Lars Goerigk                                  : TD-DFT with DH, B97 family of functionals
   V. Asgeirsson, H. Jonsson                     : NEB implementation
   FAccTs GmbH                                   : IRC, NEB, NEB-TS, DLPNO-Multilevel, CI-OPT
                                                   MM, QMMM, 2- and 3-layer-ONIOM, Crystal-QMMM,
                                                   LR-CPCM, SF, NACMEs, symmetry and pop. for TD-DFT,
                                                   nearIR, NL-DFT gradient (VV10), updates on ESD,
                                                   ML-optimized integration grids
   S Lehtola, MJT Oliveira, MAL Marques          : LibXC Library
   Liviu Ungur et al                             : ANISO software


 Your calculation uses the libint2 library for the computation of 2-el integrals
 For citations please refer to: http://libint.valeyev.net

 Your ORCA version has been built with support for libXC version: 5.1.0
 For citations please refer to: https://tddft.org/programs/libxc/

 This ORCA versions uses:
   CBLAS   interface :  Fast vector & matrix operations
   LAPACKE interface :  Fast linear algebra routines
   SCALAPACK package :  Parallel linear algebra routines
   Shared memory     :  Shared parallel matrices
   BLAS/LAPACK       :  OpenBLAS 0.3.15  USE64BITINT DYNAMIC_ARCH NO_AFFINITY Haswell SINGLE_THREADED
        Core in use  :  Haswell
   Copyright (c) 2011-2014, The OpenBLAS Project




***************************************
The coordinates will be read from file: 1p3.xyz
***************************************


Your calculation utilizes the geometrical counterpoise correction gCP
Please cite in your paper:
H.Kruse, S. Grimme J.Chem.Phys., 136, (2012), 154101 
   

Your calculation utilizes the atom-pairwise dispersion correction
with the Becke-Johnson damping scheme (D3BJ)
Cite in your paper:
S.Grimme, S.Ehrlich, L.Goerigk, J Comput Chem, (2011), 32, 1456–1465 
S.Grimme, J.Antony, S.Ehrlich and H.Krieg, J.Chem.Phys., 132, (2010), 154104 
   

Your calculation employs the composite approach PBEh-3c.
Please cite in your paper:
S. Grimme, J. G. Brandenburg, C. Bannwarth, A. Hansen J.Chem.Phys., 143, (2015), 054107 
   

================================================================================

----- Orbital basis set information -----
Your calculation utilizes the basis: def2-mSVP

----- AuxJ basis set information -----
Your calculation utilizes the auxiliary basis: def2/J
   F. Weigend, Phys. Chem. Chem. Phys. 8, 1057 (2006).

================================================================================
                                        WARNINGS
                       Please study these warnings very carefully!
================================================================================


WARNING: your system is open-shell and RHF/RKS was chosen
  ===> : WILL SWITCH to UHF/UKS


INFO   : the flag for use of the SHARK integral package has been found!

================================================================================
                                       INPUT FILE
================================================================================
NAME = pbeh-3c.inp
|  1> ! PBEh-3c def2/J TightSCF DefGrid3
|  2> 
|  3> %maxcore 60000
|  4> 
|  5> %pal
|  6> nprocs 4
|  7> end
|  8> 
|  9> *xyzfile 0 2 1p3.xyz
| 10> 
| 11>                          ****END OF INPUT****
================================================================================

                       ****************************
                       * Single Point Calculation *
                       ****************************

---------------------------------
CARTESIAN COORDINATES (ANGSTROEM)
---------------------------------
  C     -0.608346   -0.111112    0.000000
  C      0.855497    0.097710    0.000000
  H      1.397052    0.242937   -0.925776
  H      1.397052    0.242937    0.925776
  H     -0.941774   -0.657809    0.885833
  H     -0.941774   -0.657809   -0.885833
  H     -1.157706    0.843147    0.000000

----------------------------
CARTESIAN COORDINATES (A.U.)
----------------------------
  NO LB      ZA    FRAG     MASS         X           Y           Z
   0 C     6.0000    0    12.011   -1.149607   -0.209971    0.000000
   1 C     6.0000    0    12.011    1.616655    0.184646    0.000000
   2 H     1.0000    0     1.008    2.640045    0.459084   -1.749463
   3 H     1.0000    0     1.008    2.640045    0.459084    1.749463
   4 H     1.0000    0     1.008   -1.779695   -1.243079    1.673982
   5 H     1.0000    0     1.008   -1.779695   -1.243079   -1.673982
   6 H     1.0000    0     1.008   -2.187747    1.593317    0.000000

--------------------------------
INTERNAL COORDINATES (ANGSTROEM)
--------------------------------
 C      0   0   0     0.000000000000     0.00000000     0.00000000
 C      1   0   0     1.478662372741     0.00000000     0.00000000
 H      2   1   0     1.082327941446   120.95038291     0.00000000
 H      2   1   3     1.082327941446   120.95038291   171.68546946
 H      1   2   3     1.093047433388   111.87739611   155.00385899
 H      1   2   3     1.093047433388   111.87739611    33.31067155
 H      1   2   3     1.101092991260   111.81006878   274.15726527

---------------------------
INTERNAL COORDINATES (A.U.)
---------------------------
 C      0   0   0     0.000000000000     0.00000000     0.00000000
 C      1   0   0     2.794266929015     0.00000000     0.00000000
 H      2   1   0     2.045303396424   120.95038291     0.00000000
 H      2   1   3     2.045303396424   120.95038291   171.68546946
 H      1   2   3     2.065560300489   111.87739611   155.00385899
 H      1   2   3     2.065560300489   111.87739611    33.31067155
 H      1   2   3     2.080764201462   111.81006878   274.15726527

---------------------
BASIS SET INFORMATION
---------------------
There are 2 groups of distinct atoms

 Group   1 Type C   : 8s4p1d contracted to 4s2p1d pattern {5111/31/1}
 Group   2 Type H   : 4s contracted to 2s pattern {31}

Atom   0C    basis set group =>   1
Atom   1C    basis set group =>   1
Atom   2H    basis set group =>   2
Atom   3H    basis set group =>   2
Atom   4H    basis set group =>   2
Atom   5H    basis set group =>   2
Atom   6H    basis set group =>   2
---------------------------------
AUXILIARY/J BASIS SET INFORMATION
---------------------------------
There are 2 groups of distinct atoms

 Group   1 Type C   : 12s5p4d2f1g contracted to 6s4p3d1f1g pattern {711111/2111/211/2/1}
 Group   2 Type H   : 5s2p1d contracted to 3s1p1d pattern {311/2/1}

Atom   0C    basis set group =>   1
Atom   1C    basis set group =>   1
Atom   2H    basis set group =>   2
Atom   3H    basis set group =>   2
Atom   4H    basis set group =>   2
Atom   5H    basis set group =>   2
Atom   6H    basis set group =>   2


           ************************************************************
           *        Program running with 4 parallel MPI-processes     *
           *              working on a common directory               *
           ************************************************************
------------------------------------------------------------------------------
                           ORCA GTO INTEGRAL CALCULATION
                           -- RI-GTO INTEGRALS CHOSEN --
------------------------------------------------------------------------------
------------------------------------------------------------------------------
                   ___                                                        
                  /   \      - P O W E R E D   B Y -                         
                 /     \                                                     
                 |  |  |   _    _      __       _____    __    __             
                 |  |  |  | |  | |    /  \     |  _  \  |  |  /  |          
                  \  \/   | |  | |   /    \    | | | |  |  | /  /          
                 / \  \   | |__| |  /  /\  \   | |_| |  |  |/  /          
                |  |  |   |  __  | /  /__\  \  |    /   |      \           
                |  |  |   | |  | | |   __   |  |    \   |  |\   \          
                \     /   | |  | | |  |  |  |  | |\  \  |  | \   \       
                 \___/    |_|  |_| |__|  |__|  |_| \__\ |__|  \__/        
                                                                              
                      - O R C A' S   B I G   F R I E N D -                    
                                      &                                       
                       - I N T E G R A L  F E E D E R -                       
                                                                              
 v1 FN, 2020, v2 2021                                                         
------------------------------------------------------------------------------


Reading SHARK input file pbeh-3c.SHARKINP.tmp ... ok
----------------------
SHARK INTEGRAL PACKAGE
----------------------

Number of atoms                             ...      7
Number of basis functions                   ...     40
Number of shells                            ...     24
Maximum angular momentum                    ...      2
Integral batch strategy                     ... SHARK/LIBINT Hybrid
RI-J (if used) integral strategy            ... SPLIT-RIJ (Revised 2003 algorithm where possible)
Printlevel                                  ...      1
Contraction scheme used                     ... SEGMENTED contraction
Coulomb Range Separation                    ... NOT USED
Exchange Range Separation                   ... NOT USED
Finite Nucleus Model                        ... NOT USED
Auxiliary Coulomb fitting basis             ... AVAILABLE
   # of basis functions in Aux-J            ...    153
   # of shells in Aux-J                     ...     55
   Maximum angular momentum in Aux-J        ...      4
Auxiliary J/K fitting basis                 ... NOT available
Auxiliary Correlation fitting basis         ... NOT available
Auxiliary 'external' fitting basis          ... NOT available
Integral threshold                          ...     2.500000e-11
Primitive cut-off                           ...     2.500000e-12
Primitive pair pre-selection threshold      ...     2.500000e-12

Calculating pre-screening integrals         ... done (  0.1 sec) Dimension = 24
Organizing shell pair data                  ... done (  0.2 sec)
Shell pair information
Total number of shell pairs                 ...       300
Shell pairs after pre-screening             ...       299
Total number of primitive shell pairs       ...      1122
Primitive shell pairs kept                  ...       955
          la=0 lb=0:    170 shell pairs
          la=1 lb=0:     72 shell pairs
          la=1 lb=1:     10 shell pairs
          la=2 lb=0:     36 shell pairs
          la=2 lb=1:      8 shell pairs
          la=2 lb=2:      3 shell pairs

Calculating one electron integrals          ... done (  0.0 sec)
Calculating RI/J V-Matrix + Cholesky decomp.... done (  0.3 sec)
Calculating Nuclear repulsion               ... done (  0.1 sec) ENN=     37.058738650817 Eh

SHARK setup successfully completed in   1.6 seconds

Maximum memory used throughout the entire GTOINT-calculation: 9.0 MB


           ************************************************************
           *        Program running with 4 parallel MPI-processes     *
           *              working on a common directory               *
           ************************************************************
-------------------------------------------------------------------------------
                                 ORCA SCF
-------------------------------------------------------------------------------

------------
SCF SETTINGS
------------
Hamiltonian:
 Density Functional     Method          .... DFT(GTOs)
 Exchange Functional    Exchange        .... PBE
   PBE kappa parameter   XKappa         ....  1.024500
   PBE mue parameter    XMuePBE         ....  0.123457
 Correlation Functional Correlation     .... PBE
   PBE beta parameter  CBetaPBE         ....  0.030000
 LDA part of GGA corr.  LDAOpt          .... PW91-LDA
 Gradients option       PostSCFGGA      .... off
 Hybrid DFT is turned on
   Fraction HF Exchange ScalHFX         ....  0.420000
   Scaling of DF-GGA-X  ScalDFX         ....  0.580000
   Scaling of DF-GGA-C  ScalDFC         ....  1.000000
   Scaling of DF-LDA-C  ScalLDAC        ....  1.000000
   Perturbative correction              ....  0.000000
   Density functional embedding theory  .... OFF
 RI-approximation to the Coulomb term is turned on
   Number of AuxJ basis functions       .... 153
   RIJ-ON(X) (HFX calculated with O(N)) .... on
   Number of AuxJ basis functions       .... 153
   RIJ-COSX (HFX calculated with COS-X)).... on


General Settings:
 Integral files         IntName         .... pbeh-3c
 Hartree-Fock type      HFTyp           .... UHF
 Total Charge           Charge          ....    0
 Multiplicity           Mult            ....    2
 Number of Electrons    NEL             ....   17
 Basis Dimension        Dim             ....   40
 Nuclear Repulsion      ENuc            ....     37.0587386508 Eh

Convergence Acceleration:
 DIIS                   CNVDIIS         .... on
   Start iteration      DIISMaxIt       ....    12
   Startup error        DIISStart       ....  0.200000
   # of expansion vecs  DIISMaxEq       ....     5
   Bias factor          DIISBfac        ....   1.050
   Max. coefficient     DIISMaxC        ....  10.000
 Trust-Rad. Augm. Hess. CNVTRAH         .... auto
   Auto Start mean grad. ratio tolernc. ....  1.125000
   Auto Start start iteration           ....    20
   Auto Start num. interpolation iter.  ....    10
   Max. Number of Micro iterations      ....    16
   Max. Number of Macro iterations      .... Maxiter - #DIIS iter
   Number of Davidson start vectors     ....     2
   Converg. threshold I  (grad. norm)   ....   1.000e-05
   Converg. threshold II (energy diff.) ....   1.000e-08
   Grad. Scal. Fac. for Micro threshold ....   0.100
   Minimum threshold for Micro iter.    ....   0.010
   NR start threshold (gradient norm)   ....   0.001
   Initial trust radius                 ....   0.400
   Minimum AH scaling param. (alpha)    ....   1.000
   Maximum AH scaling param. (alpha)    .... 1000.000
   Orbital update algorithm             .... Taylor
   White noise on init. David. guess    .... on
   Maximum white noise                  ....   0.010
   Quad. conv. algorithm                .... NR
   COSX micro iterations for RIJONX calc.... off
 SOSCF                  CNVSOSCF        .... off
 Level Shifting         CNVShift        .... on
   Level shift para.    LevelShift      ....    0.2500
   Turn off err/grad.   ShiftErr        ....    0.0010
 Zerner damping         CNVZerner       .... off
 Static damping         CNVDamp         .... on
   Fraction old density DampFac         ....    0.7000
   Max. Damping (<1)    DampMax         ....    0.9800
   Min. Damping (>=0)   DampMin         ....    0.0000
   Turn off err/grad.   DampErr         ....    0.1000
 Fernandez-Rico         CNVRico         .... off

SCF Procedure:
 Maximum # iterations   MaxIter         ....   125
 SCF integral mode      SCFMode         .... Direct
   Integral package                     .... SHARK and LIBINT hybrid scheme
 Reset frequency        DirectResetFreq ....    20
 Integral Threshold     Thresh          ....  2.500e-11 Eh
 Primitive CutOff       TCut            ....  2.500e-12 Eh

Convergence Tolerance:
 Convergence Check Mode ConvCheckMode   .... Total+1el-Energy
 Convergence forced     ConvForced      .... 0
 Energy Change          TolE            ....  1.000e-08 Eh
 1-El. energy change                    ....  1.000e-05 Eh
 DIIS Error             TolErr          ....  5.000e-07


Diagonalization of the overlap matrix:
Smallest eigenvalue                        ... 1.172e-02
Time for diagonalization                   ...    0.001 sec
Threshold for overlap eigenvalues          ... 1.000e-08
Number of eigenvalues below threshold      ... 0
Time for construction of square roots      ...    0.130 sec
Total time needed                          ...    0.132 sec

--------------------------------
INITIAL GUESS: MINIMAL BASIS EHT
--------------------------------
The minimal basis has 15 functions
EHT matrix was diagonalized
Basis set overlap was calculated now projecting the orbitals
Using GuessMode=FMatrix for the initial guess
C*T matrix was formed
Effective Fockian was calculated
Effective Fockian was diagonalized
Initial density was built
                      ------------------
                      INITIAL GUESS DONE
                      ------------------
-------------------
DFT GRID GENERATION
-------------------

General Integration Accuracy     IntAcc      ... 4.959
Radial Grid Type                 RadialGrid  ... OptM3 with GC (2021)
Angular Grid (max. ang.)         AngularGrid ... 6 (Lebedev-590)
Angular grid pruning method      GridPruning ... 4 (adaptive)
Weight generation scheme         WeightScheme... Becke
Basis function cutoff            BFCut       ... 1.0000e-11
Integration weight cutoff        WCut        ... 1.0000e-14
Angular grids for H and He will be reduced by one unit
Partially contracted basis set               ... off
Rotationally invariant grid construction     ... off

Total number of grid points                  ...    73656
Total number of batches                      ...     1154
Average number of points per batch           ...       63
Average number of grid points per atom       ...    10522
Time for grid setup =    1.594 sec

--------------------
COSX GRID GENERATION
--------------------

GRIDX 1
-------
General Integration Accuracy     IntAcc      ... 4.020
Radial Grid Type                 RadialGrid  ... OptM3 with GC (2021)
Angular Grid (max. ang.)         AngularGrid ... 2 (Lebedev-110)
Angular grid pruning method      GridPruning ... 4 (adaptive)
Weight generation scheme         WeightScheme... Becke
Basis function cutoff            BFCut       ... 1.0000e-11
Integration weight cutoff        WCut        ... 1.0000e-14
Angular grids for H and He will be reduced by one unit
Partially contracted basis set               ... on
Rotationally invariant grid construction     ... off

Total number of grid points                  ...     7678
Total number of batches                      ...      123
Average number of points per batch           ...       62
Average number of grid points per atom       ...     1097
UseSFitting                                  ... on

GRIDX 2
-------
General Integration Accuracy     IntAcc      ... 4.338
Radial Grid Type                 RadialGrid  ... OptM3 with GC (2021)
Angular Grid (max. ang.)         AngularGrid ... 3 (Lebedev-194)
Angular grid pruning method      GridPruning ... 4 (adaptive)
Weight generation scheme         WeightScheme... Becke
Basis function cutoff            BFCut       ... 1.0000e-11
Integration weight cutoff        WCut        ... 1.0000e-14
Angular grids for H and He will be reduced by one unit
Partially contracted basis set               ... on
Rotationally invariant grid construction     ... off

Total number of grid points                  ...    16878
Total number of batches                      ...      267
Average number of points per batch           ...       63
Average number of grid points per atom       ...     2411
UseSFitting                                  ... on

GRIDX 3
-------
General Integration Accuracy     IntAcc      ... 4.871
Radial Grid Type                 RadialGrid  ... OptM3 with GC (2021)
Angular Grid (max. ang.)         AngularGrid ... 4 (Lebedev-302)
Angular grid pruning method      GridPruning ... 4 (adaptive)
Weight generation scheme         WeightScheme... Becke
Basis function cutoff            BFCut       ... 1.0000e-11
Integration weight cutoff        WCut        ... 1.0000e-14
Angular grids for H and He will be reduced by one unit
Partially contracted basis set               ... on
Rotationally invariant grid construction     ... off

Total number of grid points                  ...    34411
Total number of batches                      ...      541
Average number of points per batch           ...       63
Average number of grid points per atom       ...     4916
UseSFitting                                  ... on

Time for X-Grid setup             =    1.820 sec

--------------
SCF ITERATIONS
--------------
ITER       Energy         Delta-E        Max-DP      RMS-DP      [F,P]     Damp
               ***  Starting incremental Fock matrix formation  ***
  0    -78.8228742677   0.000000000000 0.07528699  0.00227370  0.2039665 0.7000
  1    -78.8691491800  -0.046274912293 0.05386529  0.00166583  0.1450413 0.7000
                               ***Turning on DIIS***
  2    -78.9022342781  -0.033085098120 0.03913858  0.00122134  0.1026492 0.7000
  3    -78.9259032117  -0.023668933660 0.10327136  0.00322147  0.0725199 0.0000
  4    -78.9838119055  -0.057908693717 0.01386699  0.00040259  0.0090743 0.0000
  5    -78.9840685930  -0.000256687505 0.00568560  0.00019052  0.0034578 0.0000
  6    -78.9841207616  -0.000052168663 0.00300041  0.00009527  0.0016755 0.0000
  7    -78.9841313200  -0.000010558379 0.00120282  0.00005103  0.0004331 0.0000
               *** Restarting incremental Fock matrix formation ***
                                   *** Resetting DIIS ***
  8    -78.9841391693  -0.000007849274 0.00026740  0.00001131  0.0000595 0.0000
  9    -78.9841392214  -0.000000052120 0.00005731  0.00000308  0.0000363 0.0000
 10    -78.9841392335  -0.000000012100 0.00006736  0.00000329  0.0000192 0.0000
 11    -78.9841392390  -0.000000005519 0.00000636  0.00000035  0.0000025 0.0000
                 **** Energy Check signals convergence ****

               *****************************************************
               *                     SUCCESS                       *
               *           SCF CONVERGED AFTER  12 CYCLES          *
               *****************************************************

Old exchange energy                            =     -5.088951107 Eh
New exchange energy                            =     -5.088951047 Eh
Exchange energy change after final integration =      0.000000060 Eh
Total energy after final integration           =    -78.984139179 Eh
Final COS-X integration done in                =     0.552 sec

----------------
TOTAL SCF ENERGY
----------------

Total Energy       :          -78.98413918 Eh           -2149.26769 eV

Components:
Nuclear Repulsion  :           37.05873865 Eh            1008.41955 eV
Electronic Energy  :         -116.04287783 Eh           -3157.68724 eV
One Electron Energy:         -178.22196889 Eh           -4849.66633 eV
Two Electron Energy:           62.17909106 Eh            1691.97909 eV
Max COSX asymmetry :            0.00000029 Eh               0.00001 eV

Virial components:
Potential Energy   :         -157.32362124 Eh           -4280.99338 eV
Kinetic Energy     :           78.33948206 Eh            2131.72568 eV
Virial Ratio       :            2.00822902


DFT components:
N(Alpha)           :        9.000000200863 electrons
N(Beta)            :        8.000000144615 electrons
N(Total)           :       17.000000345477 electrons
E(X)               :       -6.733193806558 Eh       
E(C)               :       -0.690645518655 Eh       
E(XC)              :       -7.423839325213 Eh       
DFET-embed. en.    :        0.000000000000 Eh       

---------------
SCF CONVERGENCE
---------------

  Last Energy change         ...   -1.6925e-11  Tolerance :   1.0000e-08
  Last MAX-Density change    ...    0.0000e+00  Tolerance :   1.0000e-07
  Last RMS-Density change    ...    0.0000e+00  Tolerance :   5.0000e-09
  Last DIIS Error            ...    1.3956e-06  Tolerance :   5.0000e-07

             **** THE GBW FILE WAS UPDATED (pbeh-3c.gbw) ****
             **** DENSITY pbeh-3c.scfp WAS UPDATED ****
             **** ENERGY FILE WAS UPDATED (pbeh-3c.en.tmp) ****
----------------------
UHF SPIN CONTAMINATION
----------------------

Warning: in a DFT calculation there is little theoretical justification to 
         calculate <S**2> as in Hartree-Fock theory. We will do it anyways
         but you should keep in mind that the values have only limited relevance

Expectation value of <S**2>     :     0.755120
Ideal value S*(S+1) for S=0.5   :     0.750000
Deviation                       :     0.005120

             **** THE GBW FILE WAS UPDATED (pbeh-3c.gbw) ****
             **** DENSITY pbeh-3c.scfp WAS UPDATED ****
----------------
ORBITAL ENERGIES
----------------
                 SPIN UP ORBITALS
  NO   OCC          E(Eh)            E(eV) 
   0   1.0000     -10.441551      -284.1291 
   1   1.0000     -10.429506      -283.8013 
   2   1.0000      -0.846377       -23.0311 
   3   1.0000      -0.683681       -18.6039 
   4   1.0000      -0.510640       -13.8952 
   5   1.0000      -0.470364       -12.7993 
   6   1.0000      -0.447324       -12.1723 
   7   1.0000      -0.407796       -11.0967 
   8   1.0000      -0.250878        -6.8267 
   9   0.0000       0.164615         4.4794 
  10   0.0000       0.185272         5.0415 
  11   0.0000       0.197798         5.3824 
  12   0.0000       0.223120         6.0714 
  13   0.0000       0.276795         7.5320 
  14   0.0000       0.276820         7.5327 
  15   0.0000       0.480823        13.0839 
  16   0.0000       0.521725        14.1969 
  17   0.0000       0.534318        14.5395 
  18   0.0000       0.577834        15.7237 
  19   0.0000       0.626103        17.0371 
  20   0.0000       0.651867        17.7382 
  21   0.0000       0.850501        23.1433 
  22   0.0000       0.994717        27.0676 
  23   0.0000       0.997706        27.1490 
  24   0.0000       1.055327        28.7169 
  25   0.0000       1.063643        28.9432 
  26   0.0000       1.082268        29.4500 
  27   0.0000       1.275614        34.7112 
  28   0.0000       1.518532        41.3214 
  29   0.0000       1.707632        46.4670 
  30   0.0000       1.800902        49.0050 
  31   0.0000       1.990012        54.1510 
  32   0.0000       2.043495        55.6063 
  33   0.0000       2.225321        60.5541 
  34   0.0000       2.247422        61.1555 
  35   0.0000       2.416220        65.7487 
  36   0.0000       2.546732        69.3001 
  37   0.0000       2.620951        71.3197 
  38   0.0000      13.514774       367.7557 
  39   0.0000      13.902274       378.3001 

                 SPIN DOWN ORBITALS
  NO   OCC          E(Eh)            E(eV) 
   0   1.0000     -10.430820      -283.8370 
   1   1.0000     -10.425548      -283.6936 
   2   1.0000      -0.824362       -22.4320 
   3   1.0000      -0.652163       -17.7463 
   4   1.0000      -0.502561       -13.6754 
   5   1.0000      -0.449774       -12.2390 
   6   1.0000      -0.437421       -11.9028 
   7   1.0000      -0.402596       -10.9552 
   8   0.0000      -0.000522        -0.0142 
   9   0.0000       0.170106         4.6288 
  10   0.0000       0.200153         5.4464 
  11   0.0000       0.201672         5.4878 
  12   0.0000       0.232866         6.3366 
  13   0.0000       0.282933         7.6990 
  14   0.0000       0.283397         7.7116 
  15   0.0000       0.487344        13.2613 
  16   0.0000       0.524747        14.2791 
  17   0.0000       0.560181        15.2433 
  18   0.0000       0.645770        17.5723 
  19   0.0000       0.648537        17.6476 
  20   0.0000       0.660826        17.9820 
  21   0.0000       0.876171        23.8418 
  22   0.0000       0.997706        27.1490 
  23   0.0000       1.006012        27.3750 
  24   0.0000       1.065590        28.9962 
  25   0.0000       1.078370        29.3439 
  26   0.0000       1.085833        29.5470 
  27   0.0000       1.287908        35.0457 
  28   0.0000       1.547870        42.1197 
  29   0.0000       1.774005        48.2731 
  30   0.0000       1.802851        49.0581 
  31   0.0000       2.015351        54.8405 
  32   0.0000       2.074884        56.4605 
  33   0.0000       2.252467        61.2928 
  34   0.0000       2.270403        61.7808 
  35   0.0000       2.432387        66.1886 
  36   0.0000       2.553749        69.4911 
  37   0.0000       2.633669        71.6658 
  38   0.0000      13.529859       368.1662 
  39   0.0000      13.908642       378.4734 

                    ********************************
                    * MULLIKEN POPULATION ANALYSIS *
                    ********************************

--------------------------------------------
MULLIKEN ATOMIC CHARGES AND SPIN POPULATIONS
--------------------------------------------
   0 C :   -0.663887   -0.104097
   1 C :   -0.432455    1.127171
   2 H :    0.212780   -0.061475
   3 H :    0.212780   -0.061475
   4 H :    0.223162    0.016414
   5 H :    0.223162    0.016414
   6 H :    0.224457    0.067047
Sum of atomic charges         :   -0.0000000
Sum of atomic spin populations:    1.0000000

-----------------------------------------------------
MULLIKEN REDUCED ORBITAL CHARGES AND SPIN POPULATIONS
-----------------------------------------------------
CHARGE
  0 C s       :     3.377201  s :     3.377201
      pz      :     1.140427  p :     3.247922
      px      :     0.981870
      py      :     1.125625
      dz2     :     0.007439  d :     0.038764
      dxz     :     0.006077
      dyz     :     0.007746
      dx2y2   :     0.006716
      dxy     :     0.010786
  1 C s       :     3.337973  s :     3.337973
      pz      :     1.105058  p :     3.065345
      px      :     0.952458
      py      :     1.007828
      dz2     :     0.007331  d :     0.029137
      dxz     :     0.012808
      dyz     :     0.001021
      dx2y2   :     0.004717
      dxy     :     0.003261
  2 H s       :     0.787220  s :     0.787220
  3 H s       :     0.787220  s :     0.787220
  4 H s       :     0.776838  s :     0.776838
  5 H s       :     0.776838  s :     0.776838
  6 H s       :     0.775543  s :     0.775543

SPIN
  0 C s       :    -0.022516  s :    -0.022516
      pz      :    -0.010451  p :    -0.089933
      px      :    -0.044203
      py      :    -0.035280
      dz2     :     0.000649  d :     0.008352
      dxz     :     0.000079
      dyz     :     0.000116
      dx2y2   :     0.000162
      dxy     :     0.007346
  1 C s       :     0.104838  s :     0.104838
      pz      :     0.048516  p :     1.025546
      px      :     0.065248
      py      :     0.911782
      dz2     :    -0.001019  d :    -0.003212
      dxz     :    -0.000051
      dyz     :    -0.000070
      dx2y2   :    -0.001935
      dxy     :    -0.000137
  2 H s       :    -0.061475  s :    -0.061475
  3 H s       :    -0.061475  s :    -0.061475
  4 H s       :     0.016414  s :     0.016414
  5 H s       :     0.016414  s :     0.016414
  6 H s       :     0.067047  s :     0.067047


                     *******************************
                     * LOEWDIN POPULATION ANALYSIS *
                     *******************************

-------------------------------------------
LOEWDIN ATOMIC CHARGES AND SPIN POPULATIONS
-------------------------------------------
   0 C :   -0.381501   -0.029642
   1 C :   -0.266686    1.000366
   2 H :    0.124821   -0.029897
   3 H :    0.124821   -0.029897
   4 H :    0.132493    0.014473
   5 H :    0.132493    0.014473
   6 H :    0.133559    0.060124

----------------------------------------------------
LOEWDIN REDUCED ORBITAL CHARGES AND SPIN POPULATIONS
----------------------------------------------------
CHARGE
  0 C s       :     2.948628  s :     2.948628
      pz      :     1.135652  p :     3.358133
      px      :     1.095550
      py      :     1.126931
      dz2     :     0.013416  d :     0.074741
      dxz     :     0.012291
      dyz     :     0.012593
      dx2y2   :     0.014609
      dxy     :     0.021832
  1 C s       :     3.007921  s :     3.007921
      pz      :     1.115961  p :     3.203462
      px      :     1.077520
      py      :     1.009981
      dz2     :     0.012920  d :     0.055303
      dxz     :     0.024479
      dyz     :     0.001648
      dx2y2   :     0.009303
      dxy     :     0.006953
  2 H s       :     0.875179  s :     0.875179
  3 H s       :     0.875179  s :     0.875179
  4 H s       :     0.867507  s :     0.867507
  5 H s       :     0.867507  s :     0.867507
  6 H s       :     0.866441  s :     0.866441

SPIN
  0 C s       :    -0.007570  s :    -0.007570
      pz      :    -0.004926  p :    -0.040593
      px      :    -0.022658
      py      :    -0.013009
      dz2     :     0.001547  d :     0.018521
      dxz     :     0.000388
      dyz     :     0.000221
      dx2y2   :     0.001143
      dxy     :     0.015222
  1 C s       :     0.044897  s :     0.044897
      pz      :     0.023630  p :     0.959768
      px      :     0.052607
      py      :     0.883531
      dz2     :    -0.001501  d :    -0.004299
      dxz     :    -0.000804
      dyz     :    -0.000123
      dx2y2   :    -0.002056
      dxy     :     0.000185
  2 H s       :    -0.029897  s :    -0.029897
  3 H s       :    -0.029897  s :    -0.029897
  4 H s       :     0.014473  s :     0.014473
  5 H s       :     0.014473  s :     0.014473
  6 H s       :     0.060124  s :     0.060124


                      *****************************
                      * MAYER POPULATION ANALYSIS *
                      *****************************

  NA   - Mulliken gross atomic population
  ZA   - Total nuclear charge
  QA   - Mulliken gross atomic charge
  VA   - Mayer's total valence
  BVA  - Mayer's bonded valence
  FA   - Mayer's free valence

  ATOM       NA         ZA         QA         VA         BVA        FA
  0 C      6.6639     6.0000    -0.6639     3.7559     3.7514     0.0046
  1 C      6.4325     6.0000    -0.4325     3.7726     2.8599     0.9127
  2 H      0.7872     1.0000     0.2128     0.9238     0.9201     0.0037
  3 H      0.7872     1.0000     0.2128     0.9238     0.9201     0.0037
  4 H      0.7768     1.0000     0.2232     0.9091     0.9088     0.0003
  5 H      0.7768     1.0000     0.2232     0.9091     0.9088     0.0003
  6 H      0.7755     1.0000     0.2245     0.9015     0.8969     0.0045

  Mayer bond orders larger than 0.100000
B(  0-C ,  1-C ) :   1.0142 B(  0-C ,  4-H ) :   0.9253 B(  0-C ,  5-H ) :   0.9253 
B(  0-C ,  6-H ) :   0.9053 B(  1-C ,  2-H ) :   0.9265 B(  1-C ,  3-H ) :   0.9265 


-------
TIMINGS
-------

Total SCF time: 0 days 0 hours 1 min 32 sec 

Total time                  ....      92.717 sec
Sum of individual times     ....      82.112 sec  ( 88.6%)

Fock matrix formation       ....      69.075 sec  ( 74.5%)
  Split-RI-J                ....       5.439 sec  (  7.9% of F)
  Chain of spheres X        ....       6.954 sec  ( 10.1% of F)
  XC integration            ....      22.931 sec  ( 33.2% of F)
    Basis function eval.    ....       0.636 sec  (  2.8% of XC)
    Density eval.           ....       1.139 sec  (  5.0% of XC)
    XC-Functional eval.     ....       1.207 sec  (  5.3% of XC)
    XC-Potential eval.      ....       0.359 sec  (  1.6% of XC)
Diagonalization             ....       1.454 sec  (  1.6%)
Density matrix formation    ....       0.181 sec  (  0.2%)
Population analysis         ....       1.916 sec  (  2.1%)
Initial guess               ....       0.002 sec  (  0.0%)
Orbital Transformation      ....       0.000 sec  (  0.0%)
Orbital Orthonormalization  ....       0.000 sec  (  0.0%)
DIIS solution               ....       6.070 sec  (  6.5%)
Grid generation             ....       3.415 sec  (  3.7%)

Maximum memory used throughout the entire SCF-calculation: 45.4 MB


-------------------------------------------------------------------------------
                          DFT DISPERSION CORRECTION                            
                                                                               
                              DFTD3 V3.1  Rev 1                                
                          USING Becke-Johnson damping                          
-------------------------------------------------------------------------------
The PBEh-3c composite method is recognized
Using three-body term ABC
Active option DFTDOPT                   ...         4   

molecular C6(AA) [au] = 328.177928 


            DFT-D V3
 parameters
 s6 scaling factor         :     1.0000 
 a1 scaling factor         :     0.4860 
 s8 scaling factor         :     0.0000 
 a2 scaling factor         :     4.5000 
 Damping factor alpha9(ATM):    16.0000 
 ad hoc parameters k1-k3   :    16.0000     1.3333    -4.0000 

 Edisp/kcal,au: -0.988897045134  -0.001575907585 
 E6   /kcal   :  -0.989265272 
 E8   /kcal   :  -0.000000000 
 E6(ABC)      :   0.000368227 
 % E8         :   0.000000000 
 % E6(ABC)    :  -0.037236164 

-------------------------   ----------------
Dispersion correction           -0.001575908
-------------------------   ----------------

------------------   -----------------
gCP correction             0.005778866
------------------   -----------------

-------------------------   --------------------
FINAL SINGLE POINT ENERGY       -78.979936220518
-------------------------   --------------------


                            ***************************************
                            *     ORCA property calculations      *
                            ***************************************

                                    ---------------------
                                    Active property flags
                                    ---------------------
   (+) Dipole Moment


------------------------------------------------------------------------------
                       ORCA ELECTRIC PROPERTIES CALCULATION
------------------------------------------------------------------------------

Dipole Moment Calculation                       ... on
Quadrupole Moment Calculation                   ... off
Polarizability Calculation                      ... off
GBWName                                         ... pbeh-3c.gbw
Electron density                                ... pbeh-3c.scfp
The origin for moment calculation is the CENTER OF MASS  = ( 0.176826, -0.009588  0.000000)

-------------
DIPOLE MOMENT
-------------
                                X             Y             Z
Electronic contribution:      0.57535       0.00398       0.00000
Nuclear contribution   :     -0.67081       0.03637       0.00000
                        -----------------------------------------
Total Dipole Moment    :     -0.09546       0.04035       0.00000
                        -----------------------------------------
Magnitude (a.u.)       :      0.10364
Magnitude (Debye)      :      0.26343



--------------------
Rotational spectrum 
--------------------
 
Rotational constants in cm-1:     3.466837     0.765383     0.708836 
Rotational constants in MHz : 103933.161650 22945.606756 21250.371020 

 Dipole components along the rotational axes: 
x,y,z [a.u.] :     0.088410     0.000000     0.054082 
x,y,z [Debye]:     0.224720     0.000000     0.137465 

 

Timings for individual modules:

Sum of individual times         ...       96.288 sec (=   1.605 min)
GTO integral calculation        ...        2.645 sec (=   0.044 min)   2.7 %
SCF iterations                  ...       93.643 sec (=   1.561 min)  97.3 %
                             ****ORCA TERMINATED NORMALLY****
TOTAL RUN TIME: 0 days 0 hours 1 minutes 47 seconds 595 msec
