
                                 *****************
                                 * O   R   C   A *
                                 *****************

                                            #,                                       
                                            ###                                      
                                            ####                                     
                                            #####                                    
                                            ######                                   
                                           ########,                                 
                                     ,,################,,,,,                         
                               ,,#################################,,                 
                          ,,##########################################,,             
                       ,#########################################, ''#####,          
                    ,#############################################,,   '####,        
                  ,##################################################,,,,####,       
                ,###########''''           ''''###############################       
              ,#####''   ,,,,##########,,,,          '''####'''          '####       
            ,##' ,,,,###########################,,,                        '##       
           ' ,,###''''                  '''############,,,                           
         ,,##''                                '''############,,,,        ,,,,,,###''
      ,#''                                            '''#######################'''  
     '                                                          ''''####''''         
             ,#######,   #######,   ,#######,      ##                                
            ,#'     '#,  ##    ##  ,#'     '#,    #''#        ######   ,####,        
            ##       ##  ##   ,#'  ##            #'  '#       #        #'  '#        
            ##       ##  #######   ##           ,######,      #####,   #    #        
            '#,     ,#'  ##    ##  '#,     ,#' ,#      #,         ##   #,  ,#        
             '#######'   ##     ##  '#######'  #'      '#     #####' # '####'        



                  #######################################################
                  #                        -***-                        #
                  #          Department of theory and spectroscopy      #
                  #    Directorship and core code : Frank Neese         #
                  #        Max Planck Institute fuer Kohlenforschung    #
                  #                Kaiser Wilhelm Platz 1               #
                  #                 D-45470 Muelheim/Ruhr               #
                  #                      Germany                        #
                  #                                                     #
                  #                  All rights reserved                #
                  #                        -***-                        #
                  #######################################################


                         Program Version 5.0.3 -  RELEASE  -


 With contributions from (in alphabetic order):
   Daniel Aravena         : Magnetic Suceptibility
   Michael Atanasov       : Ab Initio Ligand Field Theory (pilot matlab implementation)
   Alexander A. Auer      : GIAO ZORA, VPT2 properties, NMR spectrum
   Ute Becker             : Parallelization
   Giovanni Bistoni       : ED, misc. LED, open-shell LED, HFLD
   Martin Brehm           : Molecular dynamics
   Dmytro Bykov           : SCF Hessian
   Vijay G. Chilkuri      : MRCI spin determinant printing, contributions to CSF-ICE
   Dipayan Datta          : RHF DLPNO-CCSD density
   Achintya Kumar Dutta   : EOM-CC, STEOM-CC
   Dmitry Ganyushin       : Spin-Orbit,Spin-Spin,Magnetic field MRCI
   Miquel Garcia          : C-PCM and meta-GGA Hessian, CC/C-PCM, Gaussian charge scheme
   Yang Guo               : DLPNO-NEVPT2, F12-NEVPT2, CIM, IAO-localization
   Andreas Hansen         : Spin unrestricted coupled pair/coupled cluster methods
   Benjamin Helmich-Paris : MC-RPA, TRAH-SCF, COSX integrals
   Lee Huntington         : MR-EOM, pCC
   Robert Izsak           : Overlap fitted RIJCOSX, COSX-SCS-MP3, EOM
   Marcus Kettner         : VPT2
   Christian Kollmar      : KDIIS, OOCD, Brueckner-CCSD(T), CCSD density, CASPT2, CASPT2-K
   Simone Kossmann        : Meta GGA functionals, TD-DFT gradient, OOMP2, MP2 Hessian
   Martin Krupicka        : Initial AUTO-CI
   Lucas Lang             : DCDCAS
   Marvin Lechner         : AUTO-CI (C++ implementation), FIC-MRCC
   Dagmar Lenk            : GEPOL surface, SMD
   Dimitrios Liakos       : Extrapolation schemes; Compound Job, initial MDCI parallelization
   Dimitrios Manganas     : Further ROCIS development; embedding schemes
   Dimitrios Pantazis     : SARC Basis sets
   Anastasios Papadopoulos: AUTO-CI, single reference methods and gradients
   Taras Petrenko         : DFT Hessian,TD-DFT gradient, ASA, ECA, R-Raman, ABS, FL, XAS/XES, NRVS
   Peter Pinski           : DLPNO-MP2, DLPNO-MP2 Gradient
   Christoph Reimann      : Effective Core Potentials
   Marius Retegan         : Local ZFS, SOC
   Christoph Riplinger    : Optimizer, TS searches, QM/MM, DLPNO-CCSD(T), (RO)-DLPNO pert. Triples
   Tobias Risthaus        : Range-separated hybrids, TD-DFT gradient, RPA, STAB
   Michael Roemelt        : Original ROCIS implementation
   Masaaki Saitow         : Open-shell DLPNO-CCSD energy and density
   Barbara Sandhoefer     : DKH picture change effects
   Avijit Sen             : IP-ROCIS
   Kantharuban Sivalingam : CASSCF convergence, NEVPT2, FIC-MRCI
   Bernardo de Souza      : ESD, SOC TD-DFT
   Georgi Stoychev        : AutoAux, RI-MP2 NMR, DLPNO-MP2 response
   Willem Van den Heuvel  : Paramagnetic NMR
   Boris Wezisla          : Elementary symmetry handling
   Frank Wennmohs         : Technical directorship


 We gratefully acknowledge several colleagues who have allowed us to
 interface, adapt or use parts of their codes:
   Stefan Grimme, W. Hujo, H. Kruse, P. Pracht,  : VdW corrections, initial TS optimization,
                  C. Bannwarth, S. Ehlert          DFT functionals, gCP, sTDA/sTD-DF
   Ed Valeev, F. Pavosevic, A. Kumar             : LibInt (2-el integral package), F12 methods
   Garnet Chan, S. Sharma, J. Yang, R. Olivares  : DMRG
   Ulf Ekstrom                                   : XCFun DFT Library
   Mihaly Kallay                                 : mrcc  (arbitrary order and MRCC methods)
   Jiri Pittner, Ondrej Demel                    : Mk-CCSD
   Frank Weinhold                                : gennbo (NPA and NBO analysis)
   Christopher J. Cramer and Donald G. Truhlar   : smd solvation model
   Lars Goerigk                                  : TD-DFT with DH, B97 family of functionals
   V. Asgeirsson, H. Jonsson                     : NEB implementation
   FAccTs GmbH                                   : IRC, NEB, NEB-TS, DLPNO-Multilevel, CI-OPT
                                                   MM, QMMM, 2- and 3-layer-ONIOM, Crystal-QMMM,
                                                   LR-CPCM, SF, NACMEs, symmetry and pop. for TD-DFT,
                                                   nearIR, NL-DFT gradient (VV10), updates on ESD,
                                                   ML-optimized integration grids
   S Lehtola, MJT Oliveira, MAL Marques          : LibXC Library
   Liviu Ungur et al                             : ANISO software


 Your calculation uses the libint2 library for the computation of 2-el integrals
 For citations please refer to: http://libint.valeyev.net

 Your ORCA version has been built with support for libXC version: 5.1.0
 For citations please refer to: https://tddft.org/programs/libxc/

 This ORCA versions uses:
   CBLAS   interface :  Fast vector & matrix operations
   LAPACKE interface :  Fast linear algebra routines
   SCALAPACK package :  Parallel linear algebra routines
   Shared memory     :  Shared parallel matrices
   BLAS/LAPACK       :  OpenBLAS 0.3.15  USE64BITINT DYNAMIC_ARCH NO_AFFINITY Haswell SINGLE_THREADED
        Core in use  :  Haswell
   Copyright (c) 2011-2014, The OpenBLAS Project




***************************************
The coordinates will be read from file: 66B.xyz
***************************************


Your calculation utilizes the geometrical counterpoise correction gCP
Please cite in your paper:
H.Kruse, S. Grimme J.Chem.Phys., 136, (2012), 154101 
   

Your calculation utilizes the atom-pairwise dispersion correction
with the Becke-Johnson damping scheme (D3BJ)
Cite in your paper:
S.Grimme, S.Ehrlich, L.Goerigk, J Comput Chem, (2011), 32, 1456–1465 
S.Grimme, J.Antony, S.Ehrlich and H.Krieg, J.Chem.Phys., 132, (2010), 154104 
   

Your calculation employs the composite approach PBEh-3c.
Please cite in your paper:
S. Grimme, J. G. Brandenburg, C. Bannwarth, A. Hansen J.Chem.Phys., 143, (2015), 054107 
   

================================================================================

----- Orbital basis set information -----
Your calculation utilizes the basis: def2-mSVP

----- AuxJ basis set information -----
Your calculation utilizes the auxiliary basis: def2/J
   F. Weigend, Phys. Chem. Chem. Phys. 8, 1057 (2006).

================================================================================
                                        WARNINGS
                       Please study these warnings very carefully!
================================================================================


INFO   : the flag for use of the SHARK integral package has been found!

================================================================================
                                       INPUT FILE
================================================================================
NAME = pbeh-3c.inp
|  1> ! PBEh-3c def2/J TightSCF DefGrid3
|  2> 
|  3> %maxcore 60000
|  4> 
|  5> %pal
|  6> nprocs 4
|  7> end
|  8> 
|  9> *xyzfile 0 1 66B.xyz
| 10> 
| 11>                          ****END OF INPUT****
================================================================================

                       ****************************
                       * Single Point Calculation *
                       ****************************

---------------------------------
CARTESIAN COORDINATES (ANGSTROEM)
---------------------------------
  N     -1.581248    0.304657    0.000000
  C     -1.109324   -0.950449    0.000000
  H     -1.853557   -1.736342    0.000000
  C      0.247078   -1.263590    0.000000
  H      0.563096   -2.296955    0.000000
  C      1.173568   -0.225977    0.000000
  H      2.235157   -0.430700    0.000000
  C      0.699516    1.081642    0.000000
  H      1.376897    1.923670    0.000000
  C     -0.676517    1.293409    0.000000
  H     -1.074664    2.300634    0.000000

----------------------------
CARTESIAN COORDINATES (A.U.)
----------------------------
  NO LB      ZA    FRAG     MASS         X           Y           Z
   0 N     7.0000    0    14.007   -2.988126    0.575718    0.000000
   1 C     6.0000    0    12.011   -2.096319   -1.796088    0.000000
   2 H     1.0000    0     1.008   -3.502716   -3.281212    0.000000
   3 C     6.0000    0    12.011    0.466909   -2.387839    0.000000
   4 H     1.0000    0     1.008    1.064097   -4.340615    0.000000
   5 C     6.0000    0    12.011    2.217722   -0.427034    0.000000
   6 H     1.0000    0     1.008    4.223835   -0.813906    0.000000
   7 C     6.0000    0    12.011    1.321894    2.044008    0.000000
   8 H     1.0000    0     1.008    2.601958    3.635210    0.000000
   9 C     6.0000    0    12.011   -1.278433    2.444189    0.000000
  10 H     1.0000    0     1.008   -2.030821    4.347569    0.000000

--------------------------------
INTERNAL COORDINATES (ANGSTROEM)
--------------------------------
 N      0   0   0     0.000000000000     0.00000000     0.00000000
 C      1   0   0     1.340896407772     0.00000000     0.00000000
 H      2   1   0     1.082363848471   115.95316167     0.00000000
 C      2   1   3     1.392078775360   123.60608176   180.00000000
 H      4   2   1     1.080606065528   120.00407789   180.00000000
 C      4   2   1     1.391052071663   118.76217296     0.00000000
 H      6   4   2     1.081149121490   120.84653156   180.00000085
 C      6   4   2     1.390896374630   118.31105605     0.00000000
 H      8   6   4     1.080673709650   121.25745242   180.00000000
 C      1   2   3     1.340212270957   116.93434674   180.00000000
 H     10   1   2     1.083062084031   115.97234997   180.00000000

---------------------------
INTERNAL COORDINATES (A.U.)
---------------------------
 N      0   0   0     0.000000000000     0.00000000     0.00000000
 C      1   0   0     2.533926984648     0.00000000     0.00000000
 H      2   1   0     2.045371250868   115.95316167     0.00000000
 C      2   1   3     2.630647642276   123.60608176   180.00000000
 H      4   2   1     2.042049522503   120.00407789   180.00000000
 C      4   2   1     2.628707453467   118.76217296     0.00000000
 H      6   4   2     2.043075749545   120.84653156   180.00000085
 C      6   4   2     2.628413228714   118.31105605     0.00000000
 H      8   6   4     2.042177351367   121.25745242   180.00000000
 C      1   2   3     2.532634153430   116.93434674   180.00000000
 H     10   1   2     2.046690724852   115.97234997   180.00000000

---------------------
BASIS SET INFORMATION
---------------------
There are 3 groups of distinct atoms

 Group   1 Type N   : 8s4p1d contracted to 4s2p1d pattern {5111/31/1}
 Group   2 Type C   : 8s4p1d contracted to 4s2p1d pattern {5111/31/1}
 Group   3 Type H   : 4s contracted to 2s pattern {31}

Atom   0N    basis set group =>   1
Atom   1C    basis set group =>   2
Atom   2H    basis set group =>   3
Atom   3C    basis set group =>   2
Atom   4H    basis set group =>   3
Atom   5C    basis set group =>   2
Atom   6H    basis set group =>   3
Atom   7C    basis set group =>   2
Atom   8H    basis set group =>   3
Atom   9C    basis set group =>   2
Atom  10H    basis set group =>   3
---------------------------------
AUXILIARY/J BASIS SET INFORMATION
---------------------------------
There are 3 groups of distinct atoms

 Group   1 Type N   : 12s5p4d2f1g contracted to 6s4p3d1f1g pattern {711111/2111/211/2/1}
 Group   2 Type C   : 12s5p4d2f1g contracted to 6s4p3d1f1g pattern {711111/2111/211/2/1}
 Group   3 Type H   : 5s2p1d contracted to 3s1p1d pattern {311/2/1}

Atom   0N    basis set group =>   1
Atom   1C    basis set group =>   2
Atom   2H    basis set group =>   3
Atom   3C    basis set group =>   2
Atom   4H    basis set group =>   3
Atom   5C    basis set group =>   2
Atom   6H    basis set group =>   3
Atom   7C    basis set group =>   2
Atom   8H    basis set group =>   3
Atom   9C    basis set group =>   2
Atom  10H    basis set group =>   3


           ************************************************************
           *        Program running with 4 parallel MPI-processes     *
           *              working on a common directory               *
           ************************************************************
------------------------------------------------------------------------------
                           ORCA GTO INTEGRAL CALCULATION
                           -- RI-GTO INTEGRALS CHOSEN --
------------------------------------------------------------------------------
------------------------------------------------------------------------------
                   ___                                                        
                  /   \      - P O W E R E D   B Y -                         
                 /     \                                                     
                 |  |  |   _    _      __       _____    __    __             
                 |  |  |  | |  | |    /  \     |  _  \  |  |  /  |          
                  \  \/   | |  | |   /    \    | | | |  |  | /  /          
                 / \  \   | |__| |  /  /\  \   | |_| |  |  |/  /          
                |  |  |   |  __  | /  /__\  \  |    /   |      \           
                |  |  |   | |  | | |   __   |  |    \   |  |\   \          
                \     /   | |  | | |  |  |  |  | |\  \  |  | \   \       
                 \___/    |_|  |_| |__|  |__|  |_| \__\ |__|  \__/        
                                                                              
                      - O R C A' S   B I G   F R I E N D -                    
                                      &                                       
                       - I N T E G R A L  F E E D E R -                       
                                                                              
 v1 FN, 2020, v2 2021                                                         
------------------------------------------------------------------------------


Reading SHARK input file pbeh-3c.SHARKINP.tmp ... ok
----------------------
SHARK INTEGRAL PACKAGE
----------------------

Number of atoms                             ...     11
Number of basis functions                   ...    100
Number of shells                            ...     52
Maximum angular momentum                    ...      2
Integral batch strategy                     ... SHARK/LIBINT Hybrid
RI-J (if used) integral strategy            ... SPLIT-RIJ (Revised 2003 algorithm where possible)
Printlevel                                  ...      1
Contraction scheme used                     ... SEGMENTED contraction
Coulomb Range Separation                    ... NOT USED
Exchange Range Separation                   ... NOT USED
Finite Nucleus Model                        ... NOT USED
Auxiliary Coulomb fitting basis             ... AVAILABLE
   # of basis functions in Aux-J            ...    349
   # of shells in Aux-J                     ...    115
   Maximum angular momentum in Aux-J        ...      4
Auxiliary J/K fitting basis                 ... NOT available
Auxiliary Correlation fitting basis         ... NOT available
Auxiliary 'external' fitting basis          ... NOT available
Integral threshold                          ...     2.500000e-11
Primitive cut-off                           ...     2.500000e-12
Primitive pair pre-selection threshold      ...     2.500000e-12

Calculating pre-screening integrals         ... done (  0.0 sec) Dimension = 52
Organizing shell pair data                  ... done (  0.5 sec)
Shell pair information
Total number of shell pairs                 ...      1378
Shell pairs after pre-screening             ...      1324
Total number of primitive shell pairs       ...      4944
Primitive shell pairs kept                  ...      3622
          la=0 lb=0:    541 shell pairs
          la=1 lb=0:    408 shell pairs
          la=1 lb=1:     78 shell pairs
          la=2 lb=0:    204 shell pairs
          la=2 lb=1:     72 shell pairs
          la=2 lb=2:     21 shell pairs

Calculating one electron integrals          ... done (  0.0 sec)
Calculating RI/J V-Matrix + Cholesky decomp.... done (  1.3 sec)
Calculating Nuclear repulsion               ... done (  0.3 sec) ENN=    206.235462973245 Eh

SHARK setup successfully completed in   3.3 seconds

Maximum memory used throughout the entire GTOINT-calculation: 10.1 MB


           ************************************************************
           *        Program running with 4 parallel MPI-processes     *
           *              working on a common directory               *
           ************************************************************
-------------------------------------------------------------------------------
                                 ORCA SCF
-------------------------------------------------------------------------------

------------
SCF SETTINGS
------------
Hamiltonian:
 Density Functional     Method          .... DFT(GTOs)
 Exchange Functional    Exchange        .... PBE
   PBE kappa parameter   XKappa         ....  1.024500
   PBE mue parameter    XMuePBE         ....  0.123457
 Correlation Functional Correlation     .... PBE
   PBE beta parameter  CBetaPBE         ....  0.030000
 LDA part of GGA corr.  LDAOpt          .... PW91-LDA
 Gradients option       PostSCFGGA      .... off
 Hybrid DFT is turned on
   Fraction HF Exchange ScalHFX         ....  0.420000
   Scaling of DF-GGA-X  ScalDFX         ....  0.580000
   Scaling of DF-GGA-C  ScalDFC         ....  1.000000
   Scaling of DF-LDA-C  ScalLDAC        ....  1.000000
   Perturbative correction              ....  0.000000
   Density functional embedding theory  .... OFF
 RI-approximation to the Coulomb term is turned on
   Number of AuxJ basis functions       .... 349
   RIJ-ON(X) (HFX calculated with O(N)) .... on
   Number of AuxJ basis functions       .... 349
   RIJ-COSX (HFX calculated with COS-X)).... on


General Settings:
 Integral files         IntName         .... pbeh-3c
 Hartree-Fock type      HFTyp           .... RHF
 Total Charge           Charge          ....    0
 Multiplicity           Mult            ....    1
 Number of Electrons    NEL             ....   42
 Basis Dimension        Dim             ....  100
 Nuclear Repulsion      ENuc            ....    206.2354629732 Eh

Convergence Acceleration:
 DIIS                   CNVDIIS         .... on
   Start iteration      DIISMaxIt       ....    12
   Startup error        DIISStart       ....  0.200000
   # of expansion vecs  DIISMaxEq       ....     5
   Bias factor          DIISBfac        ....   1.050
   Max. coefficient     DIISMaxC        ....  10.000
 Trust-Rad. Augm. Hess. CNVTRAH         .... auto
   Auto Start mean grad. ratio tolernc. ....  1.125000
   Auto Start start iteration           ....    20
   Auto Start num. interpolation iter.  ....    10
   Max. Number of Micro iterations      ....    16
   Max. Number of Macro iterations      .... Maxiter - #DIIS iter
   Number of Davidson start vectors     ....     2
   Converg. threshold I  (grad. norm)   ....   1.000e-05
   Converg. threshold II (energy diff.) ....   1.000e-08
   Grad. Scal. Fac. for Micro threshold ....   0.100
   Minimum threshold for Micro iter.    ....   0.010
   NR start threshold (gradient norm)   ....   0.001
   Initial trust radius                 ....   0.400
   Minimum AH scaling param. (alpha)    ....   1.000
   Maximum AH scaling param. (alpha)    .... 1000.000
   Orbital update algorithm             .... Taylor
   White noise on init. David. guess    .... on
   Maximum white noise                  ....   0.010
   Quad. conv. algorithm                .... NR
   COSX micro iterations for RIJONX calc.... off
 SOSCF                  CNVSOSCF        .... on
   Start iteration      SOSCFMaxIt      ....   150
   Startup grad/error   SOSCFStart      ....  0.003300
 Level Shifting         CNVShift        .... on
   Level shift para.    LevelShift      ....    0.2500
   Turn off err/grad.   ShiftErr        ....    0.0010
 Zerner damping         CNVZerner       .... off
 Static damping         CNVDamp         .... on
   Fraction old density DampFac         ....    0.7000
   Max. Damping (<1)    DampMax         ....    0.9800
   Min. Damping (>=0)   DampMin         ....    0.0000
   Turn off err/grad.   DampErr         ....    0.1000
 Fernandez-Rico         CNVRico         .... off

SCF Procedure:
 Maximum # iterations   MaxIter         ....   125
 SCF integral mode      SCFMode         .... Direct
   Integral package                     .... SHARK and LIBINT hybrid scheme
 Reset frequency        DirectResetFreq ....    20
 Integral Threshold     Thresh          ....  2.500e-11 Eh
 Primitive CutOff       TCut            ....  2.500e-12 Eh

Convergence Tolerance:
 Convergence Check Mode ConvCheckMode   .... Total+1el-Energy
 Convergence forced     ConvForced      .... 0
 Energy Change          TolE            ....  1.000e-08 Eh
 1-El. energy change                    ....  1.000e-05 Eh
 Orbital Gradient       TolG            ....  1.000e-05
 Orbital Rotation angle TolX            ....  1.000e-05
 DIIS Error             TolErr          ....  5.000e-07


Diagonalization of the overlap matrix:
Smallest eigenvalue                        ... 1.074e-03
Time for diagonalization                   ...    0.002 sec
Threshold for overlap eigenvalues          ... 1.000e-08
Number of eigenvalues below threshold      ... 0
Time for construction of square roots      ...    0.197 sec
Total time needed                          ...    0.213 sec

--------------------------------
INITIAL GUESS: MINIMAL BASIS EHT
--------------------------------
The minimal basis has 35 functions
EHT matrix was diagonalized
Basis set overlap was calculated now projecting the orbitals
Using GuessMode=FMatrix for the initial guess
C*T matrix was formed
Effective Fockian was calculated
Effective Fockian was diagonalized
Initial density was built
                      ------------------
                      INITIAL GUESS DONE
                      ------------------
-------------------
DFT GRID GENERATION
-------------------

General Integration Accuracy     IntAcc      ... 4.959
Radial Grid Type                 RadialGrid  ... OptM3 with GC (2021)
Angular Grid (max. ang.)         AngularGrid ... 6 (Lebedev-590)
Angular grid pruning method      GridPruning ... 4 (adaptive)
Weight generation scheme         WeightScheme... Becke
Basis function cutoff            BFCut       ... 1.0000e-11
Integration weight cutoff        WCut        ... 1.0000e-14
Angular grids for H and He will be reduced by one unit
Partially contracted basis set               ... off
Rotationally invariant grid construction     ... off

Total number of grid points                  ...   130051
Total number of batches                      ...     2038
Average number of points per batch           ...       63
Average number of grid points per atom       ...    11823
Time for grid setup =    3.727 sec

--------------------
COSX GRID GENERATION
--------------------

GRIDX 1
-------
General Integration Accuracy     IntAcc      ... 4.020
Radial Grid Type                 RadialGrid  ... OptM3 with GC (2021)
Angular Grid (max. ang.)         AngularGrid ... 2 (Lebedev-110)
Angular grid pruning method      GridPruning ... 4 (adaptive)
Weight generation scheme         WeightScheme... Becke
Basis function cutoff            BFCut       ... 1.0000e-11
Integration weight cutoff        WCut        ... 1.0000e-14
Angular grids for H and He will be reduced by one unit
Partially contracted basis set               ... on
Rotationally invariant grid construction     ... off

Total number of grid points                  ...    14777
Total number of batches                      ...      236
Average number of points per batch           ...       62
Average number of grid points per atom       ...     1343
UseSFitting                                  ... on

GRIDX 2
-------
General Integration Accuracy     IntAcc      ... 4.338
Radial Grid Type                 RadialGrid  ... OptM3 with GC (2021)
Angular Grid (max. ang.)         AngularGrid ... 3 (Lebedev-194)
Angular grid pruning method      GridPruning ... 4 (adaptive)
Weight generation scheme         WeightScheme... Becke
Basis function cutoff            BFCut       ... 1.0000e-11
Integration weight cutoff        WCut        ... 1.0000e-14
Angular grids for H and He will be reduced by one unit
Partially contracted basis set               ... on
Rotationally invariant grid construction     ... off

Total number of grid points                  ...    32531
Total number of batches                      ...      513
Average number of points per batch           ...       63
Average number of grid points per atom       ...     2957
UseSFitting                                  ... on

GRIDX 3
-------
General Integration Accuracy     IntAcc      ... 4.871
Radial Grid Type                 RadialGrid  ... OptM3 with GC (2021)
Angular Grid (max. ang.)         AngularGrid ... 4 (Lebedev-302)
Angular grid pruning method      GridPruning ... 4 (adaptive)
Weight generation scheme         WeightScheme... Becke
Basis function cutoff            BFCut       ... 1.0000e-11
Integration weight cutoff        WCut        ... 1.0000e-14
Angular grids for H and He will be reduced by one unit
Partially contracted basis set               ... on
Rotationally invariant grid construction     ... off

Total number of grid points                  ...    61770
Total number of batches                      ...      972
Average number of points per batch           ...       63
Average number of grid points per atom       ...     5615
UseSFitting                                  ... on

Time for X-Grid setup             =    4.301 sec

--------------
SCF ITERATIONS
--------------
ITER       Energy         Delta-E        Max-DP      RMS-DP      [F,P]     Damp
               ***  Starting incremental Fock matrix formation  ***
  0   -246.9755112584   0.000000000000 0.16900424  0.00663596  0.4155851 0.7000
  1   -247.2317827767  -0.256271518227 0.10621455  0.00425866  0.2915513 0.7000
  2   -247.3828723520  -0.151089575313 0.05634092  0.00273257  0.2045441 0.7000
                               ***Turning on DIIS***
  3   -247.4865411776  -0.103668825668 0.03205758  0.00194940  0.1442680 0.7000
  4   -247.5608705954  -0.074329417791 0.02704405  0.00154114  0.1014032 0.7000
  5   -247.6136942846  -0.052823689162 0.06705826  0.00382416  0.0709261 0.0000
                      *** Initiating the SOSCF procedure ***
                           *** Shutting down DIIS ***
                      *** Re-Reading the Fockian *** 
                      *** Removing any level shift *** 
ITER      Energy       Delta-E        Grad      Rot      Max-DP    RMS-DP
  6   -247.73958760  -0.1258933178  0.001793  0.001793  0.002808  0.000161
               *** Restarting incremental Fock matrix formation ***
  7   -247.73964984  -0.0000622335  0.000742  0.000911  0.002397  0.000099
  8   -247.73965689  -0.0000070552  0.000374  0.000657  0.000887  0.000041
  9   -247.73965950  -0.0000026124  0.000085  0.000134  0.000273  0.000013
 10   -247.73965967  -0.0000001654  0.000040  0.000084  0.000084  0.000005
 11   -247.73965969  -0.0000000163  0.000035  0.000057  0.000068  0.000003
 12   -247.73965970  -0.0000000113  0.000009  0.000022  0.000028  0.000001
 13   -247.73965970  -0.0000000028  0.000007  0.000010  0.000012  0.000000
                  ***Gradient check signals convergence***
              ***Rediagonalizing the Fockian in SOSCF/NRSCF***

               *****************************************************
               *                     SUCCESS                       *
               *           SCF CONVERGED AFTER  14 CYCLES          *
               *****************************************************

Old exchange energy                            =    -14.388797257 Eh
New exchange energy                            =    -14.388804449 Eh
Exchange energy change after final integration =     -0.000007192 Eh
Total energy after final integration           =   -247.739666892 Eh
Final COS-X integration done in                =     3.017 sec

----------------
TOTAL SCF ENERGY
----------------

Total Energy       :         -247.73966689 Eh           -6741.33906 eV

Components:
Nuclear Repulsion  :          206.23546297 Eh            5611.95225 eV
Electronic Energy  :         -453.97512986 Eh          -12353.29131 eV
One Electron Energy:         -741.75645696 Eh          -20184.21934 eV
Two Electron Energy:          287.78132710 Eh            7830.92803 eV
Max COSX asymmetry :            0.00000106 Eh               0.00003 eV

Virial components:
Potential Energy   :         -493.49689343 Eh          -13428.73317 eV
Kinetic Energy     :          245.75722653 Eh            6687.39411 eV
Virial Ratio       :            2.00806666


DFT components:
N(Alpha)           :       20.999999600702 electrons
N(Beta)            :       20.999999600702 electrons
N(Total)           :       41.999999201405 electrons
E(X)               :      -19.120032860431 Eh       
E(C)               :       -1.818222928842 Eh       
E(XC)              :      -20.938255789273 Eh       
DFET-embed. en.    :        0.000000000000 Eh       

---------------
SCF CONVERGENCE
---------------

  Last Energy change         ...    1.4364e-10  Tolerance :   1.0000e-08
  Last MAX-Density change    ...    9.9920e-16  Tolerance :   1.0000e-07
  Last RMS-Density change    ...    3.8516e-17  Tolerance :   5.0000e-09
  Last Orbital Gradient      ...    7.4816e-07  Tolerance :   1.0000e-05
  Last Orbital Rotation      ...    1.3620e-06  Tolerance :   1.0000e-05

             **** THE GBW FILE WAS UPDATED (pbeh-3c.gbw) ****
             **** DENSITY pbeh-3c.scfp WAS UPDATED ****
             **** ENERGY FILE WAS UPDATED (pbeh-3c.en.tmp) ****
             **** THE GBW FILE WAS UPDATED (pbeh-3c.gbw) ****
             **** DENSITY pbeh-3c.scfp WAS UPDATED ****
----------------
ORBITAL ENERGIES
----------------

  NO   OCC          E(Eh)            E(eV) 
   0   2.0000     -14.640364      -398.3846 
   1   2.0000     -10.483186      -285.2620 
   2   2.0000     -10.483151      -285.2610 
   3   2.0000     -10.471027      -284.9311 
   4   2.0000     -10.459266      -284.6111 
   5   2.0000     -10.459248      -284.6106 
   6   2.0000      -1.046223       -28.4692 
   7   2.0000      -0.901990       -24.5444 
   8   2.0000      -0.855005       -23.2659 
   9   2.0000      -0.710031       -19.3209 
  10   2.0000      -0.709636       -19.3102 
  11   2.0000      -0.601358       -16.3638 
  12   2.0000      -0.547227       -14.8908 
  13   2.0000      -0.537601       -14.6289 
  14   2.0000      -0.492434       -13.3998 
  15   2.0000      -0.468087       -12.7373 
  16   2.0000      -0.456175       -12.4132 
  17   2.0000      -0.422020       -11.4838 
  18   2.0000      -0.333464        -9.0740 
  19   2.0000      -0.313873        -8.5409 
  20   2.0000      -0.306285        -8.3344 
  21   0.0000      -0.004705        -0.1280 
  22   0.0000       0.008865         0.2412 
  23   0.0000       0.144920         3.9435 
  24   0.0000       0.182144         4.9564 
  25   0.0000       0.195958         5.3323 
  26   0.0000       0.203447         5.5361 
  27   0.0000       0.222993         6.0680 
  28   0.0000       0.235034         6.3956 
  29   0.0000       0.270085         7.3494 
  30   0.0000       0.314382         8.5548 
  31   0.0000       0.333797         9.0831 
  32   0.0000       0.339902         9.2492 
  33   0.0000       0.428042        11.6476 
  34   0.0000       0.481134        13.0923 
  35   0.0000       0.506989        13.7959 
  36   0.0000       0.546774        14.8785 
  37   0.0000       0.572763        15.5857 
  38   0.0000       0.581597        15.8261 
  39   0.0000       0.592252        16.1160 
  40   0.0000       0.613412        16.6918 
  41   0.0000       0.615177        16.7398 
  42   0.0000       0.635570        17.2947 
  43   0.0000       0.645439        17.5633 
  44   0.0000       0.676303        18.4032 
  45   0.0000       0.695413        18.9231 
  46   0.0000       0.735821        20.0227 
  47   0.0000       0.832701        22.6589 
  48   0.0000       0.922465        25.1015 
  49   0.0000       0.937291        25.5050 
  50   0.0000       0.946175        25.7467 
  51   0.0000       0.961392        26.1608 
  52   0.0000       0.962364        26.1873 
  53   0.0000       0.995639        27.0927 
  54   0.0000       1.026176        27.9237 
  55   0.0000       1.051828        28.6217 
  56   0.0000       1.053400        28.6645 
  57   0.0000       1.072197        29.1760 
  58   0.0000       1.085158        29.5287 
  59   0.0000       1.170186        31.8424 
  60   0.0000       1.198671        32.6175 
  61   0.0000       1.294908        35.2363 
  62   0.0000       1.305162        35.5153 
  63   0.0000       1.338342        36.4182 
  64   0.0000       1.424894        38.7733 
  65   0.0000       1.528471        41.5918 
  66   0.0000       1.530116        41.6366 
  67   0.0000       1.567360        42.6500 
  68   0.0000       1.575519        42.8720 
  69   0.0000       1.733974        47.1838 
  70   0.0000       1.780422        48.4478 
  71   0.0000       1.873873        50.9907 
  72   0.0000       1.891317        51.4654 
  73   0.0000       1.958734        53.2999 
  74   0.0000       2.051726        55.8303 
  75   0.0000       2.117394        57.6172 
  76   0.0000       2.180254        59.3277 
  77   0.0000       2.195878        59.7529 
  78   0.0000       2.234679        60.8087 
  79   0.0000       2.238236        60.9055 
  80   0.0000       2.241674        60.9990 
  81   0.0000       2.352084        64.0035 
  82   0.0000       2.380608        64.7796 
  83   0.0000       2.443819        66.4997 
  84   0.0000       2.545946        69.2787 
  85   0.0000       2.594627        70.6034 
  86   0.0000       2.684824        73.0578 
  87   0.0000       2.714135        73.8554 
  88   0.0000       2.763030        75.1859 
  89   0.0000       2.794559        76.0438 
  90   0.0000       2.829897        77.0054 
  91   0.0000       2.849386        77.5357 
  92   0.0000       3.081516        83.8523 
  93   0.0000       3.457806        94.0917 
  94   0.0000      13.323708       362.5565 
  95   0.0000      13.617792       370.5590 
  96   0.0000      13.861686       377.1957 
  97   0.0000      14.119842       384.2204 
  98   0.0000      14.313390       389.4871 
  99   0.0000      19.439807       528.9840 

                    ********************************
                    * MULLIKEN POPULATION ANALYSIS *
                    ********************************

-----------------------
MULLIKEN ATOMIC CHARGES
-----------------------
   0 N :   -0.360640
   1 C :   -0.037988
   2 H :    0.233648
   3 C :   -0.298071
   4 H :    0.232016
   5 C :   -0.133566
   6 H :    0.234969
   7 C :   -0.297835
   8 H :    0.232126
   9 C :   -0.038015
  10 H :    0.233356
Sum of atomic charges:   -0.0000000

--------------------------------
MULLIKEN REDUCED ORBITAL CHARGES
--------------------------------
  0 N s       :     3.616268  s :     3.616268
      pz      :     1.110350  p :     3.702165
      px      :     1.550707
      py      :     1.041108
      dz2     :     0.004770  d :     0.042207
      dxz     :     0.006934
      dyz     :     0.006879
      dx2y2   :     0.008136
      dxy     :     0.015488
  1 C s       :     3.162932  s :     3.162932
      pz      :     0.932804  p :     2.815905
      px      :     0.964589
      py      :     0.918512
      dz2     :     0.004496  d :     0.059151
      dxz     :     0.005481
      dyz     :     0.006836
      dx2y2   :     0.017288
      dxy     :     0.025051
  2 H s       :     0.766352  s :     0.766352
  3 C s       :     3.266565  s :     3.266565
      pz      :     1.009521  p :     2.993260
      px      :     0.904836
      py      :     1.078904
      dz2     :     0.003913  d :     0.038246
      dxz     :     0.005374
      dyz     :     0.002871
      dx2y2   :     0.014194
      dxy     :     0.011895
  4 H s       :     0.767984  s :     0.767984
  5 C s       :     3.227917  s :     3.227917
      pz      :     0.940670  p :     2.865182
      px      :     1.016147
      py      :     0.908365
      dz2     :     0.003789  d :     0.040467
      dxz     :     0.002716
      dyz     :     0.006923
      dx2y2   :     0.015136
      dxy     :     0.011903
  6 H s       :     0.765031  s :     0.765031
  7 C s       :     3.266583  s :     3.266583
      pz      :     1.009391  p :     2.993004
      px      :     0.979581
      py      :     1.004032
      dz2     :     0.003912  d :     0.038249
      dxz     :     0.004274
      dyz     :     0.003968
      dx2y2   :     0.011569
      dxy     :     0.014525
  8 H s       :     0.767874  s :     0.767874
  9 C s       :     3.162679  s :     3.162679
      pz      :     0.932674  p :     2.816130
      px      :     0.909608
      py      :     0.973849
      dz2     :     0.004496  d :     0.059205
      dxz     :     0.008066
      dyz     :     0.004269
      dx2y2   :     0.022945
      dxy     :     0.019428
 10 H s       :     0.766644  s :     0.766644


                     *******************************
                     * LOEWDIN POPULATION ANALYSIS *
                     *******************************

----------------------
LOEWDIN ATOMIC CHARGES
----------------------
   0 N :   -0.139984
   1 C :   -0.056472
   2 H :    0.130422
   3 C :   -0.164494
   4 H :    0.141952
   5 C :   -0.103684
   6 H :    0.141027
   7 C :   -0.164517
   8 H :    0.142014
   9 C :   -0.056553
  10 H :    0.130289

-------------------------------
LOEWDIN REDUCED ORBITAL CHARGES
-------------------------------
  0 N s       :     3.214754  s :     3.214754
      pz      :     1.097742  p :     3.835129
      px      :     1.567681
      py      :     1.169706
      dz2     :     0.008667  d :     0.090101
      dxz     :     0.007863
      dyz     :     0.015495
      dx2y2   :     0.022512
      dxy     :     0.035565
  1 C s       :     2.888630  s :     2.888630
      pz      :     0.928097  p :     3.036809
      px      :     1.079676
      py      :     1.029037
      dz2     :     0.008381  d :     0.131034
      dxz     :     0.010666
      dyz     :     0.012196
      dx2y2   :     0.041930
      dxy     :     0.057861
  2 H s       :     0.869578  s :     0.869578
  3 C s       :     2.902942  s :     2.902942
      pz      :     0.996476  p :     3.173811
      px      :     1.094257
      py      :     1.083078
      dz2     :     0.006544  d :     0.087741
      dxz     :     0.011207
      dyz     :     0.004491
      dx2y2   :     0.034608
      dxy     :     0.030891
  4 H s       :     0.858048  s :     0.858048
  5 C s       :     2.897359  s :     2.897359
      pz      :     0.934443  p :     3.115446
      px      :     1.085097
      py      :     1.095905
      dz2     :     0.006266  d :     0.090879
      dxz     :     0.004114
      dyz     :     0.014308
      dx2y2   :     0.035677
      dxy     :     0.030514
  6 H s       :     0.858973  s :     0.858973
  7 C s       :     2.903018  s :     2.903018
      pz      :     0.996355  p :     3.173753
      px      :     1.092526
      py      :     1.084872
      dz2     :     0.006546  d :     0.087746
      dxz     :     0.008425
      dyz     :     0.007267
      dx2y2   :     0.030414
      dxy     :     0.035094
  8 H s       :     0.857986  s :     0.857986
  9 C s       :     2.888513  s :     2.888513
      pz      :     0.927957  p :     3.036851
      px      :     1.063051
      py      :     1.045843
      dz2     :     0.008386  d :     0.131189
      dxz     :     0.016166
      dyz     :     0.006734
      dx2y2   :     0.055804
      dxy     :     0.044100
 10 H s       :     0.869711  s :     0.869711


                      *****************************
                      * MAYER POPULATION ANALYSIS *
                      *****************************

  NA   - Mulliken gross atomic population
  ZA   - Total nuclear charge
  QA   - Mulliken gross atomic charge
  VA   - Mayer's total valence
  BVA  - Mayer's bonded valence
  FA   - Mayer's free valence

  ATOM       NA         ZA         QA         VA         BVA        FA
  0 N      7.3606     7.0000    -0.3606     3.1175     3.1175     0.0000
  1 C      6.0380     6.0000    -0.0380     3.8446     3.8446     0.0000
  2 H      0.7664     1.0000     0.2336     0.9021     0.9021    -0.0000
  3 C      6.2981     6.0000    -0.2981     3.7976     3.7976    -0.0000
  4 H      0.7680     1.0000     0.2320     0.9127     0.9127    -0.0000
  5 C      6.1336     6.0000    -0.1336     3.7529     3.7529     0.0000
  6 H      0.7650     1.0000     0.2350     0.9062     0.9062    -0.0000
  7 C      6.2978     6.0000    -0.2978     3.7973     3.7973    -0.0000
  8 H      0.7679     1.0000     0.2321     0.9127     0.9127    -0.0000
  9 C      6.0380     6.0000    -0.0380     3.8450     3.8450    -0.0000
 10 H      0.7666     1.0000     0.2334     0.9023     0.9023    -0.0000

  Mayer bond orders larger than 0.100000
B(  0-N ,  1-C ) :   1.4966 B(  0-N ,  9-C ) :   1.4983 B(  1-C ,  2-H ) :   0.9171 
B(  1-C ,  3-C ) :   1.3831 B(  3-C ,  4-H ) :   0.9130 B(  3-C ,  5-C ) :   1.4136 
B(  5-C ,  6-H ) :   0.9183 B(  5-C ,  7-C ) :   1.4142 B(  7-C ,  8-H ) :   0.9129 
B(  7-C ,  9-C ) :   1.3820 B(  9-C , 10-H ) :   0.9172 

-------
TIMINGS
-------

Total SCF time: 0 days 0 hours 1 min 19 sec 

Total time                  ....      79.658 sec
Sum of individual times     ....      74.096 sec  ( 93.0%)

Fock matrix formation       ....      61.342 sec  ( 77.0%)
  Split-RI-J                ....       6.890 sec  ( 11.2% of F)
  Chain of spheres X        ....      22.443 sec  ( 36.6% of F)
  XC integration            ....      16.058 sec  ( 26.2% of F)
    Basis function eval.    ....       2.834 sec  ( 17.6% of XC)
    Density eval.           ....       1.697 sec  ( 10.6% of XC)
    XC-Functional eval.     ....       1.310 sec  (  8.2% of XC)
    XC-Potential eval.      ....       0.968 sec  (  6.0% of XC)
Diagonalization             ....       0.716 sec  (  0.9%)
Density matrix formation    ....       0.253 sec  (  0.3%)
Population analysis         ....       0.574 sec  (  0.7%)
Initial guess               ....       0.015 sec  (  0.0%)
Orbital Transformation      ....       0.000 sec  (  0.0%)
Orbital Orthonormalization  ....       0.000 sec  (  0.0%)
DIIS solution               ....       2.134 sec  (  2.7%)
SOSCF solution              ....       1.034 sec  (  1.3%)
Grid generation             ....       8.028 sec  ( 10.1%)

Maximum memory used throughout the entire SCF-calculation: 50.2 MB


-------------------------------------------------------------------------------
                          DFT DISPERSION CORRECTION                            
                                                                               
                              DFTD3 V3.1  Rev 1                                
                          USING Becke-Johnson damping                          
-------------------------------------------------------------------------------
The PBEh-3c composite method is recognized
Using three-body term ABC
Active option DFTDOPT                   ...         4   

molecular C6(AA) [au] = 1465.656365 


            DFT-D V3
 parameters
 s6 scaling factor         :     1.0000 
 a1 scaling factor         :     0.4860 
 s8 scaling factor         :     0.0000 
 a2 scaling factor         :     4.5000 
 Damping factor alpha9(ATM):    16.0000 
 ad hoc parameters k1-k3   :    16.0000     1.3333    -4.0000 

 Edisp/kcal,au: -3.339886431126  -0.005322447250 
 E6   /kcal   :  -3.344280775 
 E8   /kcal   :  -0.000000000 
 E6(ABC)      :   0.004394344 
 % E8         :   0.000000000 
 % E6(ABC)    :  -0.131571651 

-------------------------   ----------------
Dispersion correction           -0.005322447
-------------------------   ----------------

------------------   -----------------
gCP correction             0.015648364
------------------   -----------------

-------------------------   --------------------
FINAL SINGLE POINT ENERGY      -247.729340974917
-------------------------   --------------------


                            ***************************************
                            *     ORCA property calculations      *
                            ***************************************

                                    ---------------------
                                    Active property flags
                                    ---------------------
   (+) Dipole Moment


------------------------------------------------------------------------------
                       ORCA ELECTRIC PROPERTIES CALCULATION
------------------------------------------------------------------------------

Dipole Moment Calculation                       ... on
Quadrupole Moment Calculation                   ... off
Polarizability Calculation                      ... off
GBWName                                         ... pbeh-3c.gbw
Electron density                                ... pbeh-3c.scfp
The origin for moment calculation is the CENTER OF MASS  = (-0.403166,  0.077533  0.000000)

-------------
DIPOLE MOMENT
-------------
                                X             Y             Z
Electronic contribution:     -1.30477       0.25003      -0.00000
Nuclear contribution   :      2.16309      -0.41588       0.00000
                        -----------------------------------------
Total Dipole Moment    :      0.85832      -0.16585      -0.00000
                        -----------------------------------------
Magnitude (a.u.)       :      0.87420
Magnitude (Debye)      :      2.22203



--------------------
Rotational spectrum 
--------------------
 
Rotational constants in cm-1:     0.202001     0.194087     0.098982 
Rotational constants in MHz :  6055.827130  5818.588906  2967.419067 

 Dipole components along the rotational axes: 
x,y,z [a.u.] :    -0.874150    -0.009082    -0.000000 
x,y,z [Debye]:    -2.221913    -0.023084    -0.000000 

 

Timings for individual modules:

Sum of individual times         ...       85.406 sec (=   1.423 min)
GTO integral calculation        ...        4.263 sec (=   0.071 min)   5.0 %
SCF iterations                  ...       81.143 sec (=   1.352 min)  95.0 %
                             ****ORCA TERMINATED NORMALLY****
TOTAL RUN TIME: 0 days 0 hours 1 minutes 27 seconds 473 msec
