
                                 *****************
                                 * O   R   C   A *
                                 *****************

                                            #,                                       
                                            ###                                      
                                            ####                                     
                                            #####                                    
                                            ######                                   
                                           ########,                                 
                                     ,,################,,,,,                         
                               ,,#################################,,                 
                          ,,##########################################,,             
                       ,#########################################, ''#####,          
                    ,#############################################,,   '####,        
                  ,##################################################,,,,####,       
                ,###########''''           ''''###############################       
              ,#####''   ,,,,##########,,,,          '''####'''          '####       
            ,##' ,,,,###########################,,,                        '##       
           ' ,,###''''                  '''############,,,                           
         ,,##''                                '''############,,,,        ,,,,,,###''
      ,#''                                            '''#######################'''  
     '                                                          ''''####''''         
             ,#######,   #######,   ,#######,      ##                                
            ,#'     '#,  ##    ##  ,#'     '#,    #''#        ######   ,####,        
            ##       ##  ##   ,#'  ##            #'  '#       #        #'  '#        
            ##       ##  #######   ##           ,######,      #####,   #    #        
            '#,     ,#'  ##    ##  '#,     ,#' ,#      #,         ##   #,  ,#        
             '#######'   ##     ##  '#######'  #'      '#     #####' # '####'        



                  #######################################################
                  #                        -***-                        #
                  #          Department of theory and spectroscopy      #
                  #    Directorship and core code : Frank Neese         #
                  #        Max Planck Institute fuer Kohlenforschung    #
                  #                Kaiser Wilhelm Platz 1               #
                  #                 D-45470 Muelheim/Ruhr               #
                  #                      Germany                        #
                  #                                                     #
                  #                  All rights reserved                #
                  #                        -***-                        #
                  #######################################################


                         Program Version 5.0.3 -  RELEASE  -


 With contributions from (in alphabetic order):
   Daniel Aravena         : Magnetic Suceptibility
   Michael Atanasov       : Ab Initio Ligand Field Theory (pilot matlab implementation)
   Alexander A. Auer      : GIAO ZORA, VPT2 properties, NMR spectrum
   Ute Becker             : Parallelization
   Giovanni Bistoni       : ED, misc. LED, open-shell LED, HFLD
   Martin Brehm           : Molecular dynamics
   Dmytro Bykov           : SCF Hessian
   Vijay G. Chilkuri      : MRCI spin determinant printing, contributions to CSF-ICE
   Dipayan Datta          : RHF DLPNO-CCSD density
   Achintya Kumar Dutta   : EOM-CC, STEOM-CC
   Dmitry Ganyushin       : Spin-Orbit,Spin-Spin,Magnetic field MRCI
   Miquel Garcia          : C-PCM and meta-GGA Hessian, CC/C-PCM, Gaussian charge scheme
   Yang Guo               : DLPNO-NEVPT2, F12-NEVPT2, CIM, IAO-localization
   Andreas Hansen         : Spin unrestricted coupled pair/coupled cluster methods
   Benjamin Helmich-Paris : MC-RPA, TRAH-SCF, COSX integrals
   Lee Huntington         : MR-EOM, pCC
   Robert Izsak           : Overlap fitted RIJCOSX, COSX-SCS-MP3, EOM
   Marcus Kettner         : VPT2
   Christian Kollmar      : KDIIS, OOCD, Brueckner-CCSD(T), CCSD density, CASPT2, CASPT2-K
   Simone Kossmann        : Meta GGA functionals, TD-DFT gradient, OOMP2, MP2 Hessian
   Martin Krupicka        : Initial AUTO-CI
   Lucas Lang             : DCDCAS
   Marvin Lechner         : AUTO-CI (C++ implementation), FIC-MRCC
   Dagmar Lenk            : GEPOL surface, SMD
   Dimitrios Liakos       : Extrapolation schemes; Compound Job, initial MDCI parallelization
   Dimitrios Manganas     : Further ROCIS development; embedding schemes
   Dimitrios Pantazis     : SARC Basis sets
   Anastasios Papadopoulos: AUTO-CI, single reference methods and gradients
   Taras Petrenko         : DFT Hessian,TD-DFT gradient, ASA, ECA, R-Raman, ABS, FL, XAS/XES, NRVS
   Peter Pinski           : DLPNO-MP2, DLPNO-MP2 Gradient
   Christoph Reimann      : Effective Core Potentials
   Marius Retegan         : Local ZFS, SOC
   Christoph Riplinger    : Optimizer, TS searches, QM/MM, DLPNO-CCSD(T), (RO)-DLPNO pert. Triples
   Tobias Risthaus        : Range-separated hybrids, TD-DFT gradient, RPA, STAB
   Michael Roemelt        : Original ROCIS implementation
   Masaaki Saitow         : Open-shell DLPNO-CCSD energy and density
   Barbara Sandhoefer     : DKH picture change effects
   Avijit Sen             : IP-ROCIS
   Kantharuban Sivalingam : CASSCF convergence, NEVPT2, FIC-MRCI
   Bernardo de Souza      : ESD, SOC TD-DFT
   Georgi Stoychev        : AutoAux, RI-MP2 NMR, DLPNO-MP2 response
   Willem Van den Heuvel  : Paramagnetic NMR
   Boris Wezisla          : Elementary symmetry handling
   Frank Wennmohs         : Technical directorship


 We gratefully acknowledge several colleagues who have allowed us to
 interface, adapt or use parts of their codes:
   Stefan Grimme, W. Hujo, H. Kruse, P. Pracht,  : VdW corrections, initial TS optimization,
                  C. Bannwarth, S. Ehlert          DFT functionals, gCP, sTDA/sTD-DF
   Ed Valeev, F. Pavosevic, A. Kumar             : LibInt (2-el integral package), F12 methods
   Garnet Chan, S. Sharma, J. Yang, R. Olivares  : DMRG
   Ulf Ekstrom                                   : XCFun DFT Library
   Mihaly Kallay                                 : mrcc  (arbitrary order and MRCC methods)
   Jiri Pittner, Ondrej Demel                    : Mk-CCSD
   Frank Weinhold                                : gennbo (NPA and NBO analysis)
   Christopher J. Cramer and Donald G. Truhlar   : smd solvation model
   Lars Goerigk                                  : TD-DFT with DH, B97 family of functionals
   V. Asgeirsson, H. Jonsson                     : NEB implementation
   FAccTs GmbH                                   : IRC, NEB, NEB-TS, DLPNO-Multilevel, CI-OPT
                                                   MM, QMMM, 2- and 3-layer-ONIOM, Crystal-QMMM,
                                                   LR-CPCM, SF, NACMEs, symmetry and pop. for TD-DFT,
                                                   nearIR, NL-DFT gradient (VV10), updates on ESD,
                                                   ML-optimized integration grids
   S Lehtola, MJT Oliveira, MAL Marques          : LibXC Library
   Liviu Ungur et al                             : ANISO software


 Your calculation uses the libint2 library for the computation of 2-el integrals
 For citations please refer to: http://libint.valeyev.net

 Your ORCA version has been built with support for libXC version: 5.1.0
 For citations please refer to: https://tddft.org/programs/libxc/

 This ORCA versions uses:
   CBLAS   interface :  Fast vector & matrix operations
   LAPACKE interface :  Fast linear algebra routines
   SCALAPACK package :  Parallel linear algebra routines
   Shared memory     :  Shared parallel matrices
   BLAS/LAPACK       :  OpenBLAS 0.3.15  USE64BITINT DYNAMIC_ARCH NO_AFFINITY Haswell SINGLE_THREADED
        Core in use  :  Haswell
   Copyright (c) 2011-2014, The OpenBLAS Project




***************************************
The coordinates will be read from file: 33.xyz
***************************************


Your calculation utilizes the geometrical counterpoise correction gCP
Please cite in your paper:
H.Kruse, S. Grimme J.Chem.Phys., 136, (2012), 154101 
   

Your calculation utilizes the atom-pairwise dispersion correction
with the Becke-Johnson damping scheme (D3BJ)
Cite in your paper:
S.Grimme, S.Ehrlich, L.Goerigk, J Comput Chem, (2011), 32, 1456–1465 
S.Grimme, J.Antony, S.Ehrlich and H.Krieg, J.Chem.Phys., 132, (2010), 154104 
   

Your calculation employs the composite approach PBEh-3c.
Please cite in your paper:
S. Grimme, J. G. Brandenburg, C. Bannwarth, A. Hansen J.Chem.Phys., 143, (2015), 054107 
   

================================================================================

----- Orbital basis set information -----
Your calculation utilizes the basis: def2-mSVP

----- AuxJ basis set information -----
Your calculation utilizes the auxiliary basis: def2/J
   F. Weigend, Phys. Chem. Chem. Phys. 8, 1057 (2006).

================================================================================
                                        WARNINGS
                       Please study these warnings very carefully!
================================================================================


WARNING: your system is open-shell and RHF/RKS was chosen
  ===> : WILL SWITCH to UHF/UKS


INFO   : the flag for use of the SHARK integral package has been found!

================================================================================
                                       INPUT FILE
================================================================================
NAME = pbeh-3c.inp
|  1> ! PBEh-3c def2/J TightSCF DefGrid3
|  2> 
|  3> %maxcore 60000
|  4> 
|  5> %pal
|  6> nprocs 4
|  7> end
|  8> 
|  9> *xyzfile 0 2 33.xyz
| 10> 
| 11>                          ****END OF INPUT****
================================================================================

                       ****************************
                       * Single Point Calculation *
                       ****************************

---------------------------------
CARTESIAN COORDINATES (ANGSTROEM)
---------------------------------
  H      1.580097    0.368326    1.076548
  H      0.183427    1.705775   -1.747028
  H     -0.315310   -0.246337   -3.096367
  N     -0.069008    0.918569   -1.147630
  Al    -0.644615    1.403238    0.571294
  C     -1.470431   -1.306278   -1.303907
  S      0.360485   -0.969750    2.567866
  F      2.305015    0.235044   -0.467214
  H     -1.678108   -2.225698   -1.838410
  S     -2.524611    0.214142    1.191651
  H      1.125152    1.221281    2.455274
  H      1.384113    0.453283   -0.849305
  H      1.626382   -1.311217    2.898840
  B     -0.612618   -0.214721   -1.932235
  N      0.804116    0.552888    1.752352
  B     -2.054085   -0.798543   -0.131730

----------------------------
CARTESIAN COORDINATES (A.U.)
----------------------------
  NO LB      ZA    FRAG     MASS         X           Y           Z
   0 H     1.0000    0     1.008    2.985950    0.696035    2.034382
   1 H     1.0000    0     1.008    0.346627    3.223447   -3.301404
   2 H     1.0000    0     1.008   -0.595850   -0.465509   -5.851286
   3 N     7.0000    0    14.007   -0.130407    1.735843   -2.168706
   4 Al   13.0000    0    26.982   -1.218146    2.651736    1.079590
   5 C     6.0000    0    12.011   -2.778712   -2.468509   -2.464028
   6 S    16.0000    0    32.060    0.681218   -1.832562    4.852564
   7 F     9.0000    0    18.998    4.355847    0.444168   -0.882906
   8 H     1.0000    0     1.008   -3.171164   -4.205959   -3.474090
   9 S    16.0000    0    32.060   -4.770824    0.404671    2.251894
  10 H     1.0000    0     1.008    2.126229    2.307886    4.639795
  11 H     1.0000    0     1.008    2.615594    0.856582   -1.604954
  12 H     1.0000    0     1.008    3.073416   -2.477842    5.478014
  13 B     5.0000    0    10.810   -1.157680   -0.405765   -3.651394
  14 N     7.0000    0    14.007    1.519560    1.044807    3.311465
  15 B     5.0000    0    10.810   -3.881657   -1.509028   -0.248934

--------------------------------
INTERNAL COORDINATES (ANGSTROEM)
--------------------------------
 H      0   0   0     0.000000000000     0.00000000     0.00000000
 H      1   0   0     3.422285629945     0.00000000     0.00000000
 H      2   1   0     2.424911245772   103.20467928     0.00000000
 N      2   1   3     1.021124185735    46.78828507    45.05799779
 Al     4   2   1     1.876413549512   114.48406370    68.23879235
 C      3   2   1     2.381321661319    92.24884689    51.47037254
 S      1   2   3     2.345618838675   122.36431771   294.01492001
 F      1   2   3     1.710693352370    57.23748310    64.37242737
 H      6   3   2     1.083583916582    95.70151734   182.84296743
 S      5   4   2     2.309366851591   111.27274847   135.56116390
 H      1   2   3     1.683861636120   111.55049330   216.92069951
 H      8   1   2     1.020628954645    86.49283016   341.03384527
 H      7   1   2     1.352271671437    79.21748765   160.63526708
 B      3   2   1     1.201913501156    59.38561272    46.98680736
 N     11   1   2     1.021719885201    35.92455997    74.83653265
 B      6   3   2     1.404437857896   131.98267425    20.39006514

---------------------------
INTERNAL COORDINATES (A.U.)
---------------------------
 H      0   0   0     0.000000000000     0.00000000     0.00000000
 H      1   0   0     6.467182592651     0.00000000     0.00000000
 H      2   1   0     4.582418153576   103.20467928     0.00000000
 N      2   1   3     1.929645059762    46.78828507    45.05799779
 Al     4   2   1     3.545907722557   114.48406370    68.23879235
 C      3   2   1     4.500045776667    92.24884689    51.47037254
 S      1   2   3     4.432577219662   122.36431771   294.01492001
 F      1   2   3     3.232741935099    57.23748310    64.37242737
 H      6   3   2     2.047676845462    95.70151734   182.84296743
 S      5   4   2     4.364070892263   111.27274847   135.56116390
 H      1   2   3     3.182037339683   111.55049330   216.92069951
 H      8   1   2     1.928709208629    86.49283016   341.03384527
 H      7   1   2     2.555423117676    79.21748765   160.63526708
 B      3   2   1     2.271287353847    59.38561272    46.98680736
 N     11   1   2     1.930770768612    35.92455997    74.83653265
 B      6   3   2     2.654002923535   131.98267425    20.39006514

---------------------
BASIS SET INFORMATION
---------------------
There are 7 groups of distinct atoms

 Group   1 Type H   : 4s contracted to 2s pattern {31}
 Group   2 Type N   : 8s4p1d contracted to 4s2p1d pattern {5111/31/1}
 Group   3 Type Al  : 10s7p1d contracted to 4s3p1d pattern {5311/511/1}
 Group   4 Type C   : 8s4p1d contracted to 4s2p1d pattern {5111/31/1}
 Group   5 Type S   : 10s7p1d contracted to 4s3p1d pattern {5311/511/1}
 Group   6 Type F   : 8s4p1d contracted to 4s2p1d pattern {5111/31/1}
 Group   7 Type B   : 8s4p1d contracted to 4s2p1d pattern {5111/31/1}

Atom   0H    basis set group =>   1
Atom   1H    basis set group =>   1
Atom   2H    basis set group =>   1
Atom   3N    basis set group =>   2
Atom   4Al   basis set group =>   3
Atom   5C    basis set group =>   4
Atom   6S    basis set group =>   5
Atom   7F    basis set group =>   6
Atom   8H    basis set group =>   1
Atom   9S    basis set group =>   5
Atom  10H    basis set group =>   1
Atom  11H    basis set group =>   1
Atom  12H    basis set group =>   1
Atom  13B    basis set group =>   7
Atom  14N    basis set group =>   2
Atom  15B    basis set group =>   7
---------------------------------
AUXILIARY/J BASIS SET INFORMATION
---------------------------------
There are 7 groups of distinct atoms

 Group   1 Type H   : 5s2p1d contracted to 3s1p1d pattern {311/2/1}
 Group   2 Type N   : 12s5p4d2f1g contracted to 6s4p3d1f1g pattern {711111/2111/211/2/1}
 Group   3 Type Al  : 14s5p5d2f1g contracted to 8s4p3d1f1g pattern {71111111/2111/311/2/1}
 Group   4 Type C   : 12s5p4d2f1g contracted to 6s4p3d1f1g pattern {711111/2111/211/2/1}
 Group   5 Type S   : 14s5p5d2f1g contracted to 8s4p3d1f1g pattern {71111111/2111/311/2/1}
 Group   6 Type F   : 12s5p4d2f1g contracted to 6s4p3d1f1g pattern {711111/2111/211/2/1}
 Group   7 Type B   : 12s5p4d2f1g contracted to 6s4p3d1f1g pattern {711111/2111/211/2/1}

Atom   0H    basis set group =>   1
Atom   1H    basis set group =>   1
Atom   2H    basis set group =>   1
Atom   3N    basis set group =>   2
Atom   4Al   basis set group =>   3
Atom   5C    basis set group =>   4
Atom   6S    basis set group =>   5
Atom   7F    basis set group =>   6
Atom   8H    basis set group =>   1
Atom   9S    basis set group =>   5
Atom  10H    basis set group =>   1
Atom  11H    basis set group =>   1
Atom  12H    basis set group =>   1
Atom  13B    basis set group =>   7
Atom  14N    basis set group =>   2
Atom  15B    basis set group =>   7


           ************************************************************
           *        Program running with 4 parallel MPI-processes     *
           *              working on a common directory               *
           ************************************************************
------------------------------------------------------------------------------
                           ORCA GTO INTEGRAL CALCULATION
                           -- RI-GTO INTEGRALS CHOSEN --
------------------------------------------------------------------------------
------------------------------------------------------------------------------
                   ___                                                        
                  /   \      - P O W E R E D   B Y -                         
                 /     \                                                     
                 |  |  |   _    _      __       _____    __    __             
                 |  |  |  | |  | |    /  \     |  _  \  |  |  /  |          
                  \  \/   | |  | |   /    \    | | | |  |  | /  /          
                 / \  \   | |__| |  /  /\  \   | |_| |  |  |/  /          
                |  |  |   |  __  | /  /__\  \  |    /   |      \           
                |  |  |   | |  | | |   __   |  |    \   |  |\   \          
                \     /   | |  | | |  |  |  |  | |\  \  |  | \   \       
                 \___/    |_|  |_| |__|  |__|  |_| \__\ |__|  \__/        
                                                                              
                      - O R C A' S   B I G   F R I E N D -                    
                                      &                                       
                       - I N T E G R A L  F E E D E R -                       
                                                                              
 v1 FN, 2020, v2 2021                                                         
------------------------------------------------------------------------------


Reading SHARK input file pbeh-3c.SHARKINP.tmp ... ok
----------------------
SHARK INTEGRAL PACKAGE
----------------------

Number of atoms                             ...     16
Number of basis functions                   ...    158
Number of shells                            ...     80
Maximum angular momentum                    ...      2
Integral batch strategy                     ... SHARK/LIBINT Hybrid
RI-J (if used) integral strategy            ... SPLIT-RIJ (Revised 2003 algorithm where possible)
Printlevel                                  ...      1
Contraction scheme used                     ... SEGMENTED contraction
Coulomb Range Separation                    ... NOT USED
Exchange Range Separation                   ... NOT USED
Finite Nucleus Model                        ... NOT USED
Auxiliary Coulomb fitting basis             ... AVAILABLE
   # of basis functions in Aux-J            ...    524
   # of shells in Aux-J                     ...    176
   Maximum angular momentum in Aux-J        ...      4
Auxiliary J/K fitting basis                 ... NOT available
Auxiliary Correlation fitting basis         ... NOT available
Auxiliary 'external' fitting basis          ... NOT available
Integral threshold                          ...     2.500000e-11
Primitive cut-off                           ...     2.500000e-12
Primitive pair pre-selection threshold      ...     2.500000e-12

Calculating pre-screening integrals         ... done (  0.1 sec) Dimension = 80
Organizing shell pair data                  ... done (  0.3 sec)
Shell pair information
Total number of shell pairs                 ...      3240
Shell pairs after pre-screening             ...      2837
Total number of primitive shell pairs       ...     13048
Primitive shell pairs kept                  ...      7594
          la=0 lb=0:   1034 shell pairs
          la=1 lb=0:    951 shell pairs
          la=1 lb=1:    224 shell pairs
          la=2 lb=0:    400 shell pairs
          la=2 lb=1:    183 shell pairs
          la=2 lb=2:     45 shell pairs

Calculating one electron integrals          ... done (  0.1 sec)
Calculating RI/J V-Matrix + Cholesky decomp.... done (  0.4 sec)
Calculating Nuclear repulsion               ... done (  0.0 sec) ENN=    662.256719155127 Eh

SHARK setup successfully completed in   2.8 seconds

Maximum memory used throughout the entire GTOINT-calculation: 11.6 MB


           ************************************************************
           *        Program running with 4 parallel MPI-processes     *
           *              working on a common directory               *
           ************************************************************
-------------------------------------------------------------------------------
                                 ORCA SCF
-------------------------------------------------------------------------------

------------
SCF SETTINGS
------------
Hamiltonian:
 Density Functional     Method          .... DFT(GTOs)
 Exchange Functional    Exchange        .... PBE
   PBE kappa parameter   XKappa         ....  1.024500
   PBE mue parameter    XMuePBE         ....  0.123457
 Correlation Functional Correlation     .... PBE
   PBE beta parameter  CBetaPBE         ....  0.030000
 LDA part of GGA corr.  LDAOpt          .... PW91-LDA
 Gradients option       PostSCFGGA      .... off
 Hybrid DFT is turned on
   Fraction HF Exchange ScalHFX         ....  0.420000
   Scaling of DF-GGA-X  ScalDFX         ....  0.580000
   Scaling of DF-GGA-C  ScalDFC         ....  1.000000
   Scaling of DF-LDA-C  ScalLDAC        ....  1.000000
   Perturbative correction              ....  0.000000
   Density functional embedding theory  .... OFF
 RI-approximation to the Coulomb term is turned on
   Number of AuxJ basis functions       .... 524
   RIJ-ON(X) (HFX calculated with O(N)) .... on
   Number of AuxJ basis functions       .... 524
   RIJ-COSX (HFX calculated with COS-X)).... on


General Settings:
 Integral files         IntName         .... pbeh-3c
 Hartree-Fock type      HFTyp           .... UHF
 Total Charge           Charge          ....    0
 Multiplicity           Mult            ....    2
 Number of Electrons    NEL             ....   91
 Basis Dimension        Dim             ....  158
 Nuclear Repulsion      ENuc            ....    662.2567191551 Eh

Convergence Acceleration:
 DIIS                   CNVDIIS         .... on
   Start iteration      DIISMaxIt       ....    12
   Startup error        DIISStart       ....  0.200000
   # of expansion vecs  DIISMaxEq       ....     5
   Bias factor          DIISBfac        ....   1.050
   Max. coefficient     DIISMaxC        ....  10.000
 Trust-Rad. Augm. Hess. CNVTRAH         .... auto
   Auto Start mean grad. ratio tolernc. ....  1.125000
   Auto Start start iteration           ....    20
   Auto Start num. interpolation iter.  ....    10
   Max. Number of Micro iterations      ....    16
   Max. Number of Macro iterations      .... Maxiter - #DIIS iter
   Number of Davidson start vectors     ....     2
   Converg. threshold I  (grad. norm)   ....   1.000e-05
   Converg. threshold II (energy diff.) ....   1.000e-08
   Grad. Scal. Fac. for Micro threshold ....   0.100
   Minimum threshold for Micro iter.    ....   0.010
   NR start threshold (gradient norm)   ....   0.001
   Initial trust radius                 ....   0.400
   Minimum AH scaling param. (alpha)    ....   1.000
   Maximum AH scaling param. (alpha)    .... 1000.000
   Orbital update algorithm             .... Taylor
   White noise on init. David. guess    .... on
   Maximum white noise                  ....   0.010
   Quad. conv. algorithm                .... NR
   COSX micro iterations for RIJONX calc.... off
 SOSCF                  CNVSOSCF        .... off
 Level Shifting         CNVShift        .... on
   Level shift para.    LevelShift      ....    0.2500
   Turn off err/grad.   ShiftErr        ....    0.0010
 Zerner damping         CNVZerner       .... off
 Static damping         CNVDamp         .... on
   Fraction old density DampFac         ....    0.7000
   Max. Damping (<1)    DampMax         ....    0.9800
   Min. Damping (>=0)   DampMin         ....    0.0000
   Turn off err/grad.   DampErr         ....    0.1000
 Fernandez-Rico         CNVRico         .... off

SCF Procedure:
 Maximum # iterations   MaxIter         ....   125
 SCF integral mode      SCFMode         .... Direct
   Integral package                     .... SHARK and LIBINT hybrid scheme
 Reset frequency        DirectResetFreq ....    20
 Integral Threshold     Thresh          ....  2.500e-11 Eh
 Primitive CutOff       TCut            ....  2.500e-12 Eh

Convergence Tolerance:
 Convergence Check Mode ConvCheckMode   .... Total+1el-Energy
 Convergence forced     ConvForced      .... 0
 Energy Change          TolE            ....  1.000e-08 Eh
 1-El. energy change                    ....  1.000e-05 Eh
 DIIS Error             TolErr          ....  5.000e-07


Diagonalization of the overlap matrix:
Smallest eigenvalue                        ... 5.412e-03
Time for diagonalization                   ...    0.006 sec
Threshold for overlap eigenvalues          ... 1.000e-08
Number of eigenvalues below threshold      ... 0
Time for construction of square roots      ...    0.144 sec
Total time needed                          ...    0.151 sec

--------------------------------
INITIAL GUESS: MINIMAL BASIS EHT
--------------------------------
The minimal basis has 64 functions
EHT matrix was diagonalized
Basis set overlap was calculated now projecting the orbitals
Using GuessMode=FMatrix for the initial guess
C*T matrix was formed
Effective Fockian was calculated
Effective Fockian was diagonalized
Initial density was built
                      ------------------
                      INITIAL GUESS DONE
                      ------------------
-------------------
DFT GRID GENERATION
-------------------

General Integration Accuracy     IntAcc      ... 4.959
Radial Grid Type                 RadialGrid  ... OptM3 with GC (2021)
Angular Grid (max. ang.)         AngularGrid ... 6 (Lebedev-590)
Angular grid pruning method      GridPruning ... 4 (adaptive)
Weight generation scheme         WeightScheme... Becke
Basis function cutoff            BFCut       ... 1.0000e-11
Integration weight cutoff        WCut        ... 1.0000e-14
Angular grids for H and He will be reduced by one unit
Partially contracted basis set               ... off
Rotationally invariant grid construction     ... off

Total number of grid points                  ...   194779
Total number of batches                      ...     3051
Average number of points per batch           ...       63
Average number of grid points per atom       ...    12174
Time for grid setup =    4.725 sec

--------------------
COSX GRID GENERATION
--------------------

GRIDX 1
-------
General Integration Accuracy     IntAcc      ... 4.020
Radial Grid Type                 RadialGrid  ... OptM3 with GC (2021)
Angular Grid (max. ang.)         AngularGrid ... 2 (Lebedev-110)
Angular grid pruning method      GridPruning ... 4 (adaptive)
Weight generation scheme         WeightScheme... Becke
Basis function cutoff            BFCut       ... 1.0000e-11
Integration weight cutoff        WCut        ... 1.0000e-14
Angular grids for H and He will be reduced by one unit
Partially contracted basis set               ... on
Rotationally invariant grid construction     ... off

Total number of grid points                  ...    21963
Total number of batches                      ...      352
Average number of points per batch           ...       62
Average number of grid points per atom       ...     1373
UseSFitting                                  ... on

GRIDX 2
-------
General Integration Accuracy     IntAcc      ... 4.338
Radial Grid Type                 RadialGrid  ... OptM3 with GC (2021)
Angular Grid (max. ang.)         AngularGrid ... 3 (Lebedev-194)
Angular grid pruning method      GridPruning ... 4 (adaptive)
Weight generation scheme         WeightScheme... Becke
Basis function cutoff            BFCut       ... 1.0000e-11
Integration weight cutoff        WCut        ... 1.0000e-14
Angular grids for H and He will be reduced by one unit
Partially contracted basis set               ... on
Rotationally invariant grid construction     ... off

Total number of grid points                  ...    49866
Total number of batches                      ...      788
Average number of points per batch           ...       63
Average number of grid points per atom       ...     3117
UseSFitting                                  ... on

GRIDX 3
-------
General Integration Accuracy     IntAcc      ... 4.871
Radial Grid Type                 RadialGrid  ... OptM3 with GC (2021)
Angular Grid (max. ang.)         AngularGrid ... 4 (Lebedev-302)
Angular grid pruning method      GridPruning ... 4 (adaptive)
Weight generation scheme         WeightScheme... Becke
Basis function cutoff            BFCut       ... 1.0000e-11
Integration weight cutoff        WCut        ... 1.0000e-14
Angular grids for H and He will be reduced by one unit
Partially contracted basis set               ... on
Rotationally invariant grid construction     ... off

Total number of grid points                  ...    92851
Total number of batches                      ...     1458
Average number of points per batch           ...       63
Average number of grid points per atom       ...     5803
UseSFitting                                  ... on

Time for X-Grid setup             =    7.095 sec

--------------
SCF ITERATIONS
--------------
ITER       Energy         Delta-E        Max-DP      RMS-DP      [F,P]     Damp
               ***  Starting incremental Fock matrix formation  ***
  0  -1336.1209804395   0.000000000000 0.20467522  0.00418924  0.3378638 0.7000
  1  -1336.9059252427  -0.784944803215 0.08426683  0.00230458  0.1537373 0.7000
                               ***Turning on DIIS***
  2  -1337.3143042313  -0.408378988571 0.05591795  0.00150080  0.1021932 0.7000
  3  -1337.5940773975  -0.279773166276 0.16752961  0.00417696  0.0699519 0.0000
  4  -1338.3250426599  -0.730965262335 0.06300661  0.00094554  0.0176166 0.0000
  5  -1338.3450665636  -0.020023903681 0.03928305  0.00058930  0.0152167 0.0000
  6  -1338.3561995656  -0.011133002085 0.03088889  0.00052206  0.0126488 0.0000
  7  -1338.3666441187  -0.010444553050 0.02198613  0.00041804  0.0124095 0.0000
  8  -1338.3752341815  -0.008590062810 0.01463637  0.00028436  0.0116223 0.0000
  9  -1338.3807523358  -0.005518154277 0.00936867  0.00017835  0.0115480 0.0000
 10  -1338.3834170128  -0.002664677034 0.00643569  0.00012378  0.0131747 0.0000
 11  -1338.3850785272  -0.001661514366 0.00765062  0.00018915  0.0140430 0.0000
 12  -1338.3892109492  -0.004132422075 0.01782020  0.00032832  0.0133234 0.0000
 13  -1338.3958550279  -0.006644078691 0.03603165  0.00066396  0.0108482 0.0000
 14  -1338.4065988337  -0.010743805761 0.01444363  0.00040604  0.0088853 0.0000
 15  -1338.4121728752  -0.005574041475 0.01371201  0.00037353  0.0072372 0.0000
 16  -1338.4160800859  -0.003907210758 0.01247892  0.00032162  0.0052654 0.0000
 17  -1338.4183903952  -0.002310309287 0.00542521  0.00017761  0.0035633 0.0000
 18  -1338.4192755113  -0.000885116120 0.00359537  0.00012224  0.0023752 0.0000
 19  -1338.4196603112  -0.000384799883 0.00249555  0.00007715  0.0014897 0.0000
               *** Restarting incremental Fock matrix formation ***
                                   *** Resetting DIIS ***
 20  -1338.4198674316  -0.000207120366 0.00281656  0.00007514  0.0009717 0.0000
               *** Restarting incremental Fock matrix formation ***
                                   *** Resetting DIIS ***
 21  -1338.4199210560  -0.000053624371 0.00099423  0.00003273  0.0006460 0.0000
 22  -1338.4199395177  -0.000018461727 0.00044990  0.00001229  0.0003651 0.0000
 23  -1338.4199441266  -0.000004608954 0.00073762  0.00001731  0.0003330 0.0000
 24  -1338.4199476158  -0.000003489188 0.00020391  0.00000553  0.0001196 0.0000
 25  -1338.4199479879  -0.000000372066 0.00011857  0.00000226  0.0000646 0.0000
 26  -1338.4199480829  -0.000000095042 0.00004547  0.00000084  0.0000244 0.0000
 27  -1338.4199480990  -0.000000016036 0.00001627  0.00000043  0.0000112 0.0000
 28  -1338.4199481007  -0.000000001697 0.00001246  0.00000029  0.0000055 0.0000
 29  -1338.4199481041  -0.000000003428 0.00000411  0.00000011  0.0000031 0.0000
 30  -1338.4199481034   0.000000000694 0.00000245  0.00000008  0.0000015 0.0000
                 **** Energy Check signals convergence ****

               *****************************************************
               *                     SUCCESS                       *
               *           SCF CONVERGED AFTER  31 CYCLES          *
               *****************************************************

Old exchange energy                            =    -44.932306495 Eh
New exchange energy                            =    -44.932309315 Eh
Exchange energy change after final integration =     -0.000002820 Eh
Total energy after final integration           =  -1338.419950921 Eh
Final COS-X integration done in                =     6.973 sec

----------------
TOTAL SCF ENERGY
----------------

Total Energy       :        -1338.41995092 Eh          -36420.25843 eV

Components:
Nuclear Repulsion  :          662.25671916 Eh           18020.92149 eV
Electronic Energy  :        -2000.67667008 Eh          -54441.17993 eV
One Electron Energy:        -3166.68510555 Eh          -86169.88251 eV
Two Electron Energy:         1166.00843547 Eh           31728.70259 eV
Max COSX asymmetry :            0.00000070 Eh               0.00002 eV

Virial components:
Potential Energy   :        -2672.85173637 Eh          -72731.99337 eV
Kinetic Energy     :         1334.43178545 Eh           36311.73493 eV
Virial Ratio       :            2.00298866


DFT components:
N(Alpha)           :       46.000003822741 electrons
N(Beta)            :       45.000002247185 electrons
N(Total)           :       91.000006069925 electrons
E(X)               :      -59.859122644616 Eh       
E(C)               :       -4.291291194111 Eh       
E(XC)              :      -64.150413838727 Eh       
DFET-embed. en.    :        0.000000000000 Eh       

---------------
SCF CONVERGENCE
---------------

  Last Energy change         ...    1.8963e-09  Tolerance :   1.0000e-08
  Last MAX-Density change    ...    0.0000e+00  Tolerance :   1.0000e-07
  Last RMS-Density change    ...    0.0000e+00  Tolerance :   5.0000e-09
  Last DIIS Error            ...    1.0052e-06  Tolerance :   5.0000e-07

             **** THE GBW FILE WAS UPDATED (pbeh-3c.gbw) ****
             **** DENSITY pbeh-3c.scfp WAS UPDATED ****
             **** ENERGY FILE WAS UPDATED (pbeh-3c.en.tmp) ****
----------------------
UHF SPIN CONTAMINATION
----------------------

Warning: in a DFT calculation there is little theoretical justification to 
         calculate <S**2> as in Hartree-Fock theory. We will do it anyways
         but you should keep in mind that the values have only limited relevance

Expectation value of <S**2>     :     0.751508
Ideal value S*(S+1) for S=0.5   :     0.750000
Deviation                       :     0.001508

             **** THE GBW FILE WAS UPDATED (pbeh-3c.gbw) ****
             **** DENSITY pbeh-3c.scfp WAS UPDATED ****
----------------
ORBITAL ENERGIES
----------------
                 SPIN UP ORBITALS
  NO   OCC          E(Eh)            E(eV) 
   0   1.0000     -89.650750     -2439.5209 
   1   1.0000     -89.586502     -2437.7727 
   2   1.0000     -56.647978     -1541.4698 
   3   1.0000     -25.045503      -681.5228 
   4   1.0000     -14.737563      -401.0295 
   5   1.0000     -14.628087      -398.0505 
   6   1.0000     -10.386588      -282.6334 
   7   1.0000      -8.287975      -225.5273 
   8   1.0000      -8.227326      -223.8769 
   9   1.0000      -7.004621      -190.6054 
  10   1.0000      -6.955341      -189.2645 
  11   1.0000      -6.181065      -168.1953 
  12   1.0000      -6.175266      -168.0375 
  13   1.0000      -6.168228      -167.8460 
  14   1.0000      -6.116084      -166.4271 
  15   1.0000      -6.115408      -166.4087 
  16   1.0000      -6.111966      -166.3150 
  17   1.0000      -4.380656      -119.2037 
  18   1.0000      -2.871278       -78.1314 
  19   1.0000      -2.868872       -78.0660 
  20   1.0000      -2.866819       -78.0101 
  21   1.0000      -1.263982       -34.3947 
  22   1.0000      -1.060177       -28.8489 
  23   1.0000      -0.936961       -25.4960 
  24   1.0000      -0.824701       -22.4412 
  25   1.0000      -0.819956       -22.3121 
  26   1.0000      -0.743284       -20.2258 
  27   1.0000      -0.637459       -17.3461 
  28   1.0000      -0.589268       -16.0348 
  29   1.0000      -0.578195       -15.7335 
  30   1.0000      -0.552475       -15.0336 
  31   1.0000      -0.535760       -14.5788 
  32   1.0000      -0.508556       -13.8385 
  33   1.0000      -0.473448       -12.8832 
  34   1.0000      -0.457224       -12.4417 
  35   1.0000      -0.447072       -12.1654 
  36   1.0000      -0.440013       -11.9734 
  37   1.0000      -0.432457       -11.7677 
  38   1.0000      -0.420476       -11.4417 
  39   1.0000      -0.387033       -10.5317 
  40   1.0000      -0.368934       -10.0392 
  41   1.0000      -0.350800        -9.5458 
  42   1.0000      -0.340834        -9.2746 
  43   1.0000      -0.331839        -9.0298 
  44   1.0000      -0.251965        -6.8563 
  45   1.0000      -0.232063        -6.3148 
  46   0.0000      -0.027974        -0.7612 
  47   0.0000      -0.009015        -0.2453 
  48   0.0000       0.026398         0.7183 
  49   0.0000       0.035956         0.9784 
  50   0.0000       0.046893         1.2760 
  51   0.0000       0.075917         2.0658 
  52   0.0000       0.088006         2.3948 
  53   0.0000       0.109035         2.9670 
  54   0.0000       0.115706         3.1485 
  55   0.0000       0.132669         3.6101 
  56   0.0000       0.166426         4.5287 
  57   0.0000       0.191669         5.2156 
  58   0.0000       0.208125         5.6634 
  59   0.0000       0.222776         6.0621 
  60   0.0000       0.248301         6.7566 
  61   0.0000       0.253238         6.8910 
  62   0.0000       0.267353         7.2751 
  63   0.0000       0.285952         7.7811 
  64   0.0000       0.313205         8.5227 
  65   0.0000       0.323976         8.8158 
  66   0.0000       0.351807         9.5732 
  67   0.0000       0.379343        10.3224 
  68   0.0000       0.385285        10.4841 
  69   0.0000       0.396786        10.7971 
  70   0.0000       0.406375        11.0580 
  71   0.0000       0.418251        11.3812 
  72   0.0000       0.428268        11.6538 
  73   0.0000       0.446779        12.1575 
  74   0.0000       0.465046        12.6545 
  75   0.0000       0.487971        13.2784 
  76   0.0000       0.516744        14.0613 
  77   0.0000       0.538211        14.6455 
  78   0.0000       0.551469        15.0062 
  79   0.0000       0.587263        15.9802 
  80   0.0000       0.609295        16.5798 
  81   0.0000       0.620213        16.8769 
  82   0.0000       0.635898        17.3037 
  83   0.0000       0.658929        17.9304 
  84   0.0000       0.670167        18.2362 
  85   0.0000       0.686255        18.6740 
  86   0.0000       0.706267        19.2185 
  87   0.0000       0.717515        19.5246 
  88   0.0000       0.727353        19.7923 
  89   0.0000       0.749321        20.3901 
  90   0.0000       0.773974        21.0609 
  91   0.0000       0.794157        21.6101 
  92   0.0000       0.806746        21.9527 
  93   0.0000       0.829576        22.5739 
  94   0.0000       0.845428        23.0053 
  95   0.0000       0.854506        23.2523 
  96   0.0000       0.879687        23.9375 
  97   0.0000       0.902002        24.5447 
  98   0.0000       0.928720        25.2718 
  99   0.0000       0.943266        25.6676 
 100   0.0000       0.954626        25.9767 
 101   0.0000       0.972803        26.4713 
 102   0.0000       1.002636        27.2831 
 103   0.0000       1.013841        27.5880 
 104   0.0000       1.048339        28.5267 
 105   0.0000       1.059386        28.8274 
 106   0.0000       1.069732        29.1089 
 107   0.0000       1.073809        29.2198 
 108   0.0000       1.108211        30.1559 
 109   0.0000       1.125117        30.6160 
 110   0.0000       1.149817        31.2881 
 111   0.0000       1.189126        32.3578 
 112   0.0000       1.197986        32.5989 
 113   0.0000       1.222358        33.2620 
 114   0.0000       1.233675        33.5700 
 115   0.0000       1.267174        34.4815 
 116   0.0000       1.283778        34.9334 
 117   0.0000       1.286597        35.0101 
 118   0.0000       1.296458        35.2784 
 119   0.0000       1.329801        36.1857 
 120   0.0000       1.358110        36.9561 
 121   0.0000       1.386812        37.7371 
 122   0.0000       1.513448        41.1830 
 123   0.0000       1.521586        41.4045 
 124   0.0000       1.596878        43.4533 
 125   0.0000       1.619148        44.0593 
 126   0.0000       1.651247        44.9327 
 127   0.0000       1.709474        46.5172 
 128   0.0000       1.746610        47.5277 
 129   0.0000       1.778744        48.4021 
 130   0.0000       1.787859        48.6501 
 131   0.0000       1.818045        49.4715 
 132   0.0000       1.875944        51.0470 
 133   0.0000       1.889209        51.4080 
 134   0.0000       1.959376        53.3173 
 135   0.0000       2.007498        54.6268 
 136   0.0000       2.021580        55.0100 
 137   0.0000       2.160361        58.7864 
 138   0.0000       2.186589        59.5001 
 139   0.0000       2.206874        60.0521 
 140   0.0000       2.270360        61.7796 
 141   0.0000       2.297982        62.5313 
 142   0.0000       2.333757        63.5048 
 143   0.0000       2.382038        64.8185 
 144   0.0000       2.466332        67.1123 
 145   0.0000       2.480682        67.5028 
 146   0.0000       2.518903        68.5428 
 147   0.0000       2.604191        70.8636 
 148   0.0000       2.779416        75.6318 
 149   0.0000       2.915032        79.3221 
 150   0.0000       2.959379        80.5288 
 151   0.0000       3.002054        81.6900 
 152   0.0000       9.226399       251.0631 
 153   0.0000       9.290116       252.7969 
 154   0.0000      13.981730       380.4622 
 155   0.0000      19.066514       518.8262 
 156   0.0000      19.189975       522.1858 
 157   0.0000      32.678408       889.2247 

                 SPIN DOWN ORBITALS
  NO   OCC          E(Eh)            E(eV) 
   0   1.0000     -89.650621     -2439.5174 
   1   1.0000     -89.586205     -2437.7646 
   2   1.0000     -56.644402     -1541.3725 
   3   1.0000     -25.045501      -681.5227 
   4   1.0000     -14.736168      -400.9915 
   5   1.0000     -14.626787      -398.0151 
   6   1.0000     -10.386651      -282.6351 
   7   1.0000      -8.287828      -225.5233 
   8   1.0000      -8.226939      -223.8664 
   9   1.0000      -7.004133      -190.5921 
  10   1.0000      -6.955041      -189.2563 
  11   1.0000      -6.180658      -168.1843 
  12   1.0000      -6.175174      -168.0350 
  13   1.0000      -6.168135      -167.8435 
  14   1.0000      -6.115690      -166.4164 
  15   1.0000      -6.114887      -166.3945 
  16   1.0000      -6.111704      -166.3079 
  17   1.0000      -4.374846      -119.0456 
  18   1.0000      -2.865803       -77.9825 
  19   1.0000      -2.864589       -77.9494 
  20   1.0000      -2.861466       -77.8644 
  21   1.0000      -1.263960       -34.3941 
  22   1.0000      -1.057891       -28.7867 
  23   1.0000      -0.933948       -25.4140 
  24   1.0000      -0.822938       -22.3933 
  25   1.0000      -0.817698       -22.2507 
  26   1.0000      -0.742879       -20.2148 
  27   1.0000      -0.636021       -17.3070 
  28   1.0000      -0.587230       -15.9793 
  29   1.0000      -0.577952       -15.7269 
  30   1.0000      -0.550528       -14.9806 
  31   1.0000      -0.528703       -14.3868 
  32   1.0000      -0.504238       -13.7210 
  33   1.0000      -0.470082       -12.7916 
  34   1.0000      -0.456375       -12.4186 
  35   1.0000      -0.446868       -12.1599 
  36   1.0000      -0.436357       -11.8739 
  37   1.0000      -0.430765       -11.7217 
  38   1.0000      -0.417308       -11.3555 
  39   1.0000      -0.383531       -10.4364 
  40   1.0000      -0.367621       -10.0035 
  41   1.0000      -0.347355        -9.4520 
  42   1.0000      -0.338776        -9.2186 
  43   1.0000      -0.331124        -9.0104 
  44   1.0000      -0.250239        -6.8094 
  45   0.0000      -0.072341        -1.9685 
  46   0.0000      -0.019168        -0.5216 
  47   0.0000       0.004155         0.1131 
  48   0.0000       0.027861         0.7581 
  49   0.0000       0.045991         1.2515 
  50   0.0000       0.067647         1.8408 
  51   0.0000       0.086716         2.3597 
  52   0.0000       0.098505         2.6804 
  53   0.0000       0.112632         3.0649 
  54   0.0000       0.124049         3.3755 
  55   0.0000       0.136955         3.7267 
  56   0.0000       0.171297         4.6612 
  57   0.0000       0.192986         5.2514 
  58   0.0000       0.209567         5.7026 
  59   0.0000       0.231803         6.3077 
  60   0.0000       0.251058         6.8316 
  61   0.0000       0.255843         6.9618 
  62   0.0000       0.271497         7.3878 
  63   0.0000       0.290789         7.9128 
  64   0.0000       0.317545         8.6408 
  65   0.0000       0.328829         8.9479 
  66   0.0000       0.363306         9.8860 
  67   0.0000       0.381449        10.3797 
  68   0.0000       0.394472        10.7341 
  69   0.0000       0.405599        11.0369 
  70   0.0000       0.416164        11.3244 
  71   0.0000       0.427325        11.6281 
  72   0.0000       0.434344        11.8191 
  73   0.0000       0.453697        12.3457 
  74   0.0000       0.476984        12.9794 
  75   0.0000       0.500315        13.6143 
  76   0.0000       0.529264        14.4020 
  77   0.0000       0.551295        15.0015 
  78   0.0000       0.555298        15.1104 
  79   0.0000       0.589772        16.0485 
  80   0.0000       0.612094        16.6559 
  81   0.0000       0.626190        17.0395 
  82   0.0000       0.639661        17.4061 
  83   0.0000       0.661762        18.0075 
  84   0.0000       0.671663        18.2769 
  85   0.0000       0.692235        18.8367 
  86   0.0000       0.707900        19.2629 
  87   0.0000       0.721009        19.6197 
  88   0.0000       0.728871        19.8336 
  89   0.0000       0.751836        20.4585 
  90   0.0000       0.780520        21.2390 
  91   0.0000       0.798021        21.7153 
  92   0.0000       0.809208        22.0197 
  93   0.0000       0.831650        22.6303 
  94   0.0000       0.847353        23.0577 
  95   0.0000       0.859057        23.3761 
  96   0.0000       0.881997        24.0004 
  97   0.0000       0.905152        24.6304 
  98   0.0000       0.932317        25.3696 
  99   0.0000       0.945429        25.7264 
 100   0.0000       0.955895        26.0112 
 101   0.0000       0.974175        26.5087 
 102   0.0000       1.003635        27.3103 
 103   0.0000       1.016909        27.6715 
 104   0.0000       1.050518        28.5860 
 105   0.0000       1.061121        28.8746 
 106   0.0000       1.071378        29.1537 
 107   0.0000       1.075067        29.2541 
 108   0.0000       1.110764        30.2254 
 109   0.0000       1.126665        30.6581 
 110   0.0000       1.151017        31.3208 
 111   0.0000       1.190275        32.3890 
 112   0.0000       1.200266        32.6609 
 113   0.0000       1.222974        33.2788 
 114   0.0000       1.234765        33.5997 
 115   0.0000       1.267386        34.4873 
 116   0.0000       1.284979        34.9661 
 117   0.0000       1.286858        35.0172 
 118   0.0000       1.296713        35.2853 
 119   0.0000       1.330729        36.2110 
 120   0.0000       1.358953        36.9790 
 121   0.0000       1.387468        37.7549 
 122   0.0000       1.514320        41.2067 
 123   0.0000       1.522875        41.4395 
 124   0.0000       1.597798        43.4783 
 125   0.0000       1.620609        44.0990 
 126   0.0000       1.652921        44.9783 
 127   0.0000       1.711471        46.5715 
 128   0.0000       1.747957        47.5643 
 129   0.0000       1.780987        48.4631 
 130   0.0000       1.790449        48.7206 
 131   0.0000       1.820091        49.5272 
 132   0.0000       1.878089        51.1054 
 133   0.0000       1.890566        51.4449 
 134   0.0000       1.960583        53.3502 
 135   0.0000       2.008727        54.6602 
 136   0.0000       2.022736        55.0415 
 137   0.0000       2.162446        58.8431 
 138   0.0000       2.188043        59.5397 
 139   0.0000       2.208194        60.0880 
 140   0.0000       2.272147        61.8283 
 141   0.0000       2.298919        62.5568 
 142   0.0000       2.335412        63.5498 
 143   0.0000       2.382958        64.8436 
 144   0.0000       2.467625        67.1475 
 145   0.0000       2.481615        67.5282 
 146   0.0000       2.520493        68.5861 
 147   0.0000       2.604993        70.8855 
 148   0.0000       2.780736        75.6677 
 149   0.0000       2.915334        79.3303 
 150   0.0000       2.960291        80.5536 
 151   0.0000       3.002861        81.7120 
 152   0.0000       9.227160       251.0838 
 153   0.0000       9.290483       252.8069 
 154   0.0000      13.981669       380.4606 
 155   0.0000      19.068184       518.8717 
 156   0.0000      19.191612       522.2303 
 157   0.0000      32.678414       889.2249 

                    ********************************
                    * MULLIKEN POPULATION ANALYSIS *
                    ********************************

--------------------------------------------
MULLIKEN ATOMIC CHARGES AND SPIN POPULATIONS
--------------------------------------------
   0 H :    0.457726    0.001225
   1 H :    0.382839   -0.002523
   2 H :    0.038595    0.007651
   3 N :   -0.951301    0.025897
   4 Al:    0.669145    0.879803
   5 C :   -0.580505   -0.007734
   6 S :    0.059967    0.016578
   7 F :   -0.556574   -0.000107
   8 H :    0.240554    0.000824
   9 S :   -0.363703    0.009452
  10 H :    0.420002   -0.003546
  11 H :    0.533573   -0.000251
  12 H :    0.189146    0.001151
  13 B :    0.201615    0.010602
  14 N :   -0.961441    0.013451
  15 B :    0.220362    0.047528
Sum of atomic charges         :    0.0000000
Sum of atomic spin populations:    1.0000000

-----------------------------------------------------
MULLIKEN REDUCED ORBITAL CHARGES AND SPIN POPULATIONS
-----------------------------------------------------
CHARGE
  0 H s       :     0.542274  s :     0.542274
  1 H s       :     0.617161  s :     0.617161
  2 H s       :     0.961405  s :     0.961405
  3 N s       :     3.635044  s :     3.635044
      pz      :     1.390347  p :     4.300892
      px      :     1.586907
      py      :     1.323639
      dz2     :     0.001488  d :     0.015365
      dxz     :     0.001452
      dyz     :     0.007612
      dx2y2   :     0.002936
      dxy     :     0.001878
  4 Als       :     4.961789  s :     4.961789
      pz      :     2.345780  p :     7.182178
      px      :     2.289152
      py      :     2.547246
      dz2     :     0.044294  d :     0.186888
      dxz     :     0.053416
      dyz     :     0.029729
      dx2y2   :     0.023737
      dxy     :     0.035712
  5 C s       :     3.275356  s :     3.275356
      pz      :     1.042051  p :     3.289245
      px      :     1.167624
      py      :     1.079569
      dz2     :     0.003425  d :     0.015904
      dxz     :     0.002143
      dyz     :     0.004253
      dx2y2   :     0.002792
      dxy     :     0.003291
  6 S s       :     5.873853  s :     5.873853
      pz      :     3.668970  p :     9.971396
      px      :     3.270744
      py      :     3.031682
      dz2     :     0.010224  d :     0.094784
      dxz     :     0.012028
      dyz     :     0.016506
      dx2y2   :     0.035081
      dxy     :     0.020945
  7 F s       :     3.937464  s :     3.937464
      pz      :     1.871072  p :     5.603907
      px      :     1.758694
      py      :     1.974141
      dz2     :     0.001660  d :     0.015204
      dxz     :     0.004513
      dyz     :     0.000377
      dx2y2   :     0.005519
      dxy     :     0.003135
  8 H s       :     0.759446  s :     0.759446
  9 S s       :     5.862047  s :     5.862047
      pz      :     3.466760  p :    10.450164
      px      :     3.571884
      py      :     3.411520
      dz2     :     0.010877  d :     0.051491
      dxz     :     0.010750
      dyz     :     0.014616
      dx2y2   :     0.006677
      dxy     :     0.008572
 10 H s       :     0.579998  s :     0.579998
 11 H s       :     0.466427  s :     0.466427
 12 H s       :     0.810854  s :     0.810854
 13 B s       :     2.833574  s :     2.833574
      pz      :     0.846947  p :     1.919960
      px      :     0.497353
      py      :     0.575660
      dz2     :     0.010264  d :     0.044850
      dxz     :     0.006763
      dyz     :     0.011962
      dx2y2   :     0.008065
      dxy     :     0.007797
 14 N s       :     3.693245  s :     3.693245
      pz      :     1.396273  p :     4.236526
      px      :     1.567968
      py      :     1.272286
      dz2     :     0.003047  d :     0.031670
      dxz     :     0.007915
      dyz     :     0.010425
      dx2y2   :     0.006429
      dxy     :     0.003855
 15 B s       :     2.921090  s :     2.921090
      pz      :     0.738280  p :     1.825150
      px      :     0.574305
      py      :     0.512565
      dz2     :     0.010609  d :     0.033398
      dxz     :     0.007497
      dyz     :     0.007822
      dx2y2   :     0.003600
      dxy     :     0.003870

SPIN
  0 H s       :     0.001225  s :     0.001225
  1 H s       :    -0.002523  s :    -0.002523
  2 H s       :     0.007651  s :     0.007651
  3 N s       :     0.004484  s :     0.004484
      pz      :     0.014839  p :     0.020844
      px      :     0.001965
      py      :     0.004040
      dz2     :     0.000017  d :     0.000570
      dxz     :    -0.000011
      dyz     :     0.000499
      dx2y2   :     0.000077
      dxy     :    -0.000013
  4 Als       :     0.361738  s :     0.361738
      pz      :     0.048222  p :     0.514973
      px      :     0.006919
      py      :     0.459832
      dz2     :     0.001144  d :     0.003091
      dxz     :     0.000808
      dyz     :     0.000108
      dx2y2   :     0.002739
      dxy     :    -0.001707
  5 C s       :    -0.000971  s :    -0.000971
      pz      :    -0.001086  p :    -0.006963
      px      :    -0.005144
      py      :    -0.000732
      dz2     :     0.000049  d :     0.000199
      dxz     :     0.000009
      dyz     :     0.000085
      dx2y2   :     0.000025
      dxy     :     0.000031
  6 S s       :     0.000539  s :     0.000539
      pz      :     0.005585  p :     0.015446
      px      :     0.000333
      py      :     0.009529
      dz2     :     0.000014  d :     0.000593
      dxz     :     0.000262
      dyz     :     0.000015
      dx2y2   :    -0.000057
      dxy     :     0.000359
  7 F s       :     0.000028  s :     0.000028
      pz      :    -0.000180  p :    -0.000139
      px      :    -0.000040
      py      :     0.000081
      dz2     :     0.000001  d :     0.000003
      dxz     :     0.000006
      dyz     :    -0.000002
      dx2y2   :     0.000009
      dxy     :    -0.000010
  8 H s       :     0.000824  s :     0.000824
  9 S s       :     0.000831  s :     0.000831
      pz      :    -0.001699  p :     0.005459
      px      :    -0.003266
      py      :     0.010423
      dz2     :     0.000274  d :     0.003162
      dxz     :     0.000596
      dyz     :     0.000297
      dx2y2   :     0.001644
      dxy     :     0.000351
 10 H s       :    -0.003546  s :    -0.003546
 11 H s       :    -0.000251  s :    -0.000251
 12 H s       :     0.001151  s :     0.001151
 13 B s       :     0.002072  s :     0.002072
      pz      :     0.007680  p :     0.008054
      px      :     0.001018
      py      :    -0.000643
      dz2     :     0.000231  d :     0.000475
      dxz     :     0.000087
      dyz     :     0.000038
      dx2y2   :    -0.000030
      dxy     :     0.000149
 14 N s       :     0.006443  s :     0.006443
      pz      :     0.000177  p :     0.006222
      px      :     0.010674
      py      :    -0.004629
      dz2     :     0.000164  d :     0.000786
      dxz     :    -0.000060
      dyz     :     0.000395
      dx2y2   :     0.000053
      dxy     :     0.000232
 15 B s       :     0.007061  s :     0.007061
      pz      :     0.007327  p :     0.040228
      px      :     0.027072
      py      :     0.005828
      dz2     :     0.000024  d :     0.000239
      dxz     :     0.000179
      dyz     :    -0.000005
      dx2y2   :     0.000090
      dxy     :    -0.000048


                     *******************************
                     * LOEWDIN POPULATION ANALYSIS *
                     *******************************

-------------------------------------------
LOEWDIN ATOMIC CHARGES AND SPIN POPULATIONS
-------------------------------------------
   0 H :    0.288938    0.000610
   1 H :    0.270361   -0.000529
   2 H :   -0.000138    0.005465
   3 N :   -0.478662    0.030438
   4 Al:    0.172881    0.845152
   5 C :   -0.441493   -0.002595
   6 S :    0.158800    0.015278
   7 F :   -0.457034    0.000065
   8 H :    0.182684    0.000355
   9 S :    0.059630    0.023226
  10 H :    0.272653    0.000802
  11 H :    0.379400    0.000123
  12 H :    0.100699    0.000875
  13 B :   -0.003691    0.011817
  14 N :   -0.465352    0.029552
  15 B :   -0.039676    0.039365

----------------------------------------------------
LOEWDIN REDUCED ORBITAL CHARGES AND SPIN POPULATIONS
----------------------------------------------------
CHARGE
  0 H s       :     0.711062  s :     0.711062
  1 H s       :     0.729639  s :     0.729639
  2 H s       :     1.000138  s :     1.000138
  3 N s       :     3.228674  s :     3.228674
      pz      :     1.390797  p :     4.219245
      px      :     1.518670
      py      :     1.309778
      dz2     :     0.004471  d :     0.030743
      dxz     :     0.002938
      dyz     :     0.014524
      dx2y2   :     0.004916
      dxy     :     0.003893
  4 Als       :     4.936788  s :     4.936788
      pz      :     2.474695  p :     7.518345
      px      :     2.420881
      py      :     2.622769
      dz2     :     0.087641  d :     0.371985
      dxz     :     0.116376
      dyz     :     0.057201
      dx2y2   :     0.043116
      dxy     :     0.067653
  5 C s       :     2.933926  s :     2.933926
      pz      :     1.166253  p :     3.471668
      px      :     1.181075
      py      :     1.124340
      dz2     :     0.008715  d :     0.035899
      dxz     :     0.006191
      dyz     :     0.009359
      dx2y2   :     0.005002
      dxy     :     0.006631
  6 S s       :     5.690800  s :     5.690800
      pz      :     3.663943  p :    10.030061
      px      :     3.271183
      py      :     3.094935
      dz2     :     0.011995  d :     0.120339
      dxz     :     0.014212
      dyz     :     0.025272
      dx2y2   :     0.041896
      dxy     :     0.026964
  7 F s       :     3.823872  s :     3.823872
      pz      :     1.886097  p :     5.606163
      px      :     1.744271
      py      :     1.975796
      dz2     :     0.004071  d :     0.026998
      dxz     :     0.008471
      dyz     :     0.000645
      dx2y2   :     0.009385
      dxy     :     0.004428
  8 H s       :     0.817316  s :     0.817316
  9 S s       :     5.539088  s :     5.539088
      pz      :     3.459905  p :    10.342756
      px      :     3.507083
      py      :     3.375768
      dz2     :     0.011987  d :     0.058527
      dxz     :     0.011265
      dyz     :     0.018440
      dx2y2   :     0.006689
      dxy     :     0.010146
 10 H s       :     0.727347  s :     0.727347
 11 H s       :     0.620600  s :     0.620600
 12 H s       :     0.899301  s :     0.899301
 13 B s       :     2.744010  s :     2.744010
      pz      :     0.896174  p :     2.164742
      px      :     0.565113
      py      :     0.703456
      dz2     :     0.020581  d :     0.094939
      dxz     :     0.013458
      dyz     :     0.025460
      dx2y2   :     0.016852
      dxy     :     0.018588
 14 N s       :     3.281919  s :     3.281919
      pz      :     1.352039  p :     4.129000
      px      :     1.503058
      py      :     1.273904
      dz2     :     0.005431  d :     0.054432
      dxz     :     0.012526
      dyz     :     0.018208
      dx2y2   :     0.010927
      dxy     :     0.007340
 15 B s       :     2.811495  s :     2.811495
      pz      :     0.901541  p :     2.159438
      px      :     0.643019
      py      :     0.614878
      dz2     :     0.021960  d :     0.068743
      dxz     :     0.015685
      dyz     :     0.016322
      dx2y2   :     0.006746
      dxy     :     0.008032

SPIN
  0 H s       :     0.000610  s :     0.000610
  1 H s       :    -0.000529  s :    -0.000529
  2 H s       :     0.005465  s :     0.005465
  3 N s       :     0.005850  s :     0.005850
      pz      :     0.013922  p :     0.023278
      px      :     0.001041
      py      :     0.008315
      dz2     :     0.000006  d :     0.001310
      dxz     :    -0.000013
      dyz     :     0.001157
      dx2y2   :     0.000173
      dxy     :    -0.000013
  4 Als       :     0.334522  s :     0.334522
      pz      :     0.041720  p :     0.500768
      px      :     0.004683
      py      :     0.454365
      dz2     :     0.003145  d :     0.009862
      dxz     :     0.000589
      dyz     :     0.001347
      dx2y2   :     0.006489
      dxy     :    -0.001707
  5 C s       :    -0.000098  s :    -0.000098
      pz      :     0.000004  p :    -0.002975
      px      :    -0.003560
      py      :     0.000581
      dz2     :     0.000123  d :     0.000479
      dxz     :     0.000026
      dyz     :     0.000180
      dx2y2   :     0.000070
      dxy     :     0.000080
  6 S s       :     0.001248  s :     0.001248
      pz      :     0.005396  p :     0.013107
      px      :     0.000299
      py      :     0.007412
      dz2     :     0.000002  d :     0.000922
      dxz     :     0.000282
      dyz     :     0.000261
      dx2y2   :     0.000065
      dxy     :     0.000312
  7 F s       :     0.000097  s :     0.000097
      pz      :    -0.000157  p :    -0.000036
      px      :    -0.000034
      py      :     0.000154
      dz2     :     0.000016  d :     0.000005
      dxz     :    -0.000000
      dyz     :     0.000001
      dx2y2   :    -0.000008
      dxy     :    -0.000003
  8 H s       :     0.000355  s :     0.000355
  9 S s       :     0.006217  s :     0.006217
      pz      :    -0.001501  p :     0.012945
      px      :    -0.001646
      py      :     0.016093
      dz2     :     0.000424  d :     0.004063
      dxz     :     0.000517
      dyz     :     0.000378
      dx2y2   :     0.001723
      dxy     :     0.001021
 10 H s       :     0.000802  s :     0.000802
 11 H s       :     0.000123  s :     0.000123
 12 H s       :     0.000875  s :     0.000875
 13 B s       :     0.004057  s :     0.004057
      pz      :     0.006714  p :     0.007003
      px      :     0.001403
      py      :    -0.001114
      dz2     :     0.000529  d :     0.000756
      dxz     :     0.000113
      dyz     :     0.000048
      dx2y2   :    -0.000065
      dxy     :     0.000130
 14 N s       :     0.014078  s :     0.014078
      pz      :     0.000374  p :     0.013729
      px      :     0.011387
      py      :     0.001968
      dz2     :     0.000309  d :     0.001746
      dxz     :    -0.000066
      dyz     :     0.000875
      dx2y2   :     0.000161
      dxy     :     0.000466
 15 B s       :     0.004235  s :     0.004235
      pz      :     0.004296  p :     0.034619
      px      :     0.023507
      py      :     0.006816
      dz2     :    -0.000019  d :     0.000511
      dxz     :     0.000241
      dyz     :     0.000159
      dx2y2   :     0.000193
      dxy     :    -0.000063


                      *****************************
                      * MAYER POPULATION ANALYSIS *
                      *****************************

  NA   - Mulliken gross atomic population
  ZA   - Total nuclear charge
  QA   - Mulliken gross atomic charge
  VA   - Mayer's total valence
  BVA  - Mayer's bonded valence
  FA   - Mayer's free valence

  ATOM       NA         ZA         QA         VA         BVA        FA
  0 H      0.5423     1.0000     0.4577     0.8027     0.8027     0.0000
  1 H      0.6172     1.0000     0.3828     0.8157     0.8156     0.0000
  2 H      0.9614     1.0000     0.0386     0.9778     0.9777     0.0001
  3 N      7.9513     7.0000    -0.9513     2.9099     2.9087     0.0012
  4 Al    12.3309    13.0000     0.6691     2.9872     2.2115     0.7757
  5 C      6.5805     6.0000    -0.5805     3.8359     3.8359     0.0000
  6 S     15.9400    16.0000     0.0600     1.8979     1.8975     0.0003
  7 F      9.5566     9.0000    -0.5566     0.7394     0.7394     0.0000
  8 H      0.7594     1.0000     0.2406     0.9146     0.9146     0.0000
  9 S     16.3637    16.0000    -0.3637     2.2877     2.2867     0.0010
 10 H      0.5800     1.0000     0.4200     0.7865     0.7865     0.0000
 11 H      0.4664     1.0000     0.5336     0.7306     0.7306     0.0000
 12 H      0.8109     1.0000     0.1891     0.9302     0.9302     0.0000
 13 B      4.7984     5.0000     0.2016     3.3747     3.3744     0.0003
 14 N      7.9614     7.0000    -0.9614     2.8137     2.8126     0.0010
 15 B      4.7796     5.0000     0.2204     3.3631     3.3613     0.0018

  Mayer bond orders larger than 0.100000
B(  0-H ,  7-F ) :   0.1641 B(  0-H , 14-N ) :   0.6407 B(  1-H ,  3-N ) :   0.8012 
B(  2-H , 13-B ) :   0.9558 B(  3-N ,  4-Al) :   0.8100 B(  3-N , 11-H ) :   0.2192 
B(  3-N , 13-B ) :   1.0231 B(  4-Al,  9-S ) :   0.7464 B(  4-Al, 14-N ) :   0.4326 
B(  5-C ,  8-H ) :   0.8931 B(  5-C , 13-B ) :   1.1684 B(  5-C , 15-B ) :   1.6877 
B(  6-S , 12-H ) :   0.9141 B(  6-S , 14-N ) :   0.9245 B(  7-F , 11-H ) :   0.4880 
B(  9-S , 15-B ) :   1.3883 B( 10-H , 14-N ) :   0.7900 B( 13-B , 15-B ) :   0.1422 


-------
TIMINGS
-------

Total SCF time: 0 days 0 hours 5 min 39 sec 

Total time                  ....     339.949 sec
Sum of individual times     ....     323.439 sec  ( 95.1%)

Fock matrix formation       ....     269.139 sec  ( 79.2%)
  Split-RI-J                ....      26.411 sec  (  9.8% of F)
  Chain of spheres X        ....      91.574 sec  ( 34.0% of F)
  XC integration            ....      72.925 sec  ( 27.1% of F)
    Basis function eval.    ....      11.563 sec  ( 15.9% of XC)
    Density eval.           ....      12.690 sec  ( 17.4% of XC)
    XC-Functional eval.     ....       5.484 sec  (  7.5% of XC)
    XC-Potential eval.      ....       8.509 sec  ( 11.7% of XC)
Diagonalization             ....      11.787 sec  (  3.5%)
Density matrix formation    ....       0.598 sec  (  0.2%)
Population analysis         ....       1.679 sec  (  0.5%)
Initial guess               ....       0.106 sec  (  0.0%)
Orbital Transformation      ....       0.000 sec  (  0.0%)
Orbital Orthonormalization  ....       0.000 sec  (  0.0%)
DIIS solution               ....      28.311 sec  (  8.3%)
Grid generation             ....      11.820 sec  (  3.5%)

Maximum memory used throughout the entire SCF-calculation: 58.3 MB


-------------------------------------------------------------------------------
                          DFT DISPERSION CORRECTION                            
                                                                               
                              DFTD3 V3.1  Rev 1                                
                          USING Becke-Johnson damping                          
-------------------------------------------------------------------------------
The PBEh-3c composite method is recognized
Using three-body term ABC
Active option DFTDOPT                   ...         4   

molecular C6(AA) [au] = 5527.467948 


            DFT-D V3
 parameters
 s6 scaling factor         :     1.0000 
 a1 scaling factor         :     0.4860 
 s8 scaling factor         :     0.0000 
 a2 scaling factor         :     4.5000 
 Damping factor alpha9(ATM):    16.0000 
 ad hoc parameters k1-k3   :    16.0000     1.3333    -4.0000 

 Edisp/kcal,au: -6.533370503347  -0.010411587516 
 E6   /kcal   :  -6.585259022 
 E8   /kcal   :  -0.000000000 
 E6(ABC)      :   0.051888519 
 % E8         :   0.000000000 
 % E6(ABC)    :  -0.794207509 

-------------------------   ----------------
Dispersion correction           -0.010411588
-------------------------   ----------------

------------------   -----------------
gCP correction             0.028264048
------------------   -----------------

-------------------------   --------------------
FINAL SINGLE POINT ENERGY     -1338.402098460832
-------------------------   --------------------


                            ***************************************
                            *     ORCA property calculations      *
                            ***************************************

                                    ---------------------
                                    Active property flags
                                    ---------------------
   (+) Dipole Moment


------------------------------------------------------------------------------
                       ORCA ELECTRIC PROPERTIES CALCULATION
------------------------------------------------------------------------------

Dipole Moment Calculation                       ... on
Quadrupole Moment Calculation                   ... off
Polarizability Calculation                      ... off
GBWName                                         ... pbeh-3c.gbw
Electron density                                ... pbeh-3c.scfp
The origin for moment calculation is the CENTER OF MASS  = (-0.795192,  0.127202  1.019443)

-------------
DIPOLE MOMENT
-------------
                                X             Y             Z
Electronic contribution:     -4.54025       1.52125       2.79885
Nuclear contribution   :      5.53137      -0.93735      -1.37551
                        -----------------------------------------
Total Dipole Moment    :      0.99112       0.58390       1.42334
                        -----------------------------------------
Magnitude (a.u.)       :      1.83007
Magnitude (Debye)      :      4.65167



--------------------
Rotational spectrum 
--------------------
 
Rotational constants in cm-1:     0.033494     0.031796     0.022078 
Rotational constants in MHz :  1004.131154   953.210166   661.867925 

 Dipole components along the rotational axes: 
x,y,z [a.u.] :    -1.616847     0.480041    -0.710297 
x,y,z [Debye]:    -4.109697     1.220167    -1.805433 

 

Timings for individual modules:

Sum of individual times         ...      345.570 sec (=   5.759 min)
GTO integral calculation        ...        3.904 sec (=   0.065 min)   1.1 %
SCF iterations                  ...      341.665 sec (=   5.694 min)  98.9 %
                             ****ORCA TERMINATED NORMALLY****
TOTAL RUN TIME: 0 days 0 hours 5 minutes 51 seconds 406 msec
