
                                 *****************
                                 * O   R   C   A *
                                 *****************

                                            #,                                       
                                            ###                                      
                                            ####                                     
                                            #####                                    
                                            ######                                   
                                           ########,                                 
                                     ,,################,,,,,                         
                               ,,#################################,,                 
                          ,,##########################################,,             
                       ,#########################################, ''#####,          
                    ,#############################################,,   '####,        
                  ,##################################################,,,,####,       
                ,###########''''           ''''###############################       
              ,#####''   ,,,,##########,,,,          '''####'''          '####       
            ,##' ,,,,###########################,,,                        '##       
           ' ,,###''''                  '''############,,,                           
         ,,##''                                '''############,,,,        ,,,,,,###''
      ,#''                                            '''#######################'''  
     '                                                          ''''####''''         
             ,#######,   #######,   ,#######,      ##                                
            ,#'     '#,  ##    ##  ,#'     '#,    #''#        ######   ,####,        
            ##       ##  ##   ,#'  ##            #'  '#       #        #'  '#        
            ##       ##  #######   ##           ,######,      #####,   #    #        
            '#,     ,#'  ##    ##  '#,     ,#' ,#      #,         ##   #,  ,#        
             '#######'   ##     ##  '#######'  #'      '#     #####' # '####'        



                  #######################################################
                  #                        -***-                        #
                  #          Department of theory and spectroscopy      #
                  #    Directorship and core code : Frank Neese         #
                  #        Max Planck Institute fuer Kohlenforschung    #
                  #                Kaiser Wilhelm Platz 1               #
                  #                 D-45470 Muelheim/Ruhr               #
                  #                      Germany                        #
                  #                                                     #
                  #                  All rights reserved                #
                  #                        -***-                        #
                  #######################################################


                         Program Version 5.0.3 -  RELEASE  -


 With contributions from (in alphabetic order):
   Daniel Aravena         : Magnetic Suceptibility
   Michael Atanasov       : Ab Initio Ligand Field Theory (pilot matlab implementation)
   Alexander A. Auer      : GIAO ZORA, VPT2 properties, NMR spectrum
   Ute Becker             : Parallelization
   Giovanni Bistoni       : ED, misc. LED, open-shell LED, HFLD
   Martin Brehm           : Molecular dynamics
   Dmytro Bykov           : SCF Hessian
   Vijay G. Chilkuri      : MRCI spin determinant printing, contributions to CSF-ICE
   Dipayan Datta          : RHF DLPNO-CCSD density
   Achintya Kumar Dutta   : EOM-CC, STEOM-CC
   Dmitry Ganyushin       : Spin-Orbit,Spin-Spin,Magnetic field MRCI
   Miquel Garcia          : C-PCM and meta-GGA Hessian, CC/C-PCM, Gaussian charge scheme
   Yang Guo               : DLPNO-NEVPT2, F12-NEVPT2, CIM, IAO-localization
   Andreas Hansen         : Spin unrestricted coupled pair/coupled cluster methods
   Benjamin Helmich-Paris : MC-RPA, TRAH-SCF, COSX integrals
   Lee Huntington         : MR-EOM, pCC
   Robert Izsak           : Overlap fitted RIJCOSX, COSX-SCS-MP3, EOM
   Marcus Kettner         : VPT2
   Christian Kollmar      : KDIIS, OOCD, Brueckner-CCSD(T), CCSD density, CASPT2, CASPT2-K
   Simone Kossmann        : Meta GGA functionals, TD-DFT gradient, OOMP2, MP2 Hessian
   Martin Krupicka        : Initial AUTO-CI
   Lucas Lang             : DCDCAS
   Marvin Lechner         : AUTO-CI (C++ implementation), FIC-MRCC
   Dagmar Lenk            : GEPOL surface, SMD
   Dimitrios Liakos       : Extrapolation schemes; Compound Job, initial MDCI parallelization
   Dimitrios Manganas     : Further ROCIS development; embedding schemes
   Dimitrios Pantazis     : SARC Basis sets
   Anastasios Papadopoulos: AUTO-CI, single reference methods and gradients
   Taras Petrenko         : DFT Hessian,TD-DFT gradient, ASA, ECA, R-Raman, ABS, FL, XAS/XES, NRVS
   Peter Pinski           : DLPNO-MP2, DLPNO-MP2 Gradient
   Christoph Reimann      : Effective Core Potentials
   Marius Retegan         : Local ZFS, SOC
   Christoph Riplinger    : Optimizer, TS searches, QM/MM, DLPNO-CCSD(T), (RO)-DLPNO pert. Triples
   Tobias Risthaus        : Range-separated hybrids, TD-DFT gradient, RPA, STAB
   Michael Roemelt        : Original ROCIS implementation
   Masaaki Saitow         : Open-shell DLPNO-CCSD energy and density
   Barbara Sandhoefer     : DKH picture change effects
   Avijit Sen             : IP-ROCIS
   Kantharuban Sivalingam : CASSCF convergence, NEVPT2, FIC-MRCI
   Bernardo de Souza      : ESD, SOC TD-DFT
   Georgi Stoychev        : AutoAux, RI-MP2 NMR, DLPNO-MP2 response
   Willem Van den Heuvel  : Paramagnetic NMR
   Boris Wezisla          : Elementary symmetry handling
   Frank Wennmohs         : Technical directorship


 We gratefully acknowledge several colleagues who have allowed us to
 interface, adapt or use parts of their codes:
   Stefan Grimme, W. Hujo, H. Kruse, P. Pracht,  : VdW corrections, initial TS optimization,
                  C. Bannwarth, S. Ehlert          DFT functionals, gCP, sTDA/sTD-DF
   Ed Valeev, F. Pavosevic, A. Kumar             : LibInt (2-el integral package), F12 methods
   Garnet Chan, S. Sharma, J. Yang, R. Olivares  : DMRG
   Ulf Ekstrom                                   : XCFun DFT Library
   Mihaly Kallay                                 : mrcc  (arbitrary order and MRCC methods)
   Jiri Pittner, Ondrej Demel                    : Mk-CCSD
   Frank Weinhold                                : gennbo (NPA and NBO analysis)
   Christopher J. Cramer and Donald G. Truhlar   : smd solvation model
   Lars Goerigk                                  : TD-DFT with DH, B97 family of functionals
   V. Asgeirsson, H. Jonsson                     : NEB implementation
   FAccTs GmbH                                   : IRC, NEB, NEB-TS, DLPNO-Multilevel, CI-OPT
                                                   MM, QMMM, 2- and 3-layer-ONIOM, Crystal-QMMM,
                                                   LR-CPCM, SF, NACMEs, symmetry and pop. for TD-DFT,
                                                   nearIR, NL-DFT gradient (VV10), updates on ESD,
                                                   ML-optimized integration grids
   S Lehtola, MJT Oliveira, MAL Marques          : LibXC Library
   Liviu Ungur et al                             : ANISO software


 Your calculation uses the libint2 library for the computation of 2-el integrals
 For citations please refer to: http://libint.valeyev.net

 Your ORCA version has been built with support for libXC version: 5.1.0
 For citations please refer to: https://tddft.org/programs/libxc/

 This ORCA versions uses:
   CBLAS   interface :  Fast vector & matrix operations
   LAPACKE interface :  Fast linear algebra routines
   SCALAPACK package :  Parallel linear algebra routines
   Shared memory     :  Shared parallel matrices
   BLAS/LAPACK       :  OpenBLAS 0.3.15  USE64BITINT DYNAMIC_ARCH NO_AFFINITY Haswell SINGLE_THREADED
        Core in use  :  Haswell
   Copyright (c) 2011-2014, The OpenBLAS Project




***************************************
The coordinates will be read from file: 03a.xyz
***************************************


Your calculation utilizes the geometrical counterpoise correction gCP
Please cite in your paper:
H.Kruse, S. Grimme J.Chem.Phys., 136, (2012), 154101 
   

Your calculation utilizes the atom-pairwise dispersion correction
with the Becke-Johnson damping scheme (D3BJ)
Cite in your paper:
S.Grimme, S.Ehrlich, L.Goerigk, J Comput Chem, (2011), 32, 1456–1465 
S.Grimme, J.Antony, S.Ehrlich and H.Krieg, J.Chem.Phys., 132, (2010), 154104 
   

Your calculation employs the composite approach PBEh-3c.
Please cite in your paper:
S. Grimme, J. G. Brandenburg, C. Bannwarth, A. Hansen J.Chem.Phys., 143, (2015), 054107 
   

================================================================================

----- Orbital basis set information -----
Your calculation utilizes the basis: def2-mSVP

----- AuxJ basis set information -----
Your calculation utilizes the auxiliary basis: def2/J
   F. Weigend, Phys. Chem. Chem. Phys. 8, 1057 (2006).

================================================================================
                                        WARNINGS
                       Please study these warnings very carefully!
================================================================================


INFO   : the flag for use of the SHARK integral package has been found!

================================================================================
                                       INPUT FILE
================================================================================
NAME = pbeh-3c.inp
|  1> ! PBEh-3c def2/J TightSCF DefGrid3
|  2> 
|  3> %maxcore 60000
|  4> 
|  5> %pal
|  6> nprocs 4
|  7> end
|  8> 
|  9> *xyzfile 0 1 03a.xyz
| 10> 
| 11>                          ****END OF INPUT****
================================================================================

                       ****************************
                       * Single Point Calculation *
                       ****************************

---------------------------------
CARTESIAN COORDINATES (ANGSTROEM)
---------------------------------
  C     -0.282710   -0.294847    0.000000
  O      0.112906    0.958535    0.000000
  O      0.435751   -1.281745    0.000000
  H     -1.373302   -0.373984    0.000000
  H      1.107354    0.992041    0.000000

----------------------------
CARTESIAN COORDINATES (A.U.)
----------------------------
  NO LB      ZA    FRAG     MASS         X           Y           Z
   0 C     6.0000    0    12.011   -0.534244   -0.557180    0.000000
   1 O     8.0000    0    15.999    0.213362    1.811368    0.000000
   2 O     8.0000    0    15.999    0.823451   -2.422147    0.000000
   3 H     1.0000    0     1.008   -2.595165   -0.706727    0.000000
   4 H     1.0000    0     1.008    2.092595    1.874685    0.000000

--------------------------------
INTERNAL COORDINATES (ANGSTROEM)
--------------------------------
 C      0   0   0     0.000000000000     0.00000000     0.00000000
 O      1   0   0     1.314335205511     0.00000000     0.00000000
 O      1   2   0     1.220718948181   126.42768043     0.00000000
 H      1   2   3     1.093459752157   111.66802824   180.00000085
 H      2   1   3     0.995011600190   109.44747204     0.00000000

---------------------------
INTERNAL COORDINATES (A.U.)
---------------------------
 C      0   0   0     0.000000000000     0.00000000     0.00000000
 O      1   0   0     2.483733586587     0.00000000     0.00000000
 O      1   2   0     2.306824498551   126.42768043     0.00000000
 H      1   2   3     2.066339470043   111.66802824   180.00000085
 H      2   1   3     1.880299424434   109.44747204     0.00000000

---------------------
BASIS SET INFORMATION
---------------------
There are 3 groups of distinct atoms

 Group   1 Type C   : 8s4p1d contracted to 4s2p1d pattern {5111/31/1}
 Group   2 Type O   : 8s4p1d contracted to 4s2p1d pattern {5111/31/1}
 Group   3 Type H   : 4s contracted to 2s pattern {31}

Atom   0C    basis set group =>   1
Atom   1O    basis set group =>   2
Atom   2O    basis set group =>   2
Atom   3H    basis set group =>   3
Atom   4H    basis set group =>   3
---------------------------------
AUXILIARY/J BASIS SET INFORMATION
---------------------------------
There are 3 groups of distinct atoms

 Group   1 Type C   : 12s5p4d2f1g contracted to 6s4p3d1f1g pattern {711111/2111/211/2/1}
 Group   2 Type O   : 12s5p4d2f1g contracted to 6s4p3d1f1g pattern {711111/2111/211/2/1}
 Group   3 Type H   : 5s2p1d contracted to 3s1p1d pattern {311/2/1}

Atom   0C    basis set group =>   1
Atom   1O    basis set group =>   2
Atom   2O    basis set group =>   2
Atom   3H    basis set group =>   3
Atom   4H    basis set group =>   3


           ************************************************************
           *        Program running with 4 parallel MPI-processes     *
           *              working on a common directory               *
           ************************************************************
------------------------------------------------------------------------------
                           ORCA GTO INTEGRAL CALCULATION
                           -- RI-GTO INTEGRALS CHOSEN --
------------------------------------------------------------------------------
------------------------------------------------------------------------------
                   ___                                                        
                  /   \      - P O W E R E D   B Y -                         
                 /     \                                                     
                 |  |  |   _    _      __       _____    __    __             
                 |  |  |  | |  | |    /  \     |  _  \  |  |  /  |          
                  \  \/   | |  | |   /    \    | | | |  |  | /  /          
                 / \  \   | |__| |  /  /\  \   | |_| |  |  |/  /          
                |  |  |   |  __  | /  /__\  \  |    /   |      \           
                |  |  |   | |  | | |   __   |  |    \   |  |\   \          
                \     /   | |  | | |  |  |  |  | |\  \  |  | \   \       
                 \___/    |_|  |_| |__|  |__|  |_| \__\ |__|  \__/        
                                                                              
                      - O R C A' S   B I G   F R I E N D -                    
                                      &                                       
                       - I N T E G R A L  F E E D E R -                       
                                                                              
 v1 FN, 2020, v2 2021                                                         
------------------------------------------------------------------------------


Reading SHARK input file pbeh-3c.SHARKINP.tmp ... ok
----------------------
SHARK INTEGRAL PACKAGE
----------------------

Number of atoms                             ...      5
Number of basis functions                   ...     49
Number of shells                            ...     25
Maximum angular momentum                    ...      2
Integral batch strategy                     ... SHARK/LIBINT Hybrid
RI-J (if used) integral strategy            ... SPLIT-RIJ (Revised 2003 algorithm where possible)
Printlevel                                  ...      1
Contraction scheme used                     ... SEGMENTED contraction
Coulomb Range Separation                    ... NOT USED
Exchange Range Separation                   ... NOT USED
Finite Nucleus Model                        ... NOT USED
Auxiliary Coulomb fitting basis             ... AVAILABLE
   # of basis functions in Aux-J            ...    169
   # of shells in Aux-J                     ...     55
   Maximum angular momentum in Aux-J        ...      4
Auxiliary J/K fitting basis                 ... NOT available
Auxiliary Correlation fitting basis         ... NOT available
Auxiliary 'external' fitting basis          ... NOT available
Integral threshold                          ...     2.500000e-11
Primitive cut-off                           ...     2.500000e-12
Primitive pair pre-selection threshold      ...     2.500000e-12

Calculating pre-screening integrals         ... done (  0.0 sec) Dimension = 25
Organizing shell pair data                  ... done (  0.3 sec)
Shell pair information
Total number of shell pairs                 ...       325
Shell pairs after pre-screening             ...       319
Total number of primitive shell pairs       ...      1173
Primitive shell pairs kept                  ...       960
          la=0 lb=0:    130 shell pairs
          la=1 lb=0:     96 shell pairs
          la=1 lb=1:     21 shell pairs
          la=2 lb=0:     48 shell pairs
          la=2 lb=1:     18 shell pairs
          la=2 lb=2:      6 shell pairs

Calculating one electron integrals          ... done (  0.0 sec)
Calculating RI/J V-Matrix + Cholesky decomp.... done (  0.8 sec)
Calculating Nuclear repulsion               ... done (  0.1 sec) ENN=     70.115762019218 Eh

SHARK setup successfully completed in   2.6 seconds

Maximum memory used throughout the entire GTOINT-calculation: 9.0 MB


           ************************************************************
           *        Program running with 4 parallel MPI-processes     *
           *              working on a common directory               *
           ************************************************************
-------------------------------------------------------------------------------
                                 ORCA SCF
-------------------------------------------------------------------------------

------------
SCF SETTINGS
------------
Hamiltonian:
 Density Functional     Method          .... DFT(GTOs)
 Exchange Functional    Exchange        .... PBE
   PBE kappa parameter   XKappa         ....  1.024500
   PBE mue parameter    XMuePBE         ....  0.123457
 Correlation Functional Correlation     .... PBE
   PBE beta parameter  CBetaPBE         ....  0.030000
 LDA part of GGA corr.  LDAOpt          .... PW91-LDA
 Gradients option       PostSCFGGA      .... off
 Hybrid DFT is turned on
   Fraction HF Exchange ScalHFX         ....  0.420000
   Scaling of DF-GGA-X  ScalDFX         ....  0.580000
   Scaling of DF-GGA-C  ScalDFC         ....  1.000000
   Scaling of DF-LDA-C  ScalLDAC        ....  1.000000
   Perturbative correction              ....  0.000000
   Density functional embedding theory  .... OFF
 RI-approximation to the Coulomb term is turned on
   Number of AuxJ basis functions       .... 169
   RIJ-ON(X) (HFX calculated with O(N)) .... on
   Number of AuxJ basis functions       .... 169
   RIJ-COSX (HFX calculated with COS-X)).... on


General Settings:
 Integral files         IntName         .... pbeh-3c
 Hartree-Fock type      HFTyp           .... RHF
 Total Charge           Charge          ....    0
 Multiplicity           Mult            ....    1
 Number of Electrons    NEL             ....   24
 Basis Dimension        Dim             ....   49
 Nuclear Repulsion      ENuc            ....     70.1157620192 Eh

Convergence Acceleration:
 DIIS                   CNVDIIS         .... on
   Start iteration      DIISMaxIt       ....    12
   Startup error        DIISStart       ....  0.200000
   # of expansion vecs  DIISMaxEq       ....     5
   Bias factor          DIISBfac        ....   1.050
   Max. coefficient     DIISMaxC        ....  10.000
 Trust-Rad. Augm. Hess. CNVTRAH         .... auto
   Auto Start mean grad. ratio tolernc. ....  1.125000
   Auto Start start iteration           ....    20
   Auto Start num. interpolation iter.  ....    10
   Max. Number of Micro iterations      ....    16
   Max. Number of Macro iterations      .... Maxiter - #DIIS iter
   Number of Davidson start vectors     ....     2
   Converg. threshold I  (grad. norm)   ....   1.000e-05
   Converg. threshold II (energy diff.) ....   1.000e-08
   Grad. Scal. Fac. for Micro threshold ....   0.100
   Minimum threshold for Micro iter.    ....   0.010
   NR start threshold (gradient norm)   ....   0.001
   Initial trust radius                 ....   0.400
   Minimum AH scaling param. (alpha)    ....   1.000
   Maximum AH scaling param. (alpha)    .... 1000.000
   Orbital update algorithm             .... Taylor
   White noise on init. David. guess    .... on
   Maximum white noise                  ....   0.010
   Quad. conv. algorithm                .... NR
   COSX micro iterations for RIJONX calc.... off
 SOSCF                  CNVSOSCF        .... on
   Start iteration      SOSCFMaxIt      ....   150
   Startup grad/error   SOSCFStart      ....  0.003300
 Level Shifting         CNVShift        .... on
   Level shift para.    LevelShift      ....    0.2500
   Turn off err/grad.   ShiftErr        ....    0.0010
 Zerner damping         CNVZerner       .... off
 Static damping         CNVDamp         .... on
   Fraction old density DampFac         ....    0.7000
   Max. Damping (<1)    DampMax         ....    0.9800
   Min. Damping (>=0)   DampMin         ....    0.0000
   Turn off err/grad.   DampErr         ....    0.1000
 Fernandez-Rico         CNVRico         .... off

SCF Procedure:
 Maximum # iterations   MaxIter         ....   125
 SCF integral mode      SCFMode         .... Direct
   Integral package                     .... SHARK and LIBINT hybrid scheme
 Reset frequency        DirectResetFreq ....    20
 Integral Threshold     Thresh          ....  2.500e-11 Eh
 Primitive CutOff       TCut            ....  2.500e-12 Eh

Convergence Tolerance:
 Convergence Check Mode ConvCheckMode   .... Total+1el-Energy
 Convergence forced     ConvForced      .... 0
 Energy Change          TolE            ....  1.000e-08 Eh
 1-El. energy change                    ....  1.000e-05 Eh
 Orbital Gradient       TolG            ....  1.000e-05
 Orbital Rotation angle TolX            ....  1.000e-05
 DIIS Error             TolErr          ....  5.000e-07


Diagonalization of the overlap matrix:
Smallest eigenvalue                        ... 1.818e-02
Time for diagonalization                   ...    0.001 sec
Threshold for overlap eigenvalues          ... 1.000e-08
Number of eigenvalues below threshold      ... 0
Time for construction of square roots      ...    0.323 sec
Total time needed                          ...    0.324 sec

--------------------------------
INITIAL GUESS: MINIMAL BASIS EHT
--------------------------------
The minimal basis has 17 functions
EHT matrix was diagonalized
Basis set overlap was calculated now projecting the orbitals
Using GuessMode=FMatrix for the initial guess
C*T matrix was formed
Effective Fockian was calculated
Effective Fockian was diagonalized
Initial density was built
                      ------------------
                      INITIAL GUESS DONE
                      ------------------
-------------------
DFT GRID GENERATION
-------------------

General Integration Accuracy     IntAcc      ... 4.959
Radial Grid Type                 RadialGrid  ... OptM3 with GC (2021)
Angular Grid (max. ang.)         AngularGrid ... 6 (Lebedev-590)
Angular grid pruning method      GridPruning ... 4 (adaptive)
Weight generation scheme         WeightScheme... Becke
Basis function cutoff            BFCut       ... 1.0000e-11
Integration weight cutoff        WCut        ... 1.0000e-14
Angular grids for H and He will be reduced by one unit
Partially contracted basis set               ... off
Rotationally invariant grid construction     ... off

Total number of grid points                  ...    61587
Total number of batches                      ...      965
Average number of points per batch           ...       63
Average number of grid points per atom       ...    12317
Time for grid setup =    2.234 sec

--------------------
COSX GRID GENERATION
--------------------

GRIDX 1
-------
General Integration Accuracy     IntAcc      ... 4.020
Radial Grid Type                 RadialGrid  ... OptM3 with GC (2021)
Angular Grid (max. ang.)         AngularGrid ... 2 (Lebedev-110)
Angular grid pruning method      GridPruning ... 4 (adaptive)
Weight generation scheme         WeightScheme... Becke
Basis function cutoff            BFCut       ... 1.0000e-11
Integration weight cutoff        WCut        ... 1.0000e-14
Angular grids for H and He will be reduced by one unit
Partially contracted basis set               ... on
Rotationally invariant grid construction     ... off

Total number of grid points                  ...     7211
Total number of batches                      ...      116
Average number of points per batch           ...       62
Average number of grid points per atom       ...     1442
UseSFitting                                  ... on

GRIDX 2
-------
General Integration Accuracy     IntAcc      ... 4.338
Radial Grid Type                 RadialGrid  ... OptM3 with GC (2021)
Angular Grid (max. ang.)         AngularGrid ... 3 (Lebedev-194)
Angular grid pruning method      GridPruning ... 4 (adaptive)
Weight generation scheme         WeightScheme... Becke
Basis function cutoff            BFCut       ... 1.0000e-11
Integration weight cutoff        WCut        ... 1.0000e-14
Angular grids for H and He will be reduced by one unit
Partially contracted basis set               ... on
Rotationally invariant grid construction     ... off

Total number of grid points                  ...    15989
Total number of batches                      ...      252
Average number of points per batch           ...       63
Average number of grid points per atom       ...     3198
UseSFitting                                  ... on

GRIDX 3
-------
General Integration Accuracy     IntAcc      ... 4.871
Radial Grid Type                 RadialGrid  ... OptM3 with GC (2021)
Angular Grid (max. ang.)         AngularGrid ... 4 (Lebedev-302)
Angular grid pruning method      GridPruning ... 4 (adaptive)
Weight generation scheme         WeightScheme... Becke
Basis function cutoff            BFCut       ... 1.0000e-11
Integration weight cutoff        WCut        ... 1.0000e-14
Angular grids for H and He will be reduced by one unit
Partially contracted basis set               ... on
Rotationally invariant grid construction     ... off

Total number of grid points                  ...    30209
Total number of batches                      ...      474
Average number of points per batch           ...       63
Average number of grid points per atom       ...     6042
UseSFitting                                  ... on

Time for X-Grid setup             =    5.749 sec

--------------
SCF ITERATIONS
--------------
ITER       Energy         Delta-E        Max-DP      RMS-DP      [F,P]     Damp
               ***  Starting incremental Fock matrix formation  ***
  0   -188.6159060535   0.000000000000 0.19471919  0.01245569  0.5541176 0.7000
  1   -188.9174452291  -0.301539175609 0.11036860  0.00662493  0.2580372 0.7000
                               ***Turning on DIIS***
  2   -189.0516908346  -0.134245605508 0.04074782  0.00320597  0.1815524 0.7000
  3   -189.1438665141  -0.092175679502 0.03135145  0.00207594  0.1268860 0.7000
  4   -189.2104658739  -0.066599359796 0.07287280  0.00498643  0.0881892 0.0000
  5   -189.3690593166  -0.158593442712 0.01113962  0.00063369  0.0128095 0.0000
  6   -189.3693420392  -0.000282722654 0.00304255  0.00019584  0.0062388 0.0000
                      *** Initiating the SOSCF procedure ***
                           *** Shutting down DIIS ***
                      *** Re-Reading the Fockian *** 
                      *** Removing any level shift *** 
ITER      Energy       Delta-E        Grad      Rot      Max-DP    RMS-DP
  7   -189.36941605  -0.0000740136  0.000952  0.000952  0.001865  0.000086
               *** Restarting incremental Fock matrix formation ***
  8   -189.36942497  -0.0000089135  0.000454  0.000678  0.001352  0.000086
  9   -189.36942449   0.0000004741  0.000851  0.000878  0.001021  0.000044
 10   -189.36942770  -0.0000032031  0.000033  0.000062  0.000086  0.000006
 11   -189.36942771  -0.0000000121  0.000014  0.000023  0.000047  0.000002
 12   -189.36942771  -0.0000000007  0.000011  0.000011  0.000020  0.000001
                  ***Gradient check signals convergence***
              ***Rediagonalizing the Fockian in SOSCF/NRSCF***

               *****************************************************
               *                     SUCCESS                       *
               *           SCF CONVERGED AFTER  13 CYCLES          *
               *****************************************************

Old exchange energy                            =     -9.373916945 Eh
New exchange energy                            =     -9.373914329 Eh
Exchange energy change after final integration =      0.000002615 Eh
Total energy after final integration           =   -189.369425094 Eh
Final COS-X integration done in                =     0.464 sec

----------------
TOTAL SCF ENERGY
----------------

Total Energy       :         -189.36942509 Eh           -5153.00403 eV

Components:
Nuclear Repulsion  :           70.11576202 Eh            1907.94688 eV
Electronic Energy  :         -259.48518711 Eh           -7060.95091 eV
One Electron Energy:         -398.12805161 Eh          -10833.61505 eV
Two Electron Energy:          138.64286449 Eh            3772.66414 eV
Max COSX asymmetry :            0.00000196 Eh               0.00005 eV

Virial components:
Potential Energy   :         -377.46514431 Eh          -10271.34876 eV
Kinetic Energy     :          188.09571921 Eh            5118.34473 eV
Virial Ratio       :            2.00677158


DFT components:
N(Alpha)           :       12.000000024583 electrons
N(Beta)            :       12.000000024583 electrons
N(Total)           :       24.000000049165 electrons
E(X)               :      -12.501400368989 Eh       
E(C)               :       -1.075280467976 Eh       
E(XC)              :      -13.576680836965 Eh       
DFET-embed. en.    :        0.000000000000 Eh       

---------------
SCF CONVERGENCE
---------------

  Last Energy change         ...   -1.0279e-09  Tolerance :   1.0000e-08
  Last MAX-Density change    ...    1.2212e-15  Tolerance :   1.0000e-07
  Last RMS-Density change    ...    6.3293e-17  Tolerance :   5.0000e-09
  Last Orbital Gradient      ...    6.5906e-07  Tolerance :   1.0000e-05
  Last Orbital Rotation      ...    5.5379e-07  Tolerance :   1.0000e-05

             **** THE GBW FILE WAS UPDATED (pbeh-3c.gbw) ****
             **** DENSITY pbeh-3c.scfp WAS UPDATED ****
             **** ENERGY FILE WAS UPDATED (pbeh-3c.en.tmp) ****
             **** THE GBW FILE WAS UPDATED (pbeh-3c.gbw) ****
             **** DENSITY pbeh-3c.scfp WAS UPDATED ****
----------------
ORBITAL ENERGIES
----------------

  NO   OCC          E(Eh)            E(eV) 
   0   2.0000     -19.565240      -532.3973 
   1   2.0000     -19.492893      -530.4286 
   2   2.0000     -10.586993      -288.0867 
   3   2.0000      -1.235517       -33.6201 
   4   2.0000      -1.129389       -30.7322 
   5   2.0000      -0.750837       -20.4313 
   6   2.0000      -0.595324       -16.1996 
   7   2.0000      -0.562669       -15.3110 
   8   2.0000      -0.519530       -14.1371 
   9   2.0000      -0.465501       -12.6669 
  10   2.0000      -0.384289       -10.4570 
  11   2.0000      -0.345882        -9.4119 
  12   0.0000       0.036857         1.0029 
  13   0.0000       0.108499         2.9524 
  14   0.0000       0.197268         5.3679 
  15   0.0000       0.305854         8.3227 
  16   0.0000       0.323055         8.7908 
  17   0.0000       0.495574        13.4853 
  18   0.0000       0.557309        15.1651 
  19   0.0000       0.657300        17.8861 
  20   0.0000       0.720561        19.6075 
  21   0.0000       0.841652        22.9025 
  22   0.0000       0.948541        25.8111 
  23   0.0000       0.955191        25.9921 
  24   0.0000       0.993957        27.0469 
  25   0.0000       1.075321        29.2610 
  26   0.0000       1.103224        30.0203 
  27   0.0000       1.169262        31.8172 
  28   0.0000       1.234036        33.5798 
  29   0.0000       1.437193        39.1080 
  30   0.0000       1.511169        41.1210 
  31   0.0000       1.695822        46.1457 
  32   0.0000       1.790197        48.7137 
  33   0.0000       1.858352        50.5683 
  34   0.0000       1.879624        51.1472 
  35   0.0000       1.899161        51.6788 
  36   0.0000       1.902704        51.7752 
  37   0.0000       1.988849        54.1193 
  38   0.0000       2.171934        59.1013 
  39   0.0000       2.384805        64.8938 
  40   0.0000       2.429031        66.0973 
  41   0.0000       2.644726        71.9667 
  42   0.0000       2.713531        73.8389 
  43   0.0000       2.808219        76.4155 
  44   0.0000       2.925391        79.6039 
  45   0.0000       3.065075        83.4049 
  46   0.0000      13.829182       376.3112 
  47   0.0000      25.459679       692.7931 
  48   0.0000      25.584022       696.1766 

                    ********************************
                    * MULLIKEN POPULATION ANALYSIS *
                    ********************************

-----------------------
MULLIKEN ATOMIC CHARGES
-----------------------
   0 C :    0.297317
   1 O :   -0.543778
   2 O :   -0.393256
   3 H :    0.193372
   4 H :    0.446345
Sum of atomic charges:    0.0000000

--------------------------------
MULLIKEN REDUCED ORBITAL CHARGES
--------------------------------
  0 C s       :     3.058065  s :     3.058065
      pz      :     0.744336  p :     2.512010
      px      :     0.996778
      py      :     0.770896
      dz2     :     0.007417  d :     0.132607
      dxz     :     0.005083
      dyz     :     0.027628
      dx2y2   :     0.058280
      dxy     :     0.034200
  1 O s       :     3.785225  s :     3.785225
      pz      :     1.793188  p :     4.727987
      px      :     1.429780
      py      :     1.505019
      dz2     :     0.004801  d :     0.030566
      dxz     :     0.000079
      dyz     :     0.005972
      dx2y2   :     0.016057
      dxy     :     0.003656
  2 O s       :     3.775246  s :     3.775246
      pz      :     1.411777  p :     4.587268
      px      :     1.647525
      py      :     1.527966
      dz2     :     0.002730  d :     0.030742
      dxz     :     0.003954
      dyz     :     0.007982
      dx2y2   :     0.007583
      dxy     :     0.008493
  3 H s       :     0.806628  s :     0.806628
  4 H s       :     0.553655  s :     0.553655


                     *******************************
                     * LOEWDIN POPULATION ANALYSIS *
                     *******************************

----------------------
LOEWDIN ATOMIC CHARGES
----------------------
   0 C :    0.085908
   1 O :   -0.276374
   2 O :   -0.247701
   3 H :    0.097557
   4 H :    0.340610

-------------------------------
LOEWDIN REDUCED ORBITAL CHARGES
-------------------------------
  0 C s       :     2.888629  s :     2.888629
      pz      :     0.752559  p :     2.733348
      px      :     1.037009
      py      :     0.943779
      dz2     :     0.017359  d :     0.292116
      dxz     :     0.008115
      dyz     :     0.058135
      dx2y2   :     0.131916
      dxy     :     0.076589
  1 O s       :     3.497036  s :     3.497036
      pz      :     1.762794  p :     4.723737
      px      :     1.417627
      py      :     1.543316
      dz2     :     0.007618  d :     0.055601
      dxz     :     0.000655
      dyz     :     0.008523
      dx2y2   :     0.028091
      dxy     :     0.010714
  2 O s       :     3.542728  s :     3.542728
      pz      :     1.394304  p :     4.649387
      px      :     1.685477
      py      :     1.569606
      dz2     :     0.006551  d :     0.055586
      dxz     :     0.004888
      dyz     :     0.010026
      dx2y2   :     0.014212
      dxy     :     0.019910
  3 H s       :     0.902443  s :     0.902443
  4 H s       :     0.659390  s :     0.659390


                      *****************************
                      * MAYER POPULATION ANALYSIS *
                      *****************************

  NA   - Mulliken gross atomic population
  ZA   - Total nuclear charge
  QA   - Mulliken gross atomic charge
  VA   - Mayer's total valence
  BVA  - Mayer's bonded valence
  FA   - Mayer's free valence

  ATOM       NA         ZA         QA         VA         BVA        FA
  0 C      5.7027     6.0000     0.2973     4.1103     4.1103    -0.0000
  1 O      8.5438     8.0000    -0.5438     2.0409     2.0409     0.0000
  2 O      8.3933     8.0000    -0.3933     2.1828     2.1828     0.0000
  3 H      0.8066     1.0000     0.1934     0.9098     0.9098     0.0000
  4 H      0.5537     1.0000     0.4463     0.7909     0.7909    -0.0000

  Mayer bond orders larger than 0.100000
B(  0-C ,  1-O ) :   1.1942 B(  0-C ,  2-O ) :   2.0419 B(  0-C ,  3-H ) :   0.8691 
B(  1-O ,  4-H ) :   0.7514 

-------
TIMINGS
-------

Total SCF time: 0 days 0 hours 1 min 24 sec 

Total time                  ....      84.503 sec
Sum of individual times     ....      75.131 sec  ( 88.9%)

Fock matrix formation       ....      57.388 sec  ( 67.9%)
  Split-RI-J                ....      10.104 sec  ( 17.6% of F)
  Chain of spheres X        ....       7.907 sec  ( 13.8% of F)
  XC integration            ....      18.010 sec  ( 31.4% of F)
    Basis function eval.    ....       1.016 sec  (  5.6% of XC)
    Density eval.           ....       0.542 sec  (  3.0% of XC)
    XC-Functional eval.     ....       0.892 sec  (  5.0% of XC)
    XC-Potential eval.      ....       0.213 sec  (  1.2% of XC)
Diagonalization             ....       2.366 sec  (  2.8%)
Density matrix formation    ....       0.066 sec  (  0.1%)
Population analysis         ....       0.635 sec  (  0.8%)
Initial guess               ....       0.264 sec  (  0.3%)
Orbital Transformation      ....       0.000 sec  (  0.0%)
Orbital Orthonormalization  ....       0.000 sec  (  0.0%)
DIIS solution               ....       5.353 sec  (  6.3%)
SOSCF solution              ....       1.076 sec  (  1.3%)
Grid generation             ....       7.983 sec  (  9.4%)

Maximum memory used throughout the entire SCF-calculation: 45.1 MB


-------------------------------------------------------------------------------
                          DFT DISPERSION CORRECTION                            
                                                                               
                              DFTD3 V3.1  Rev 1                                
                          USING Becke-Johnson damping                          
-------------------------------------------------------------------------------
The PBEh-3c composite method is recognized
Using three-body term ABC
Active option DFTDOPT                   ...         4   

molecular C6(AA) [au] = 233.016840 


            DFT-D V3
 parameters
 s6 scaling factor         :     1.0000 
 a1 scaling factor         :     0.4860 
 s8 scaling factor         :     0.0000 
 a2 scaling factor         :     4.5000 
 Damping factor alpha9(ATM):    16.0000 
 ad hoc parameters k1-k3   :    16.0000     1.3333    -4.0000 

 Edisp/kcal,au: -0.626416640273  -0.000998258352 
 E6   /kcal   :  -0.626522685 
 E8   /kcal   :  -0.000000000 
 E6(ABC)      :   0.000106045 
 % E8         :   0.000000000 
 % E6(ABC)    :  -0.016928808 

-------------------------   ----------------
Dispersion correction           -0.000998258
-------------------------   ----------------

------------------   -----------------
gCP correction             0.013911369
------------------   -----------------

-------------------------   --------------------
FINAL SINGLE POINT ENERGY      -189.356511983495
-------------------------   --------------------


                            ***************************************
                            *     ORCA property calculations      *
                            ***************************************

                                    ---------------------
                                    Active property flags
                                    ---------------------
   (+) Dipole Moment


------------------------------------------------------------------------------
                       ORCA ELECTRIC PROPERTIES CALCULATION
------------------------------------------------------------------------------

Dipole Moment Calculation                       ... on
Quadrupole Moment Calculation                   ... off
Polarizability Calculation                      ... off
GBWName                                         ... pbeh-3c.gbw
Electron density                                ... pbeh-3c.scfp
The origin for moment calculation is the CENTER OF MASS  = ( 0.209985, -0.332142  0.000000)

-------------
DIPOLE MOMENT
-------------
                                X             Y             Z
Electronic contribution:      0.41543      -0.18125       0.00000
Nuclear contribution   :     -0.45318       0.91006       0.00000
                        -----------------------------------------
Total Dipole Moment    :     -0.03775       0.72880       0.00000
                        -----------------------------------------
Magnitude (a.u.)       :      0.72978
Magnitude (Debye)      :      1.85495



--------------------
Rotational spectrum 
--------------------
 
Rotational constants in cm-1:     2.639082     0.400208     0.347509 
Rotational constants in MHz : 79117.698723 11997.922839 10418.060353 

 Dipole components along the rotational axes: 
x,y,z [a.u.] :    -0.728796    -0.037892     0.000000 
x,y,z [Debye]:    -1.852452    -0.096313     0.000000 

 

Timings for individual modules:

Sum of individual times         ...       90.343 sec (=   1.506 min)
GTO integral calculation        ...        4.311 sec (=   0.072 min)   4.8 %
SCF iterations                  ...       86.032 sec (=   1.434 min)  95.2 %
                             ****ORCA TERMINATED NORMALLY****
TOTAL RUN TIME: 0 days 0 hours 1 minutes 32 seconds 542 msec
