
                                 *****************
                                 * O   R   C   A *
                                 *****************

                                            #,                                       
                                            ###                                      
                                            ####                                     
                                            #####                                    
                                            ######                                   
                                           ########,                                 
                                     ,,################,,,,,                         
                               ,,#################################,,                 
                          ,,##########################################,,             
                       ,#########################################, ''#####,          
                    ,#############################################,,   '####,        
                  ,##################################################,,,,####,       
                ,###########''''           ''''###############################       
              ,#####''   ,,,,##########,,,,          '''####'''          '####       
            ,##' ,,,,###########################,,,                        '##       
           ' ,,###''''                  '''############,,,                           
         ,,##''                                '''############,,,,        ,,,,,,###''
      ,#''                                            '''#######################'''  
     '                                                          ''''####''''         
             ,#######,   #######,   ,#######,      ##                                
            ,#'     '#,  ##    ##  ,#'     '#,    #''#        ######   ,####,        
            ##       ##  ##   ,#'  ##            #'  '#       #        #'  '#        
            ##       ##  #######   ##           ,######,      #####,   #    #        
            '#,     ,#'  ##    ##  '#,     ,#' ,#      #,         ##   #,  ,#        
             '#######'   ##     ##  '#######'  #'      '#     #####' # '####'        



                  #######################################################
                  #                        -***-                        #
                  #          Department of theory and spectroscopy      #
                  #    Directorship and core code : Frank Neese         #
                  #        Max Planck Institute fuer Kohlenforschung    #
                  #                Kaiser Wilhelm Platz 1               #
                  #                 D-45470 Muelheim/Ruhr               #
                  #                      Germany                        #
                  #                                                     #
                  #                  All rights reserved                #
                  #                        -***-                        #
                  #######################################################


                         Program Version 5.0.3 -  RELEASE  -


 With contributions from (in alphabetic order):
   Daniel Aravena         : Magnetic Suceptibility
   Michael Atanasov       : Ab Initio Ligand Field Theory (pilot matlab implementation)
   Alexander A. Auer      : GIAO ZORA, VPT2 properties, NMR spectrum
   Ute Becker             : Parallelization
   Giovanni Bistoni       : ED, misc. LED, open-shell LED, HFLD
   Martin Brehm           : Molecular dynamics
   Dmytro Bykov           : SCF Hessian
   Vijay G. Chilkuri      : MRCI spin determinant printing, contributions to CSF-ICE
   Dipayan Datta          : RHF DLPNO-CCSD density
   Achintya Kumar Dutta   : EOM-CC, STEOM-CC
   Dmitry Ganyushin       : Spin-Orbit,Spin-Spin,Magnetic field MRCI
   Miquel Garcia          : C-PCM and meta-GGA Hessian, CC/C-PCM, Gaussian charge scheme
   Yang Guo               : DLPNO-NEVPT2, F12-NEVPT2, CIM, IAO-localization
   Andreas Hansen         : Spin unrestricted coupled pair/coupled cluster methods
   Benjamin Helmich-Paris : MC-RPA, TRAH-SCF, COSX integrals
   Lee Huntington         : MR-EOM, pCC
   Robert Izsak           : Overlap fitted RIJCOSX, COSX-SCS-MP3, EOM
   Marcus Kettner         : VPT2
   Christian Kollmar      : KDIIS, OOCD, Brueckner-CCSD(T), CCSD density, CASPT2, CASPT2-K
   Simone Kossmann        : Meta GGA functionals, TD-DFT gradient, OOMP2, MP2 Hessian
   Martin Krupicka        : Initial AUTO-CI
   Lucas Lang             : DCDCAS
   Marvin Lechner         : AUTO-CI (C++ implementation), FIC-MRCC
   Dagmar Lenk            : GEPOL surface, SMD
   Dimitrios Liakos       : Extrapolation schemes; Compound Job, initial MDCI parallelization
   Dimitrios Manganas     : Further ROCIS development; embedding schemes
   Dimitrios Pantazis     : SARC Basis sets
   Anastasios Papadopoulos: AUTO-CI, single reference methods and gradients
   Taras Petrenko         : DFT Hessian,TD-DFT gradient, ASA, ECA, R-Raman, ABS, FL, XAS/XES, NRVS
   Peter Pinski           : DLPNO-MP2, DLPNO-MP2 Gradient
   Christoph Reimann      : Effective Core Potentials
   Marius Retegan         : Local ZFS, SOC
   Christoph Riplinger    : Optimizer, TS searches, QM/MM, DLPNO-CCSD(T), (RO)-DLPNO pert. Triples
   Tobias Risthaus        : Range-separated hybrids, TD-DFT gradient, RPA, STAB
   Michael Roemelt        : Original ROCIS implementation
   Masaaki Saitow         : Open-shell DLPNO-CCSD energy and density
   Barbara Sandhoefer     : DKH picture change effects
   Avijit Sen             : IP-ROCIS
   Kantharuban Sivalingam : CASSCF convergence, NEVPT2, FIC-MRCI
   Bernardo de Souza      : ESD, SOC TD-DFT
   Georgi Stoychev        : AutoAux, RI-MP2 NMR, DLPNO-MP2 response
   Willem Van den Heuvel  : Paramagnetic NMR
   Boris Wezisla          : Elementary symmetry handling
   Frank Wennmohs         : Technical directorship


 We gratefully acknowledge several colleagues who have allowed us to
 interface, adapt or use parts of their codes:
   Stefan Grimme, W. Hujo, H. Kruse, P. Pracht,  : VdW corrections, initial TS optimization,
                  C. Bannwarth, S. Ehlert          DFT functionals, gCP, sTDA/sTD-DF
   Ed Valeev, F. Pavosevic, A. Kumar             : LibInt (2-el integral package), F12 methods
   Garnet Chan, S. Sharma, J. Yang, R. Olivares  : DMRG
   Ulf Ekstrom                                   : XCFun DFT Library
   Mihaly Kallay                                 : mrcc  (arbitrary order and MRCC methods)
   Jiri Pittner, Ondrej Demel                    : Mk-CCSD
   Frank Weinhold                                : gennbo (NPA and NBO analysis)
   Christopher J. Cramer and Donald G. Truhlar   : smd solvation model
   Lars Goerigk                                  : TD-DFT with DH, B97 family of functionals
   V. Asgeirsson, H. Jonsson                     : NEB implementation
   FAccTs GmbH                                   : IRC, NEB, NEB-TS, DLPNO-Multilevel, CI-OPT
                                                   MM, QMMM, 2- and 3-layer-ONIOM, Crystal-QMMM,
                                                   LR-CPCM, SF, NACMEs, symmetry and pop. for TD-DFT,
                                                   nearIR, NL-DFT gradient (VV10), updates on ESD,
                                                   ML-optimized integration grids
   S Lehtola, MJT Oliveira, MAL Marques          : LibXC Library
   Liviu Ungur et al                             : ANISO software


 Your calculation uses the libint2 library for the computation of 2-el integrals
 For citations please refer to: http://libint.valeyev.net

 Your ORCA version has been built with support for libXC version: 5.1.0
 For citations please refer to: https://tddft.org/programs/libxc/

 This ORCA versions uses:
   CBLAS   interface :  Fast vector & matrix operations
   LAPACKE interface :  Fast linear algebra routines
   SCALAPACK package :  Parallel linear algebra routines
   Shared memory     :  Shared parallel matrices
   BLAS/LAPACK       :  OpenBLAS 0.3.15  USE64BITINT DYNAMIC_ARCH NO_AFFINITY Haswell SINGLE_THREADED
        Core in use  :  Haswell
   Copyright (c) 2011-2014, The OpenBLAS Project




***************************************
The coordinates will be read from file: sbh3_nh3.xyz
***************************************


Your calculation utilizes the geometrical counterpoise correction gCP
Please cite in your paper:
H.Kruse, S. Grimme J.Chem.Phys., 136, (2012), 154101 
   

Your calculation utilizes the atom-pairwise dispersion correction
with the Becke-Johnson damping scheme (D3BJ)
Cite in your paper:
S.Grimme, S.Ehrlich, L.Goerigk, J Comput Chem, (2011), 32, 1456–1465 
S.Grimme, J.Antony, S.Ehrlich and H.Krieg, J.Chem.Phys., 132, (2010), 154104 
   

Your calculation employs the composite approach PBEh-3c.
Please cite in your paper:
S. Grimme, J. G. Brandenburg, C. Bannwarth, A. Hansen J.Chem.Phys., 143, (2015), 054107 
   

================================================================================

cite the ECPs for Sb [Def2-ECP] as follows:
Ce-Yb(ecp-28): M. Dolg, H. Stoll, H.Preuss, J. Chem. Phys., 1989, 90, 1730-1734.
Y-Cd(ecp-28), Hf-Hg(ecp-46): D. Andrae,U. Haeussermann, M. Dolg, H. Stoll, H. Preuss, Theor. Chim. Acta, 1990, 77, 123-141.
In-Sb(ecp-28), Tl-Bi(ecp-46): B. Metz, H. Stoll, M. Dolg, J. Chem. Phys., 2000, 113, 2563-2569.
Te-Xe(ecp-28), Po-Rn(ecp-46): K. A. Peterson, D. Figgen, E. Goll, H. Stoll, M. Dolg, J. Chem. Phys., 2003, 119, 11113-11123.
Rb(ecp-28), Cs(ecp-46): T. Leininger, A. Nicklass, W. Kuechle, H. Stoll, M. Dolg, A. Bergner, Chem. Phys. Lett., 1996, 255, 274-280.
Sr(ecp-28), Ba(ecp-46): M. Kaupp, P. V. Schleyer, H. Stoll and H. Preuss, J. Chem. Phys., 1991, 94, 1360-1366.
La(ecp-46): M. Dolg, H. Stoll, A. Savin, H. Preuss, Theor. Chim. Acta, 1989, 75, 173-194.
Lu(ecp-28): X. Cao, M. Dolg, J. Chem. Phys., 2001, 115, 7348-7355.

ECP parameters for Sb [Def2-ECP] have been obtained from:
TURBOMOLE (7.0.2)

----- Orbital basis set information -----
Your calculation utilizes the basis: def2-mSVP

----- AuxJ basis set information -----
Your calculation utilizes the auxiliary basis: def2/J
   F. Weigend, Phys. Chem. Chem. Phys. 8, 1057 (2006).

================================================================================
                                        WARNINGS
                       Please study these warnings very carefully!
================================================================================


INFO   : the flag for use of the SHARK integral package has been found!

================================================================================
                                       INPUT FILE
================================================================================
NAME = pbeh-3c.inp
|  1> ! PBEh-3c def2/J TightSCF DefGrid3
|  2> 
|  3> %maxcore 60000
|  4> 
|  5> %pal
|  6> nprocs 4
|  7> end
|  8> 
|  9> *xyzfile 0 1 sbh3_nh3.xyz
| 10> 
| 11>                          ****END OF INPUT****
================================================================================

                       ****************************
                       * Single Point Calculation *
                       ****************************

---------------------------------
CARTESIAN COORDINATES (ANGSTROEM)
---------------------------------
  Sb     0.361063   -1.688854    0.000000
  H     -0.684404   -1.179926    1.212678
  H     -0.343185   -3.230787    0.000000
  H     -0.684404   -1.179926   -1.212678
  N      0.361063    1.537385    0.000000
  H     -0.137183    1.875937    0.811226
  H      1.264233    1.990235    0.000000
  H     -0.137183    1.875937   -0.811226

----------------------------
CARTESIAN COORDINATES (A.U.)
----------------------------
  NO LB      ZA    FRAG     MASS         X           Y           Z
   0 Sb   23.0000*   0   121.750    0.682309   -3.191472    0.000000
   1 H     1.0000    0     1.008   -1.293337   -2.229737    2.291629
   2 H     1.0000    0     1.008   -0.648525   -6.105302    0.000000
   3 H     1.0000    0     1.008   -1.293337   -2.229737   -2.291629
   4 N     7.0000    0    14.007    0.682309    2.905236    0.000000
   5 H     1.0000    0     1.008   -0.259237    3.545007    1.532995
   6 H     1.0000    0     1.008    2.389055    3.760999    0.000000
   7 H     1.0000    0     1.008   -0.259237    3.545007   -1.532995
* core charge reduced due to ECP

--------------------------------
INTERNAL COORDINATES (ANGSTROEM)
--------------------------------
 Sb     0   0   0     0.000000000000     0.00000000     0.00000000
 H      1   0   0     1.680058524701     0.00000000     0.00000000
 H      1   2   0     1.695146278382    90.97509661     0.00000000
 H      1   2   3     1.680058524701    92.40773365    91.01711034
 N      2   1   3     3.153944660427    77.12536735   198.34293354
 H      5   2   1     1.010422154275    79.42771593   188.82183770
 H      5   2   1     1.010341876068   133.03784790   292.13108752
 H      5   2   1     1.010422154275   115.71628722    85.13566725

---------------------------
INTERNAL COORDINATES (A.U.)
---------------------------
 Sb     0   0   0     0.000000000000     0.00000000     0.00000000
 H      1   0   0     3.174850500645     0.00000000     0.00000000
 H      1   2   0     3.203362223077    90.97509661     0.00000000
 H      1   2   3     3.174850500645    92.40773365    91.01711034
 N      2   1   3     5.960091649750    77.12536735   198.34293354
 H      5   2   1     1.909421151226    79.42771593   188.82183770
 H      5   2   1     1.909269447401   133.03784790   292.13108752
 H      5   2   1     1.909421151226   115.71628722    85.13566725

---------------------
BASIS SET INFORMATION
---------------------
There are 3 groups of distinct atoms

 Group   1 Type Sb  : 10s7p6d contracted to 4s4p2d pattern {6211/4111/51}
 Group   2 Type H   : 4s contracted to 2s pattern {31}
 Group   3 Type N   : 8s4p1d contracted to 4s2p1d pattern {5111/31/1}

Atom   0Sb   basis set group =>   1
Atom   1H    basis set group =>   2
Atom   2H    basis set group =>   2
Atom   3H    basis set group =>   2
Atom   4N    basis set group =>   3
Atom   5H    basis set group =>   2
Atom   6H    basis set group =>   2
Atom   7H    basis set group =>   2
---------------------------------
AUXILIARY/J BASIS SET INFORMATION
---------------------------------
There are 3 groups of distinct atoms

 Group   1 Type Sb  : 11s5p5d3f1g contracted to 8s4p3d2f1g pattern {41111111/2111/311/21/1}
 Group   2 Type H   : 5s2p1d contracted to 3s1p1d pattern {311/2/1}
 Group   3 Type N   : 12s5p4d2f1g contracted to 6s4p3d1f1g pattern {711111/2111/211/2/1}

Atom   0Sb   basis set group =>   1
Atom   1H    basis set group =>   2
Atom   2H    basis set group =>   2
Atom   3H    basis set group =>   2
Atom   4N    basis set group =>   3
Atom   5H    basis set group =>   2
Atom   6H    basis set group =>   2
Atom   7H    basis set group =>   2
-------------------------
ECP PARAMETER INFORMATION
-------------------------

 Group 1, Type Sb ECP Def2-ECP (replacing 28 core electrons, lmax=3)

Atom   0Sb   ECP group =>   1



           ************************************************************
           *        Program running with 4 parallel MPI-processes     *
           *              working on a common directory               *
           ************************************************************
------------------------------------------------------------------------------
                           ORCA GTO INTEGRAL CALCULATION
                           -- RI-GTO INTEGRALS CHOSEN --
------------------------------------------------------------------------------
------------------------------------------------------------------------------
                   ___                                                        
                  /   \      - P O W E R E D   B Y -                         
                 /     \                                                     
                 |  |  |   _    _      __       _____    __    __             
                 |  |  |  | |  | |    /  \     |  _  \  |  |  /  |          
                  \  \/   | |  | |   /    \    | | | |  |  | /  /          
                 / \  \   | |__| |  /  /\  \   | |_| |  |  |/  /          
                |  |  |   |  __  | /  /__\  \  |    /   |      \           
                |  |  |   | |  | | |   __   |  |    \   |  |\   \          
                \     /   | |  | | |  |  |  |  | |\  \  |  | \   \       
                 \___/    |_|  |_| |__|  |__|  |_| \__\ |__|  \__/        
                                                                              
                      - O R C A' S   B I G   F R I E N D -                    
                                      &                                       
                       - I N T E G R A L  F E E D E R -                       
                                                                              
 v1 FN, 2020, v2 2021                                                         
------------------------------------------------------------------------------


Reading SHARK input file pbeh-3c.SHARKINP.tmp ... ok
----------------------
SHARK INTEGRAL PACKAGE
----------------------

Number of atoms                             ...      8
Number of basis functions                   ...     53
Number of shells                            ...     29
Maximum angular momentum                    ...      2
Integral batch strategy                     ... SHARK/LIBINT Hybrid
RI-J (if used) integral strategy            ... SPLIT-RIJ (Revised 2003 algorithm where possible)
Printlevel                                  ...      1
Contraction scheme used                     ... SEGMENTED contraction
Coulomb Range Separation                    ... NOT USED
Exchange Range Separation                   ... NOT USED
Finite Nucleus Model                        ... NOT USED
Auxiliary Coulomb fitting basis             ... AVAILABLE
   # of basis functions in Aux-J            ...    173
   # of shells in Aux-J                     ...     63
   Maximum angular momentum in Aux-J        ...      4
Auxiliary J/K fitting basis                 ... NOT available
Auxiliary Correlation fitting basis         ... NOT available
Auxiliary 'external' fitting basis          ... NOT available
Integral threshold                          ...     2.500000e-11
Primitive cut-off                           ...     2.500000e-12
Primitive pair pre-selection threshold      ...     2.500000e-12

Calculating pre-screening integrals         ... done (  0.0 sec) Dimension = 29
Organizing shell pair data                  ... done (  0.3 sec)
Shell pair information
Total number of shell pairs                 ...       435
Shell pairs after pre-screening             ...       422
Total number of primitive shell pairs       ...      1893
Primitive shell pairs kept                  ...      1439
          la=0 lb=0:    200 shell pairs
          la=1 lb=0:    117 shell pairs
          la=1 lb=1:     21 shell pairs
          la=2 lb=0:     60 shell pairs
          la=2 lb=1:     18 shell pairs
          la=2 lb=2:      6 shell pairs

Calculating one electron integrals          ... done (  0.0 sec)
Calculating ECP integrals                   ... done (  0.1 sec)
Calculating RI/J V-Matrix + Cholesky decomp.... done (  0.2 sec)
Calculating Nuclear repulsion               ... done (  0.1 sec) ENN=     74.833991678454 Eh

SHARK setup successfully completed in   1.8 seconds

Maximum memory used throughout the entire GTOINT-calculation: 10.0 MB


           ************************************************************
           *        Program running with 4 parallel MPI-processes     *
           *              working on a common directory               *
           ************************************************************
-------------------------------------------------------------------------------
                                 ORCA SCF
-------------------------------------------------------------------------------

------------
SCF SETTINGS
------------
Hamiltonian:
 Density Functional     Method          .... DFT(GTOs)
 Exchange Functional    Exchange        .... PBE
   PBE kappa parameter   XKappa         ....  1.024500
   PBE mue parameter    XMuePBE         ....  0.123457
 Correlation Functional Correlation     .... PBE
   PBE beta parameter  CBetaPBE         ....  0.030000
 LDA part of GGA corr.  LDAOpt          .... PW91-LDA
 Gradients option       PostSCFGGA      .... off
 Hybrid DFT is turned on
   Fraction HF Exchange ScalHFX         ....  0.420000
   Scaling of DF-GGA-X  ScalDFX         ....  0.580000
   Scaling of DF-GGA-C  ScalDFC         ....  1.000000
   Scaling of DF-LDA-C  ScalLDAC        ....  1.000000
   Perturbative correction              ....  0.000000
   Density functional embedding theory  .... OFF
 RI-approximation to the Coulomb term is turned on
   Number of AuxJ basis functions       .... 173
   RIJ-ON(X) (HFX calculated with O(N)) .... on
   Number of AuxJ basis functions       .... 173
   RIJ-COSX (HFX calculated with COS-X)).... on


General Settings:
 Integral files         IntName         .... pbeh-3c
 Hartree-Fock type      HFTyp           .... RHF
 Total Charge           Charge          ....    0
 Multiplicity           Mult            ....    1
 Number of Electrons    NEL             ....   36
 Basis Dimension        Dim             ....   53
 Nuclear Repulsion      ENuc            ....     74.8339916785 Eh

Convergence Acceleration:
 DIIS                   CNVDIIS         .... on
   Start iteration      DIISMaxIt       ....    12
   Startup error        DIISStart       ....  0.200000
   # of expansion vecs  DIISMaxEq       ....     5
   Bias factor          DIISBfac        ....   1.050
   Max. coefficient     DIISMaxC        ....  10.000
 Trust-Rad. Augm. Hess. CNVTRAH         .... auto
   Auto Start mean grad. ratio tolernc. ....  1.125000
   Auto Start start iteration           ....    20
   Auto Start num. interpolation iter.  ....    10
   Max. Number of Micro iterations      ....    16
   Max. Number of Macro iterations      .... Maxiter - #DIIS iter
   Number of Davidson start vectors     ....     2
   Converg. threshold I  (grad. norm)   ....   1.000e-05
   Converg. threshold II (energy diff.) ....   1.000e-08
   Grad. Scal. Fac. for Micro threshold ....   0.100
   Minimum threshold for Micro iter.    ....   0.010
   NR start threshold (gradient norm)   ....   0.001
   Initial trust radius                 ....   0.400
   Minimum AH scaling param. (alpha)    ....   1.000
   Maximum AH scaling param. (alpha)    .... 1000.000
   Orbital update algorithm             .... Taylor
   White noise on init. David. guess    .... on
   Maximum white noise                  ....   0.010
   Quad. conv. algorithm                .... NR
   COSX micro iterations for RIJONX calc.... off
 SOSCF                  CNVSOSCF        .... on
   Start iteration      SOSCFMaxIt      ....   150
   Startup grad/error   SOSCFStart      ....  0.003300
 Level Shifting         CNVShift        .... on
   Level shift para.    LevelShift      ....    0.2500
   Turn off err/grad.   ShiftErr        ....    0.0010
 Zerner damping         CNVZerner       .... off
 Static damping         CNVDamp         .... on
   Fraction old density DampFac         ....    0.7000
   Max. Damping (<1)    DampMax         ....    0.9800
   Min. Damping (>=0)   DampMin         ....    0.0000
   Turn off err/grad.   DampErr         ....    0.1000
 Fernandez-Rico         CNVRico         .... off

SCF Procedure:
 Maximum # iterations   MaxIter         ....   125
 SCF integral mode      SCFMode         .... Direct
   Integral package                     .... SHARK and LIBINT hybrid scheme
 Reset frequency        DirectResetFreq ....    20
 Integral Threshold     Thresh          ....  2.500e-11 Eh
 Primitive CutOff       TCut            ....  2.500e-12 Eh

Convergence Tolerance:
 Convergence Check Mode ConvCheckMode   .... Total+1el-Energy
 Convergence forced     ConvForced      .... 0
 Energy Change          TolE            ....  1.000e-08 Eh
 1-El. energy change                    ....  1.000e-05 Eh
 Orbital Gradient       TolG            ....  1.000e-05
 Orbital Rotation angle TolX            ....  1.000e-05
 DIIS Error             TolErr          ....  5.000e-07


Diagonalization of the overlap matrix:
Smallest eigenvalue                        ... 2.207e-02
Time for diagonalization                   ...    0.001 sec
Threshold for overlap eigenvalues          ... 1.000e-08
Number of eigenvalues below threshold      ... 0
Time for construction of square roots      ...    0.122 sec
Total time needed                          ...    0.124 sec

--------------------------------
INITIAL GUESS: MINIMAL BASIS EHT
--------------------------------
The minimal basis has 24 functions
EHT matrix was diagonalized
Basis set overlap was calculated now projecting the orbitals
Using GuessMode=FMatrix for the initial guess
C*T matrix was formed
Effective Fockian was calculated
Effective Fockian was diagonalized
Initial density was built
                      ------------------
                      INITIAL GUESS DONE
                      ------------------
-------------------
DFT GRID GENERATION
-------------------

General Integration Accuracy     IntAcc      ... 4.959
Radial Grid Type                 RadialGrid  ... OptM3 with GC (2021)
Angular Grid (max. ang.)         AngularGrid ... 6 (Lebedev-590)
Angular grid pruning method      GridPruning ... 4 (adaptive)
Weight generation scheme         WeightScheme... Becke
Basis function cutoff            BFCut       ... 1.0000e-11
Integration weight cutoff        WCut        ... 1.0000e-14
Angular grids for H and He will be reduced by one unit
Partially contracted basis set               ... off
Rotationally invariant grid construction     ... off

Total number of grid points                  ...    93214
Total number of batches                      ...     1461
Average number of points per batch           ...       63
Average number of grid points per atom       ...    11652
Time for grid setup =    2.024 sec

--------------------
COSX GRID GENERATION
--------------------

GRIDX 1
-------
General Integration Accuracy     IntAcc      ... 4.020
Radial Grid Type                 RadialGrid  ... OptM3 with GC (2021)
Angular Grid (max. ang.)         AngularGrid ... 2 (Lebedev-110)
Angular grid pruning method      GridPruning ... 4 (adaptive)
Weight generation scheme         WeightScheme... Becke
Basis function cutoff            BFCut       ... 1.0000e-11
Integration weight cutoff        WCut        ... 1.0000e-14
Angular grids for H and He will be reduced by one unit
Partially contracted basis set               ... on
Rotationally invariant grid construction     ... off

Total number of grid points                  ...     9680
Total number of batches                      ...      156
Average number of points per batch           ...       62
Average number of grid points per atom       ...     1210
UseSFitting                                  ... on

GRIDX 2
-------
General Integration Accuracy     IntAcc      ... 4.338
Radial Grid Type                 RadialGrid  ... OptM3 with GC (2021)
Angular Grid (max. ang.)         AngularGrid ... 3 (Lebedev-194)
Angular grid pruning method      GridPruning ... 4 (adaptive)
Weight generation scheme         WeightScheme... Becke
Basis function cutoff            BFCut       ... 1.0000e-11
Integration weight cutoff        WCut        ... 1.0000e-14
Angular grids for H and He will be reduced by one unit
Partially contracted basis set               ... on
Rotationally invariant grid construction     ... off

Total number of grid points                  ...    20541
Total number of batches                      ...      325
Average number of points per batch           ...       63
Average number of grid points per atom       ...     2568
UseSFitting                                  ... on

GRIDX 3
-------
General Integration Accuracy     IntAcc      ... 4.871
Radial Grid Type                 RadialGrid  ... OptM3 with GC (2021)
Angular Grid (max. ang.)         AngularGrid ... 4 (Lebedev-302)
Angular grid pruning method      GridPruning ... 4 (adaptive)
Weight generation scheme         WeightScheme... Becke
Basis function cutoff            BFCut       ... 1.0000e-11
Integration weight cutoff        WCut        ... 1.0000e-14
Angular grids for H and He will be reduced by one unit
Partially contracted basis set               ... on
Rotationally invariant grid construction     ... off

Total number of grid points                  ...    41793
Total number of batches                      ...      658
Average number of points per batch           ...       63
Average number of grid points per atom       ...     5224
UseSFitting                                  ... on

Time for X-Grid setup             =    2.724 sec

--------------
SCF ITERATIONS
--------------
ITER       Energy         Delta-E        Max-DP      RMS-DP      [F,P]     Damp
               ***  Starting incremental Fock matrix formation  ***
  0   -297.1570728133   0.000000000000 0.21885969  0.01299471  1.0548019 0.7000
  1   -297.5539504703  -0.396877657000 0.17346637  0.00939537  0.7451038 0.7000
  2   -297.8292206603  -0.275270190020 0.14684511  0.00689204  0.5268338 0.7000
  3   -298.0226699884  -0.193449328092 0.12071539  0.00511576  0.3726837 0.7000
  4   -298.1592593539  -0.136589365552 0.09768219  0.00382871  0.2637667 0.7000
                               ***Turning on DIIS***
  5   -298.2556734645  -0.096414110517 0.07834141  0.00288224  0.1867640 0.7000
  6   -298.3236556127  -0.067982148206 0.06943858  0.00233577  0.1322888 0.7000
  7   -298.3715578318  -0.047902219134 0.18981346  0.00607423  0.0930381 0.0000
                      *** Initiating the SOSCF procedure ***
                           *** Shutting down DIIS ***
                      *** Re-Reading the Fockian *** 
                      *** Removing any level shift *** 
ITER      Energy       Delta-E        Grad      Rot      Max-DP    RMS-DP
  8   -298.48462205  -0.1130642216  0.002158  0.002158  0.016990  0.000451
               *** Restarting incremental Fock matrix formation ***
  9   -298.48468078  -0.0000587288  0.001067  0.002444  0.010360  0.000310
 10   -298.48469699  -0.0000162042  0.000209  0.000651  0.002922  0.000092
 11   -298.48469797  -0.0000009826  0.000066  0.000068  0.000225  0.000010
 12   -298.48469799  -0.0000000172  0.000056  0.000042  0.000144  0.000006
 13   -298.48469801  -0.0000000240  0.000004  0.000009  0.000016  0.000001
                  ***Gradient check signals convergence***
              ***Rediagonalizing the Fockian in SOSCF/NRSCF***

               *****************************************************
               *                     SUCCESS                       *
               *           SCF CONVERGED AFTER  14 CYCLES          *
               *****************************************************

Old exchange energy                            =    -11.376296954 Eh
New exchange energy                            =    -11.376310148 Eh
Exchange energy change after final integration =     -0.000013193 Eh
Total energy after final integration           =   -298.484711203 Eh
Final COS-X integration done in                =     0.734 sec

----------------
TOTAL SCF ENERGY
----------------

Total Energy       :         -298.48471120 Eh           -8122.18192 eV

Components:
Nuclear Repulsion  :           74.83399168 Eh            2036.33644 eV
Electronic Energy  :         -373.31870288 Eh          -10158.51835 eV
One Electron Energy:         -647.43695357 Eh          -17617.65517 eV
Two Electron Energy:          274.11825069 Eh            7459.13682 eV
Max COSX asymmetry :            0.00000020 Eh               0.00001 eV

Virial components:
Potential Energy   :         -448.44396891 Eh          -12202.78077 eV
Kinetic Energy     :          149.95925770 Eh            4080.59886 eV
Virial Ratio       :            2.99043871


DFT components:
N(Alpha)           :       18.000000745666 electrons
N(Beta)            :       18.000000745666 electrons
N(Total)           :       36.000001491331 electrons
E(X)               :      -15.278208381199 Eh       
E(C)               :       -1.779779693381 Eh       
E(XC)              :      -17.057988074580 Eh       
DFET-embed. en.    :        0.000000000000 Eh       

---------------
SCF CONVERGENCE
---------------

  Last Energy change         ...    3.8085e-10  Tolerance :   1.0000e-08
  Last MAX-Density change    ...    2.8866e-15  Tolerance :   1.0000e-07
  Last RMS-Density change    ...    1.1925e-16  Tolerance :   5.0000e-09
  Last Orbital Gradient      ...    2.1072e-06  Tolerance :   1.0000e-05
  Last Orbital Rotation      ...    3.0566e-06  Tolerance :   1.0000e-05

             **** THE GBW FILE WAS UPDATED (pbeh-3c.gbw) ****
             **** DENSITY pbeh-3c.scfp WAS UPDATED ****
             **** ENERGY FILE WAS UPDATED (pbeh-3c.en.tmp) ****
             **** THE GBW FILE WAS UPDATED (pbeh-3c.gbw) ****
             **** DENSITY pbeh-3c.scfp WAS UPDATED ****
----------------
ORBITAL ENERGIES
----------------

  NO   OCC          E(Eh)            E(eV) 
   0   2.0000     -14.618577      -397.7917 
   1   2.0000      -5.910818      -160.8415 
   2   2.0000      -4.097243      -111.4917 
   3   2.0000      -4.097161      -111.4894 
   4   2.0000      -4.092091      -111.3515 
   5   2.0000      -1.370027       -37.2803 
   6   2.0000      -1.369920       -37.2774 
   7   2.0000      -1.364988       -37.1432 
   8   2.0000      -1.364560       -37.1316 
   9   2.0000      -1.361351       -37.0442 
  10   2.0000      -0.956292       -26.0220 
  11   2.0000      -0.623551       -16.9677 
  12   2.0000      -0.531456       -14.4616 
  13   2.0000      -0.531421       -14.4607 
  14   2.0000      -0.372230       -10.1289 
  15   2.0000      -0.369495       -10.0545 
  16   2.0000      -0.323596        -8.8055 
  17   2.0000      -0.274728        -7.4757 
  18   0.0000       0.051215         1.3936 
  19   0.0000       0.069611         1.8942 
  20   0.0000       0.121687         3.3113 
  21   0.0000       0.161951         4.4069 
  22   0.0000       0.211622         5.7585 
  23   0.0000       0.211794         5.7632 
  24   0.0000       0.300189         8.1686 
  25   0.0000       0.320893         8.7319 
  26   0.0000       0.335530         9.1302 
  27   0.0000       0.361403         9.8343 
  28   0.0000       0.388591        10.5741 
  29   0.0000       0.391786        10.6610 
  30   0.0000       0.425860        11.5883 
  31   0.0000       0.593335        16.1455 
  32   0.0000       0.597595        16.2614 
  33   0.0000       0.757928        20.6243 
  34   0.0000       0.760022        20.6813 
  35   0.0000       0.914773        24.8923 
  36   0.0000       1.030720        28.0473 
  37   0.0000       1.034750        28.1570 
  38   0.0000       1.047140        28.4941 
  39   0.0000       1.110008        30.2048 
  40   0.0000       1.114307        30.3218 
  41   0.0000       1.134557        30.8729 
  42   0.0000       1.460671        39.7469 
  43   0.0000       1.716846        46.7178 
  44   0.0000       1.716880        46.7187 
  45   0.0000       2.032155        55.2977 
  46   0.0000       2.493717        67.8575 
  47   0.0000       2.494498        67.8787 
  48   0.0000      18.289976       497.6956 
  49   0.0000      18.311445       498.2798 
  50   0.0000      18.396533       500.5951 
  51   0.0000      18.995956       516.9062 
  52   0.0000      54.482818      1482.5528 

                    ********************************
                    * MULLIKEN POPULATION ANALYSIS *
                    ********************************

-----------------------
MULLIKEN ATOMIC CHARGES
-----------------------
   0 Sb:   -0.024221
   1 H :   -0.003459
   2 H :   -0.023477
   3 H :   -0.003459
   4 N :   -0.936195
   5 H :    0.329806
   6 H :    0.331200
   7 H :    0.329806
Sum of atomic charges:    0.0000000

--------------------------------
MULLIKEN REDUCED ORBITAL CHARGES
--------------------------------
  0 Sbs       :     3.777644  s :     3.777644
      pz      :     2.879420  p :     9.091965
      px      :     3.336192
      py      :     2.876354
      dz2     :     2.022264  d :    10.154611
      dxz     :     2.057963
      dyz     :     2.009536
      dx2y2   :     2.031138
      dxy     :     2.033710
  1 H s       :     1.003459  s :     1.003459
  2 H s       :     1.023477  s :     1.023477
  3 H s       :     1.003459  s :     1.003459
  4 N s       :     3.668219  s :     3.668219
      pz      :     1.228905  p :     4.235800
      px      :     1.232938
      py      :     1.773957
      dz2     :     0.004370  d :     0.032175
      dxz     :     0.006709
      dyz     :     0.008675
      dx2y2   :     0.001361
      dxy     :     0.011061
  5 H s       :     0.670194  s :     0.670194
  6 H s       :     0.668800  s :     0.668800
  7 H s       :     0.670194  s :     0.670194


                     *******************************
                     * LOEWDIN POPULATION ANALYSIS *
                     *******************************

----------------------
LOEWDIN ATOMIC CHARGES
----------------------
   0 Sb:   -0.037409
   1 H :   -0.001265
   2 H :   -0.022702
   3 H :   -0.001265
   4 N :   -0.611976
   5 H :    0.224759
   6 H :    0.225101
   7 H :    0.224759

-------------------------------
LOEWDIN REDUCED ORBITAL CHARGES
-------------------------------
  0 Sbs       :     3.639076  s :     3.639076
      pz      :     2.908875  p :     9.201679
      px      :     3.381121
      py      :     2.911683
      dz2     :     2.029956  d :    10.196653
      dxz     :     2.070267
      dyz     :     2.013126
      dx2y2   :     2.041690
      dxy     :     2.041614
  1 H s       :     1.001265  s :     1.001265
  2 H s       :     1.022702  s :     1.022702
  3 H s       :     1.001265  s :     1.001265
  4 N s       :     3.307816  s :     3.307816
      pz      :     1.242200  p :     4.257947
      px      :     1.245907
      py      :     1.769840
      dz2     :     0.007936  d :     0.046213
      dxz     :     0.011837
      dyz     :     0.010384
      dx2y2   :     0.002264
      dxy     :     0.013792
  5 H s       :     0.775241  s :     0.775241
  6 H s       :     0.774899  s :     0.774899
  7 H s       :     0.775241  s :     0.775241


                      *****************************
                      * MAYER POPULATION ANALYSIS *
                      *****************************

  NA   - Mulliken gross atomic population
  ZA   - Total nuclear charge
  QA   - Mulliken gross atomic charge
  VA   - Mayer's total valence
  BVA  - Mayer's bonded valence
  FA   - Mayer's free valence

  ATOM       NA         ZA         QA         VA         BVA        FA
  0 Sb    23.0242    23.0000    -0.0242     3.0183     3.0183    -0.0000
  1 H      1.0035     1.0000    -0.0035     0.9849     0.9849    -0.0000
  2 H      1.0235     1.0000    -0.0235     0.9807     0.9807     0.0000
  3 H      1.0035     1.0000    -0.0035     0.9849     0.9849     0.0000
  4 N      7.9362     7.0000    -0.9362     2.7096     2.7096     0.0000
  5 H      0.6702     1.0000     0.3298     0.8592     0.8592     0.0000
  6 H      0.6688     1.0000     0.3312     0.8587     0.8587     0.0000
  7 H      0.6702     1.0000     0.3298     0.8592     0.8592    -0.0000

  Mayer bond orders larger than 0.100000
B(  0-Sb,  1-H ) :   0.9821 B(  0-Sb,  2-H ) :   0.9666 B(  0-Sb,  3-H ) :   0.9821 
B(  4-N ,  5-H ) :   0.8694 B(  4-N ,  6-H ) :   0.8691 B(  4-N ,  7-H ) :   0.8694 


-------
TIMINGS
-------

Total SCF time: 0 days 0 hours 1 min 4 sec 

Total time                  ....      64.923 sec
Sum of individual times     ....      56.201 sec  ( 86.6%)

Fock matrix formation       ....      47.890 sec  ( 73.8%)
  Split-RI-J                ....       5.480 sec  ( 11.4% of F)
  Chain of spheres X        ....       7.799 sec  ( 16.3% of F)
  XC integration            ....      18.250 sec  ( 38.1% of F)
    Basis function eval.    ....       0.975 sec  (  5.3% of XC)
    Density eval.           ....       0.742 sec  (  4.1% of XC)
    XC-Functional eval.     ....       1.165 sec  (  6.4% of XC)
    XC-Potential eval.      ....       0.203 sec  (  1.1% of XC)
Diagonalization             ....       0.704 sec  (  1.1%)
Density matrix formation    ....       0.143 sec  (  0.2%)
Population analysis         ....       0.723 sec  (  1.1%)
Initial guess               ....       0.013 sec  (  0.0%)
Orbital Transformation      ....       0.000 sec  (  0.0%)
Orbital Orthonormalization  ....       0.000 sec  (  0.0%)
DIIS solution               ....       1.161 sec  (  1.8%)
SOSCF solution              ....       0.819 sec  (  1.3%)
Grid generation             ....       4.748 sec  (  7.3%)

Maximum memory used throughout the entire SCF-calculation: 46.5 MB


-------------------------------------------------------------------------------
                          DFT DISPERSION CORRECTION                            
                                                                               
                              DFTD3 V3.1  Rev 1                                
                          USING Becke-Johnson damping                          
-------------------------------------------------------------------------------
The PBEh-3c composite method is recognized
Using three-body term ABC
Active option DFTDOPT                   ...         4   

molecular C6(AA) [au] = 1208.941138 


            DFT-D V3
 parameters
 s6 scaling factor         :     1.0000 
 a1 scaling factor         :     0.4860 
 s8 scaling factor         :     0.0000 
 a2 scaling factor         :     4.5000 
 Damping factor alpha9(ATM):    16.0000 
 ad hoc parameters k1-k3   :    16.0000     1.3333    -4.0000 

 Edisp/kcal,au: -1.330425038635  -0.002120167028 
 E6   /kcal   :  -1.331599924 
 E8   /kcal   :  -0.000000000 
 E6(ABC)      :   0.001174885 
 % E8         :   0.000000000 
 % E6(ABC)    :  -0.088308987 

-------------------------   ----------------
Dispersion correction           -0.002120167
-------------------------   ----------------

 ** NOTE ** -> element sb will be treated as as
NOTIFICATION: Different basis set in ORCA and otool_gcp:
ORCA: 53  gCP: 59 
If you are NOT using ECPs, check your basis set inputs!
------------------   -----------------
gCP correction             0.010795967
------------------   -----------------

-------------------------   --------------------
FINAL SINGLE POINT ENERGY      -298.476035403459
-------------------------   --------------------


                            ***************************************
                            *     ORCA property calculations      *
                            ***************************************

                                    ---------------------
                                    Active property flags
                                    ---------------------
   (+) Dipole Moment


------------------------------------------------------------------------------
                       ORCA ELECTRIC PROPERTIES CALCULATION
------------------------------------------------------------------------------

Dipole Moment Calculation                       ... on
Quadrupole Moment Calculation                   ... off
Polarizability Calculation                      ... off
GBWName                                         ... pbeh-3c.gbw
Electron density                                ... pbeh-3c.scfp
The origin for moment calculation is the CENTER OF MASS  = ( 0.643508, -2.451109  0.000000)

-------------
DIPOLE MOMENT
-------------
                                X             Y             Z
Electronic contribution:      4.04930     -34.23549       0.00000
Nuclear contribution   :     -4.06165      35.45896       0.00000
                        -----------------------------------------
Total Dipole Moment    :     -0.01235       1.22347       0.00000
                        -----------------------------------------
Magnitude (a.u.)       :      1.22353
Magnitude (Debye)      :      3.10997



--------------------
Rotational spectrum 
--------------------
 
Rotational constants in cm-1:     2.042753     0.099061     0.098869 
Rotational constants in MHz : 61240.203363  2969.760914  2964.006127 

 Dipole components along the rotational axes: 
x,y,z [a.u.] :    -1.223377     0.000000     0.019371 
x,y,z [Debye]:    -3.109577     0.000000     0.049236 

 

Timings for individual modules:

Sum of individual times         ...       68.375 sec (=   1.140 min)
GTO integral calculation        ...        2.560 sec (=   0.043 min)   3.7 %
SCF iterations                  ...       65.816 sec (=   1.097 min)  96.3 %
                             ****ORCA TERMINATED NORMALLY****
TOTAL RUN TIME: 0 days 0 hours 1 minutes 17 seconds 463 msec
