
                                 *****************
                                 * O   R   C   A *
                                 *****************

                                            #,                                       
                                            ###                                      
                                            ####                                     
                                            #####                                    
                                            ######                                   
                                           ########,                                 
                                     ,,################,,,,,                         
                               ,,#################################,,                 
                          ,,##########################################,,             
                       ,#########################################, ''#####,          
                    ,#############################################,,   '####,        
                  ,##################################################,,,,####,       
                ,###########''''           ''''###############################       
              ,#####''   ,,,,##########,,,,          '''####'''          '####       
            ,##' ,,,,###########################,,,                        '##       
           ' ,,###''''                  '''############,,,                           
         ,,##''                                '''############,,,,        ,,,,,,###''
      ,#''                                            '''#######################'''  
     '                                                          ''''####''''         
             ,#######,   #######,   ,#######,      ##                                
            ,#'     '#,  ##    ##  ,#'     '#,    #''#        ######   ,####,        
            ##       ##  ##   ,#'  ##            #'  '#       #        #'  '#        
            ##       ##  #######   ##           ,######,      #####,   #    #        
            '#,     ,#'  ##    ##  '#,     ,#' ,#      #,         ##   #,  ,#        
             '#######'   ##     ##  '#######'  #'      '#     #####' # '####'        



                  #######################################################
                  #                        -***-                        #
                  #          Department of theory and spectroscopy      #
                  #    Directorship and core code : Frank Neese         #
                  #        Max Planck Institute fuer Kohlenforschung    #
                  #                Kaiser Wilhelm Platz 1               #
                  #                 D-45470 Muelheim/Ruhr               #
                  #                      Germany                        #
                  #                                                     #
                  #                  All rights reserved                #
                  #                        -***-                        #
                  #######################################################


                         Program Version 5.0.3 -  RELEASE  -


 With contributions from (in alphabetic order):
   Daniel Aravena         : Magnetic Suceptibility
   Michael Atanasov       : Ab Initio Ligand Field Theory (pilot matlab implementation)
   Alexander A. Auer      : GIAO ZORA, VPT2 properties, NMR spectrum
   Ute Becker             : Parallelization
   Giovanni Bistoni       : ED, misc. LED, open-shell LED, HFLD
   Martin Brehm           : Molecular dynamics
   Dmytro Bykov           : SCF Hessian
   Vijay G. Chilkuri      : MRCI spin determinant printing, contributions to CSF-ICE
   Dipayan Datta          : RHF DLPNO-CCSD density
   Achintya Kumar Dutta   : EOM-CC, STEOM-CC
   Dmitry Ganyushin       : Spin-Orbit,Spin-Spin,Magnetic field MRCI
   Miquel Garcia          : C-PCM and meta-GGA Hessian, CC/C-PCM, Gaussian charge scheme
   Yang Guo               : DLPNO-NEVPT2, F12-NEVPT2, CIM, IAO-localization
   Andreas Hansen         : Spin unrestricted coupled pair/coupled cluster methods
   Benjamin Helmich-Paris : MC-RPA, TRAH-SCF, COSX integrals
   Lee Huntington         : MR-EOM, pCC
   Robert Izsak           : Overlap fitted RIJCOSX, COSX-SCS-MP3, EOM
   Marcus Kettner         : VPT2
   Christian Kollmar      : KDIIS, OOCD, Brueckner-CCSD(T), CCSD density, CASPT2, CASPT2-K
   Simone Kossmann        : Meta GGA functionals, TD-DFT gradient, OOMP2, MP2 Hessian
   Martin Krupicka        : Initial AUTO-CI
   Lucas Lang             : DCDCAS
   Marvin Lechner         : AUTO-CI (C++ implementation), FIC-MRCC
   Dagmar Lenk            : GEPOL surface, SMD
   Dimitrios Liakos       : Extrapolation schemes; Compound Job, initial MDCI parallelization
   Dimitrios Manganas     : Further ROCIS development; embedding schemes
   Dimitrios Pantazis     : SARC Basis sets
   Anastasios Papadopoulos: AUTO-CI, single reference methods and gradients
   Taras Petrenko         : DFT Hessian,TD-DFT gradient, ASA, ECA, R-Raman, ABS, FL, XAS/XES, NRVS
   Peter Pinski           : DLPNO-MP2, DLPNO-MP2 Gradient
   Christoph Reimann      : Effective Core Potentials
   Marius Retegan         : Local ZFS, SOC
   Christoph Riplinger    : Optimizer, TS searches, QM/MM, DLPNO-CCSD(T), (RO)-DLPNO pert. Triples
   Tobias Risthaus        : Range-separated hybrids, TD-DFT gradient, RPA, STAB
   Michael Roemelt        : Original ROCIS implementation
   Masaaki Saitow         : Open-shell DLPNO-CCSD energy and density
   Barbara Sandhoefer     : DKH picture change effects
   Avijit Sen             : IP-ROCIS
   Kantharuban Sivalingam : CASSCF convergence, NEVPT2, FIC-MRCI
   Bernardo de Souza      : ESD, SOC TD-DFT
   Georgi Stoychev        : AutoAux, RI-MP2 NMR, DLPNO-MP2 response
   Willem Van den Heuvel  : Paramagnetic NMR
   Boris Wezisla          : Elementary symmetry handling
   Frank Wennmohs         : Technical directorship


 We gratefully acknowledge several colleagues who have allowed us to
 interface, adapt or use parts of their codes:
   Stefan Grimme, W. Hujo, H. Kruse, P. Pracht,  : VdW corrections, initial TS optimization,
                  C. Bannwarth, S. Ehlert          DFT functionals, gCP, sTDA/sTD-DF
   Ed Valeev, F. Pavosevic, A. Kumar             : LibInt (2-el integral package), F12 methods
   Garnet Chan, S. Sharma, J. Yang, R. Olivares  : DMRG
   Ulf Ekstrom                                   : XCFun DFT Library
   Mihaly Kallay                                 : mrcc  (arbitrary order and MRCC methods)
   Jiri Pittner, Ondrej Demel                    : Mk-CCSD
   Frank Weinhold                                : gennbo (NPA and NBO analysis)
   Christopher J. Cramer and Donald G. Truhlar   : smd solvation model
   Lars Goerigk                                  : TD-DFT with DH, B97 family of functionals
   V. Asgeirsson, H. Jonsson                     : NEB implementation
   FAccTs GmbH                                   : IRC, NEB, NEB-TS, DLPNO-Multilevel, CI-OPT
                                                   MM, QMMM, 2- and 3-layer-ONIOM, Crystal-QMMM,
                                                   LR-CPCM, SF, NACMEs, symmetry and pop. for TD-DFT,
                                                   nearIR, NL-DFT gradient (VV10), updates on ESD,
                                                   ML-optimized integration grids
   S Lehtola, MJT Oliveira, MAL Marques          : LibXC Library
   Liviu Ungur et al                             : ANISO software


 Your calculation uses the libint2 library for the computation of 2-el integrals
 For citations please refer to: http://libint.valeyev.net

 Your ORCA version has been built with support for libXC version: 5.1.0
 For citations please refer to: https://tddft.org/programs/libxc/

 This ORCA versions uses:
   CBLAS   interface :  Fast vector & matrix operations
   LAPACKE interface :  Fast linear algebra routines
   SCALAPACK package :  Parallel linear algebra routines
   Shared memory     :  Shared parallel matrices
   BLAS/LAPACK       :  OpenBLAS 0.3.15  USE64BITINT DYNAMIC_ARCH NO_AFFINITY Haswell SINGLE_THREADED
        Core in use  :  Haswell
   Copyright (c) 2011-2014, The OpenBLAS Project




***************************************
The coordinates will be read from file: P20.xyz
***************************************


Your calculation utilizes the geometrical counterpoise correction gCP
Please cite in your paper:
H.Kruse, S. Grimme J.Chem.Phys., 136, (2012), 154101 
   

Your calculation utilizes the atom-pairwise dispersion correction
with the Becke-Johnson damping scheme (D3BJ)
Cite in your paper:
S.Grimme, S.Ehrlich, L.Goerigk, J Comput Chem, (2011), 32, 1456–1465 
S.Grimme, J.Antony, S.Ehrlich and H.Krieg, J.Chem.Phys., 132, (2010), 154104 
   

Your calculation employs the composite approach PBEh-3c.
Please cite in your paper:
S. Grimme, J. G. Brandenburg, C. Bannwarth, A. Hansen J.Chem.Phys., 143, (2015), 054107 
   

================================================================================

----- Orbital basis set information -----
Your calculation utilizes the basis: def2-mSVP

----- AuxJ basis set information -----
Your calculation utilizes the auxiliary basis: def2/J
   F. Weigend, Phys. Chem. Chem. Phys. 8, 1057 (2006).

================================================================================
                                        WARNINGS
                       Please study these warnings very carefully!
================================================================================


INFO   : the flag for use of the SHARK integral package has been found!

================================================================================
                                       INPUT FILE
================================================================================
NAME = pbeh-3c.inp
|  1> ! PBEh-3c def2/J TightSCF DefGrid3
|  2> 
|  3> %maxcore 60000
|  4> 
|  5> %pal
|  6> nprocs 4
|  7> end
|  8> 
|  9> *xyzfile 0 1 P20.xyz
| 10> 
| 11>                          ****END OF INPUT****
================================================================================

                       ****************************
                       * Single Point Calculation *
                       ****************************

---------------------------------
CARTESIAN COORDINATES (ANGSTROEM)
---------------------------------
  C     -0.389334    0.345849    0.000000
  C      0.270631    1.546002    0.642437
  C      0.270631    1.546002   -0.642437
  C      0.270631   -0.975810    0.000000
  C     -0.368279   -2.141046    0.000000
  H     -1.477322    0.294937    0.000000
  H      0.540308    2.004320    1.576127
  H      0.540308    2.004320   -1.576127
  H      1.357028   -0.957393    0.000000
  H     -1.450608   -2.190688    0.000000
  H      0.164600   -3.081473    0.000000

----------------------------
CARTESIAN COORDINATES (A.U.)
----------------------------
  NO LB      ZA    FRAG     MASS         X           Y           Z
   0 C     6.0000    0    12.011   -0.735735    0.653560    0.000000
   1 C     6.0000    0    12.011    0.511418    2.921520    1.214030
   2 C     6.0000    0    12.011    0.511418    2.921520   -1.214030
   3 C     6.0000    0    12.011    0.511418   -1.844013    0.000000
   4 C     6.0000    0    12.011   -0.695946   -4.045990    0.000000
   5 H     1.0000    0     1.008   -2.791734    0.557350    0.000000
   6 H     1.0000    0     1.008    1.021034    3.787616    2.978448
   7 H     1.0000    0     1.008    1.021034    3.787616   -2.978448
   8 H     1.0000    0     1.008    2.564411   -1.809210    0.000000
   9 H     1.0000    0     1.008   -2.741252   -4.139800    0.000000
  10 H     1.0000    0     1.008    0.311049   -5.823140    0.000000

--------------------------------
INTERNAL COORDINATES (ANGSTROEM)
--------------------------------
 C      0   0   0     0.000000000000     0.00000000     0.00000000
 C      1   0   0     1.512827182322     0.00000000     0.00000000
 C      2   1   0     1.284874000000    64.87086358     0.00000000
 C      1   2   3     1.477273180280   120.98808102   106.36190631
 C      4   1   2     1.328902062136   124.72855639   150.30647610
 H      1   2   3     1.089178452913   118.21956794   255.42121065
 H      2   1   3     1.074503561099   144.77345573   181.42968690
 H      3   2   1     1.074503561099   150.33685435   181.66637672
 H      4   1   2     1.086552994666   115.56385712   330.30647610
 H      5   4   1     1.083466739655   121.36246300     0.00000000
 H      5   4   1     1.080908400823   121.72620397   180.00000000

---------------------------
INTERNAL COORDINATES (A.U.)
---------------------------
 C      0   0   0     0.000000000000     0.00000000     0.00000000
 C      1   0   0     2.858829062540     0.00000000     0.00000000
 C      2   1   0     2.428059976596    64.87086358     0.00000000
 C      1   2   3     2.791641735716   120.98808102   106.36190631
 C      4   1   2     2.511260956240   124.72855639   150.30647610
 H      1   2   3     2.058248986974   118.21956794   255.42121065
 H      2   1   3     2.030517460401   144.77345573   181.42968690
 H      3   2   1     2.030517460401   150.33685435   181.66637672
 H      4   1   2     2.053287589912   115.56385712   330.30647610
 H      5   4   1     2.047455413161   121.36246300     0.00000000
 H      5   4   1     2.042620853410   121.72620397   180.00000000

---------------------
BASIS SET INFORMATION
---------------------
There are 2 groups of distinct atoms

 Group   1 Type C   : 8s4p1d contracted to 4s2p1d pattern {5111/31/1}
 Group   2 Type H   : 4s contracted to 2s pattern {31}

Atom   0C    basis set group =>   1
Atom   1C    basis set group =>   1
Atom   2C    basis set group =>   1
Atom   3C    basis set group =>   1
Atom   4C    basis set group =>   1
Atom   5H    basis set group =>   2
Atom   6H    basis set group =>   2
Atom   7H    basis set group =>   2
Atom   8H    basis set group =>   2
Atom   9H    basis set group =>   2
Atom  10H    basis set group =>   2
---------------------------------
AUXILIARY/J BASIS SET INFORMATION
---------------------------------
There are 2 groups of distinct atoms

 Group   1 Type C   : 12s5p4d2f1g contracted to 6s4p3d1f1g pattern {711111/2111/211/2/1}
 Group   2 Type H   : 5s2p1d contracted to 3s1p1d pattern {311/2/1}

Atom   0C    basis set group =>   1
Atom   1C    basis set group =>   1
Atom   2C    basis set group =>   1
Atom   3C    basis set group =>   1
Atom   4C    basis set group =>   1
Atom   5H    basis set group =>   2
Atom   6H    basis set group =>   2
Atom   7H    basis set group =>   2
Atom   8H    basis set group =>   2
Atom   9H    basis set group =>   2
Atom  10H    basis set group =>   2


           ************************************************************
           *        Program running with 4 parallel MPI-processes     *
           *              working on a common directory               *
           ************************************************************
------------------------------------------------------------------------------
                           ORCA GTO INTEGRAL CALCULATION
                           -- RI-GTO INTEGRALS CHOSEN --
------------------------------------------------------------------------------
------------------------------------------------------------------------------
                   ___                                                        
                  /   \      - P O W E R E D   B Y -                         
                 /     \                                                     
                 |  |  |   _    _      __       _____    __    __             
                 |  |  |  | |  | |    /  \     |  _  \  |  |  /  |          
                  \  \/   | |  | |   /    \    | | | |  |  | /  /          
                 / \  \   | |__| |  /  /\  \   | |_| |  |  |/  /          
                |  |  |   |  __  | /  /__\  \  |    /   |      \           
                |  |  |   | |  | | |   __   |  |    \   |  |\   \          
                \     /   | |  | | |  |  |  |  | |\  \  |  | \   \       
                 \___/    |_|  |_| |__|  |__|  |_| \__\ |__|  \__/        
                                                                              
                      - O R C A' S   B I G   F R I E N D -                    
                                      &                                       
                       - I N T E G R A L  F E E D E R -                       
                                                                              
 v1 FN, 2020, v2 2021                                                         
------------------------------------------------------------------------------


Reading SHARK input file pbeh-3c.SHARKINP.tmp ... ok
----------------------
SHARK INTEGRAL PACKAGE
----------------------

Number of atoms                             ...     11
Number of basis functions                   ...     87
Number of shells                            ...     47
Maximum angular momentum                    ...      2
Integral batch strategy                     ... SHARK/LIBINT Hybrid
RI-J (if used) integral strategy            ... SPLIT-RIJ (Revised 2003 algorithm where possible)
Printlevel                                  ...      1
Contraction scheme used                     ... SEGMENTED contraction
Coulomb Range Separation                    ... NOT USED
Exchange Range Separation                   ... NOT USED
Finite Nucleus Model                        ... NOT USED
Auxiliary Coulomb fitting basis             ... AVAILABLE
   # of basis functions in Aux-J            ...    311
   # of shells in Aux-J                     ...    105
   Maximum angular momentum in Aux-J        ...      4
Auxiliary J/K fitting basis                 ... NOT available
Auxiliary Correlation fitting basis         ... NOT available
Auxiliary 'external' fitting basis          ... NOT available
Integral threshold                          ...     2.500000e-11
Primitive cut-off                           ...     2.500000e-12
Primitive pair pre-selection threshold      ...     2.500000e-12

Calculating pre-screening integrals         ... done (  0.0 sec) Dimension = 47
Organizing shell pair data                  ... done (  0.0 sec)
Shell pair information
Total number of shell pairs                 ...      1128
Shell pairs after pre-screening             ...      1074
Total number of primitive shell pairs       ...      4088
Primitive shell pairs kept                  ...      2982
          la=0 lb=0:    482 shell pairs
          la=1 lb=0:    320 shell pairs
          la=1 lb=1:     55 shell pairs
          la=2 lb=0:    152 shell pairs
          la=2 lb=1:     50 shell pairs
          la=2 lb=2:     15 shell pairs

Calculating one electron integrals          ... done (  0.0 sec)
Calculating RI/J V-Matrix + Cholesky decomp.... done (  0.2 sec)
Calculating Nuclear repulsion               ... done (  0.0 sec) ENN=    146.954210889292 Eh

SHARK setup successfully completed in   0.9 seconds

Maximum memory used throughout the entire GTOINT-calculation: 9.8 MB


           ************************************************************
           *        Program running with 4 parallel MPI-processes     *
           *              working on a common directory               *
           ************************************************************
-------------------------------------------------------------------------------
                                 ORCA SCF
-------------------------------------------------------------------------------

------------
SCF SETTINGS
------------
Hamiltonian:
 Density Functional     Method          .... DFT(GTOs)
 Exchange Functional    Exchange        .... PBE
   PBE kappa parameter   XKappa         ....  1.024500
   PBE mue parameter    XMuePBE         ....  0.123457
 Correlation Functional Correlation     .... PBE
   PBE beta parameter  CBetaPBE         ....  0.030000
 LDA part of GGA corr.  LDAOpt          .... PW91-LDA
 Gradients option       PostSCFGGA      .... off
 Hybrid DFT is turned on
   Fraction HF Exchange ScalHFX         ....  0.420000
   Scaling of DF-GGA-X  ScalDFX         ....  0.580000
   Scaling of DF-GGA-C  ScalDFC         ....  1.000000
   Scaling of DF-LDA-C  ScalLDAC        ....  1.000000
   Perturbative correction              ....  0.000000
   Density functional embedding theory  .... OFF
 RI-approximation to the Coulomb term is turned on
   Number of AuxJ basis functions       .... 311
   RIJ-ON(X) (HFX calculated with O(N)) .... on
   Number of AuxJ basis functions       .... 311
   RIJ-COSX (HFX calculated with COS-X)).... on


General Settings:
 Integral files         IntName         .... pbeh-3c
 Hartree-Fock type      HFTyp           .... RHF
 Total Charge           Charge          ....    0
 Multiplicity           Mult            ....    1
 Number of Electrons    NEL             ....   36
 Basis Dimension        Dim             ....   87
 Nuclear Repulsion      ENuc            ....    146.9542108893 Eh

Convergence Acceleration:
 DIIS                   CNVDIIS         .... on
   Start iteration      DIISMaxIt       ....    12
   Startup error        DIISStart       ....  0.200000
   # of expansion vecs  DIISMaxEq       ....     5
   Bias factor          DIISBfac        ....   1.050
   Max. coefficient     DIISMaxC        ....  10.000
 Trust-Rad. Augm. Hess. CNVTRAH         .... auto
   Auto Start mean grad. ratio tolernc. ....  1.125000
   Auto Start start iteration           ....    20
   Auto Start num. interpolation iter.  ....    10
   Max. Number of Micro iterations      ....    16
   Max. Number of Macro iterations      .... Maxiter - #DIIS iter
   Number of Davidson start vectors     ....     2
   Converg. threshold I  (grad. norm)   ....   1.000e-05
   Converg. threshold II (energy diff.) ....   1.000e-08
   Grad. Scal. Fac. for Micro threshold ....   0.100
   Minimum threshold for Micro iter.    ....   0.010
   NR start threshold (gradient norm)   ....   0.001
   Initial trust radius                 ....   0.400
   Minimum AH scaling param. (alpha)    ....   1.000
   Maximum AH scaling param. (alpha)    .... 1000.000
   Orbital update algorithm             .... Taylor
   White noise on init. David. guess    .... on
   Maximum white noise                  ....   0.010
   Quad. conv. algorithm                .... NR
   COSX micro iterations for RIJONX calc.... off
 SOSCF                  CNVSOSCF        .... on
   Start iteration      SOSCFMaxIt      ....   150
   Startup grad/error   SOSCFStart      ....  0.003300
 Level Shifting         CNVShift        .... on
   Level shift para.    LevelShift      ....    0.2500
   Turn off err/grad.   ShiftErr        ....    0.0010
 Zerner damping         CNVZerner       .... off
 Static damping         CNVDamp         .... on
   Fraction old density DampFac         ....    0.7000
   Max. Damping (<1)    DampMax         ....    0.9800
   Min. Damping (>=0)   DampMin         ....    0.0000
   Turn off err/grad.   DampErr         ....    0.1000
 Fernandez-Rico         CNVRico         .... off

SCF Procedure:
 Maximum # iterations   MaxIter         ....   125
 SCF integral mode      SCFMode         .... Direct
   Integral package                     .... SHARK and LIBINT hybrid scheme
 Reset frequency        DirectResetFreq ....    20
 Integral Threshold     Thresh          ....  2.500e-11 Eh
 Primitive CutOff       TCut            ....  2.500e-12 Eh

Convergence Tolerance:
 Convergence Check Mode ConvCheckMode   .... Total+1el-Energy
 Convergence forced     ConvForced      .... 0
 Energy Change          TolE            ....  1.000e-08 Eh
 1-El. energy change                    ....  1.000e-05 Eh
 Orbital Gradient       TolG            ....  1.000e-05
 Orbital Rotation angle TolX            ....  1.000e-05
 DIIS Error             TolErr          ....  5.000e-07


Diagonalization of the overlap matrix:
Smallest eigenvalue                        ... 2.613e-03
Time for diagonalization                   ...    0.002 sec
Threshold for overlap eigenvalues          ... 1.000e-08
Number of eigenvalues below threshold      ... 0
Time for construction of square roots      ...    0.013 sec
Total time needed                          ...    0.053 sec

--------------------------------
INITIAL GUESS: MINIMAL BASIS EHT
--------------------------------
The minimal basis has 31 functions
EHT matrix was diagonalized
Basis set overlap was calculated now projecting the orbitals
Using GuessMode=FMatrix for the initial guess
C*T matrix was formed
Effective Fockian was calculated
Effective Fockian was diagonalized
Initial density was built
                      ------------------
                      INITIAL GUESS DONE
                      ------------------
-------------------
DFT GRID GENERATION
-------------------

General Integration Accuracy     IntAcc      ... 4.959
Radial Grid Type                 RadialGrid  ... OptM3 with GC (2021)
Angular Grid (max. ang.)         AngularGrid ... 6 (Lebedev-590)
Angular grid pruning method      GridPruning ... 4 (adaptive)
Weight generation scheme         WeightScheme... Becke
Basis function cutoff            BFCut       ... 1.0000e-11
Integration weight cutoff        WCut        ... 1.0000e-14
Angular grids for H and He will be reduced by one unit
Partially contracted basis set               ... off
Rotationally invariant grid construction     ... off

Total number of grid points                  ...   124922
Total number of batches                      ...     1958
Average number of points per batch           ...       63
Average number of grid points per atom       ...    11357
Time for grid setup =    1.977 sec

--------------------
COSX GRID GENERATION
--------------------

GRIDX 1
-------
General Integration Accuracy     IntAcc      ... 4.020
Radial Grid Type                 RadialGrid  ... OptM3 with GC (2021)
Angular Grid (max. ang.)         AngularGrid ... 2 (Lebedev-110)
Angular grid pruning method      GridPruning ... 4 (adaptive)
Weight generation scheme         WeightScheme... Becke
Basis function cutoff            BFCut       ... 1.0000e-11
Integration weight cutoff        WCut        ... 1.0000e-14
Angular grids for H and He will be reduced by one unit
Partially contracted basis set               ... on
Rotationally invariant grid construction     ... off

Total number of grid points                  ...    13779
Total number of batches                      ...      221
Average number of points per batch           ...       62
Average number of grid points per atom       ...     1253
UseSFitting                                  ... on

GRIDX 2
-------
General Integration Accuracy     IntAcc      ... 4.338
Radial Grid Type                 RadialGrid  ... OptM3 with GC (2021)
Angular Grid (max. ang.)         AngularGrid ... 3 (Lebedev-194)
Angular grid pruning method      GridPruning ... 4 (adaptive)
Weight generation scheme         WeightScheme... Becke
Basis function cutoff            BFCut       ... 1.0000e-11
Integration weight cutoff        WCut        ... 1.0000e-14
Angular grids for H and He will be reduced by one unit
Partially contracted basis set               ... on
Rotationally invariant grid construction     ... off

Total number of grid points                  ...    30348
Total number of batches                      ...      479
Average number of points per batch           ...       63
Average number of grid points per atom       ...     2759
UseSFitting                                  ... on

GRIDX 3
-------
General Integration Accuracy     IntAcc      ... 4.871
Radial Grid Type                 RadialGrid  ... OptM3 with GC (2021)
Angular Grid (max. ang.)         AngularGrid ... 4 (Lebedev-302)
Angular grid pruning method      GridPruning ... 4 (adaptive)
Weight generation scheme         WeightScheme... Becke
Basis function cutoff            BFCut       ... 1.0000e-11
Integration weight cutoff        WCut        ... 1.0000e-14
Angular grids for H and He will be reduced by one unit
Partially contracted basis set               ... on
Rotationally invariant grid construction     ... off

Total number of grid points                  ...    58915
Total number of batches                      ...      925
Average number of points per batch           ...       63
Average number of grid points per atom       ...     5356
UseSFitting                                  ... on

Time for X-Grid setup             =    2.037 sec

--------------
SCF ITERATIONS
--------------
ITER       Energy         Delta-E        Max-DP      RMS-DP      [F,P]     Damp
               ***  Starting incremental Fock matrix formation  ***
  0   -193.0424874666   0.000000000000 0.09091757  0.00466905  0.4100058 0.7000
  1   -193.1992683677  -0.156780901124 0.06541837  0.00347497  0.2879759 0.7000
  2   -193.3111748794  -0.111906511659 0.04484410  0.00264262  0.2025268 0.7000
                               ***Turning on DIIS***
  3   -193.3909580954  -0.079783216038 0.03102420  0.00202367  0.1422876 0.7000
  4   -193.4478598605  -0.056901765069 0.07784489  0.00551999  0.0998640 0.0000
  5   -193.5852538525  -0.137393992029 0.00864630  0.00045876  0.0074100 0.0000
                      *** Initiating the SOSCF procedure ***
                           *** Shutting down DIIS ***
                      *** Re-Reading the Fockian *** 
                      *** Removing any level shift *** 
ITER      Energy       Delta-E        Grad      Rot      Max-DP    RMS-DP
  6   -193.58556014  -0.0003062882  0.001552  0.001552  0.003365  0.000195
               *** Restarting incremental Fock matrix formation ***
  7   -193.58560254  -0.0000423971  0.000643  0.001734  0.003103  0.000109
  8   -193.58560643  -0.0000038928  0.000662  0.000813  0.001232  0.000058
  9   -193.58561276  -0.0000063315  0.000065  0.000133  0.000204  0.000010
 10   -193.58561279  -0.0000000295  0.000044  0.000036  0.000067  0.000004
 11   -193.58561283  -0.0000000421  0.000003  0.000006  0.000010  0.000001
                  ***Gradient check signals convergence***
              ***Rediagonalizing the Fockian in SOSCF/NRSCF***

               *****************************************************
               *                     SUCCESS                       *
               *           SCF CONVERGED AFTER  12 CYCLES          *
               *****************************************************

Old exchange energy                            =    -11.746864501 Eh
New exchange energy                            =    -11.746866346 Eh
Exchange energy change after final integration =     -0.000001845 Eh
Total energy after final integration           =   -193.585614679 Eh
Final COS-X integration done in                =     1.851 sec

----------------
TOTAL SCF ENERGY
----------------

Total Energy       :         -193.58561468 Eh           -5267.73238 eV

Components:
Nuclear Repulsion  :          146.95421089 Eh            3998.82737 eV
Electronic Energy  :         -340.53982557 Eh           -9266.55976 eV
One Electron Energy:         -550.16317544 Eh          -14970.70110 eV
Two Electron Energy:          209.62334987 Eh            5704.14134 eV
Max COSX asymmetry :            0.00000092 Eh               0.00002 eV

Virial components:
Potential Energy   :         -385.61044879 Eh          -10492.99377 eV
Kinetic Energy     :          192.02483411 Eh            5225.26138 eV
Virial Ratio       :            2.00812801


DFT components:
N(Alpha)           :       18.000000205711 electrons
N(Beta)            :       18.000000205711 electrons
N(Total)           :       36.000000411422 electrons
E(X)               :      -15.590336098522 Eh       
E(C)               :       -1.528057997388 Eh       
E(XC)              :      -17.118394095909 Eh       
DFET-embed. en.    :        0.000000000000 Eh       

---------------
SCF CONVERGENCE
---------------

  Last Energy change         ...   -3.2975e-10  Tolerance :   1.0000e-08
  Last MAX-Density change    ...    1.2559e-15  Tolerance :   1.0000e-07
  Last RMS-Density change    ...    4.9708e-17  Tolerance :   5.0000e-09
  Last Orbital Gradient      ...    9.9006e-07  Tolerance :   1.0000e-05
  Last Orbital Rotation      ...    2.8584e-06  Tolerance :   1.0000e-05

             **** THE GBW FILE WAS UPDATED (pbeh-3c.gbw) ****
             **** DENSITY pbeh-3c.scfp WAS UPDATED ****
             **** ENERGY FILE WAS UPDATED (pbeh-3c.en.tmp) ****
             **** THE GBW FILE WAS UPDATED (pbeh-3c.gbw) ****
             **** DENSITY pbeh-3c.scfp WAS UPDATED ****
----------------
ORBITAL ENERGIES
----------------

  NO   OCC          E(Eh)            E(eV) 
   0   2.0000     -10.465375      -284.7773 
   1   2.0000     -10.464330      -284.7489 
   2   2.0000     -10.463910      -284.7375 
   3   2.0000     -10.438371      -284.0425 
   4   2.0000     -10.425351      -283.6882 
   5   2.0000      -0.981056       -26.6959 
   6   2.0000      -0.851971       -23.1833 
   7   2.0000      -0.698510       -19.0074 
   8   2.0000      -0.641133       -17.4461 
   9   2.0000      -0.620415       -16.8823 
  10   2.0000      -0.576832       -15.6964 
  11   2.0000      -0.501147       -13.6369 
  12   2.0000      -0.494704       -13.4616 
  13   2.0000      -0.410559       -11.1719 
  14   2.0000      -0.400370       -10.8946 
  15   2.0000      -0.384904       -10.4738 
  16   2.0000      -0.308299        -8.3893 
  17   2.0000      -0.278771        -7.5857 
  18   0.0000       0.020217         0.5501 
  19   0.0000       0.064366         1.7515 
  20   0.0000       0.166019         4.5176 
  21   0.0000       0.181826         4.9477 
  22   0.0000       0.185434         5.0459 
  23   0.0000       0.190093         5.1727 
  24   0.0000       0.216468         5.8904 
  25   0.0000       0.220509         6.0004 
  26   0.0000       0.259554         7.0628 
  27   0.0000       0.263487         7.1699 
  28   0.0000       0.335697         9.1348 
  29   0.0000       0.353018         9.6061 
  30   0.0000       0.365845         9.9552 
  31   0.0000       0.506859        13.7923 
  32   0.0000       0.523828        14.2541 
  33   0.0000       0.532198        14.4818 
  34   0.0000       0.567867        15.4524 
  35   0.0000       0.568439        15.4680 
  36   0.0000       0.598078        16.2745 
  37   0.0000       0.608236        16.5509 
  38   0.0000       0.609540        16.5864 
  39   0.0000       0.667113        18.1531 
  40   0.0000       0.688142        18.7253 
  41   0.0000       0.710257        19.3271 
  42   0.0000       0.749993        20.4084 
  43   0.0000       0.751524        20.4500 
  44   0.0000       0.830973        22.6119 
  45   0.0000       0.936137        25.4736 
  46   0.0000       0.942841        25.6560 
  47   0.0000       0.980320        26.6759 
  48   0.0000       1.008361        27.4389 
  49   0.0000       1.051996        28.6263 
  50   0.0000       1.088140        29.6098 
  51   0.0000       1.100458        29.9450 
  52   0.0000       1.162326        31.6285 
  53   0.0000       1.166768        31.7494 
  54   0.0000       1.231644        33.5147 
  55   0.0000       1.249967        34.0133 
  56   0.0000       1.306910        35.5628 
  57   0.0000       1.436591        39.0916 
  58   0.0000       1.499073        40.7919 
  59   0.0000       1.582539        43.0631 
  60   0.0000       1.694070        46.0980 
  61   0.0000       1.735531        47.2262 
  62   0.0000       1.785977        48.5989 
  63   0.0000       1.788351        48.6635 
  64   0.0000       1.929308        52.4991 
  65   0.0000       1.965564        53.4857 
  66   0.0000       1.981949        53.9316 
  67   0.0000       2.031884        55.2904 
  68   0.0000       2.153108        58.5891 
  69   0.0000       2.245450        61.1018 
  70   0.0000       2.255728        61.3815 
  71   0.0000       2.387297        64.9616 
  72   0.0000       2.396519        65.2126 
  73   0.0000       2.459805        66.9347 
  74   0.0000       2.467752        67.1509 
  75   0.0000       2.537109        69.0382 
  76   0.0000       2.564035        69.7709 
  77   0.0000       2.701204        73.5035 
  78   0.0000       2.890066        78.6427 
  79   0.0000       2.890379        78.6512 
  80   0.0000       3.002703        81.7077 
  81   0.0000       3.089685        84.0746 
  82   0.0000      13.321258       362.4899 
  83   0.0000      13.577031       369.4498 
  84   0.0000      13.929026       379.0281 
  85   0.0000      14.173842       385.6899 
  86   0.0000      14.180950       385.8833 

                    ********************************
                    * MULLIKEN POPULATION ANALYSIS *
                    ********************************

-----------------------
MULLIKEN ATOMIC CHARGES
-----------------------
   0 C :   -0.282363
   1 C :   -0.191750
   2 C :   -0.191750
   3 C :   -0.103656
   4 C :   -0.505794
   5 H :    0.212150
   6 H :    0.217117
   7 H :    0.217117
   8 H :    0.207905
   9 H :    0.207474
  10 H :    0.213550
Sum of atomic charges:    0.0000000

--------------------------------
MULLIKEN REDUCED ORBITAL CHARGES
--------------------------------
  0 C s       :     3.274145  s :     3.274145
      pz      :     1.055646  p :     2.949387
      px      :     1.079990
      py      :     0.813751
      dz2     :     0.006319  d :     0.058831
      dxz     :     0.003103
      dyz     :     0.011890
      dx2y2   :     0.022884
      dxy     :     0.014634
  1 C s       :     3.293335  s :     3.293335
      pz      :     0.926306  p :     2.852857
      px      :     0.960564
      py      :     0.965986
      dz2     :     0.012518  d :     0.045559
      dxz     :     0.011223
      dyz     :     0.015579
      dx2y2   :     0.002654
      dxy     :     0.003586
  2 C s       :     3.293335  s :     3.293335
      pz      :     0.926306  p :     2.852857
      px      :     0.960564
      py      :     0.965986
      dz2     :     0.012518  d :     0.045559
      dxz     :     0.011223
      dyz     :     0.015579
      dx2y2   :     0.002654
      dxy     :     0.003586
  3 C s       :     3.214682  s :     3.214682
      pz      :     0.957769  p :     2.848065
      px      :     1.023180
      py      :     0.867115
      dz2     :     0.003673  d :     0.040909
      dxz     :     0.001646
      dyz     :     0.009170
      dx2y2   :     0.016179
      dxy     :     0.010241
  4 C s       :     3.324033  s :     3.324033
      pz      :     1.047613  p :     3.149324
      px      :     1.072297
      py      :     1.029415
      dz2     :     0.004120  d :     0.032436
      dxz     :     0.001257
      dyz     :     0.004214
      dx2y2   :     0.013102
      dxy     :     0.009744
  5 H s       :     0.787850  s :     0.787850
  6 H s       :     0.782883  s :     0.782883
  7 H s       :     0.782883  s :     0.782883
  8 H s       :     0.792095  s :     0.792095
  9 H s       :     0.792526  s :     0.792526
 10 H s       :     0.786450  s :     0.786450


                     *******************************
                     * LOEWDIN POPULATION ANALYSIS *
                     *******************************

----------------------
LOEWDIN ATOMIC CHARGES
----------------------
   0 C :   -0.141359
   1 C :   -0.114983
   2 C :   -0.114983
   3 C :   -0.140600
   4 C :   -0.284684
   5 H :    0.116435
   6 H :    0.145995
   7 H :    0.145995
   8 H :    0.129034
   9 H :    0.127500
  10 H :    0.131649

-------------------------------
LOEWDIN REDUCED ORBITAL CHARGES
-------------------------------
  0 C s       :     2.853457  s :     2.853457
      pz      :     1.121945  p :     3.162195
      px      :     1.074878
      py      :     0.965371
      dz2     :     0.012651  d :     0.125708
      dxz     :     0.005532
      dyz     :     0.025815
      dx2y2   :     0.046988
      dxy     :     0.034722
  1 C s       :     2.911559  s :     2.911559
      pz      :     1.124277  p :     3.108256
      px      :     0.973132
      py      :     1.010847
      dz2     :     0.029651  d :     0.095168
      dxz     :     0.019926
      dyz     :     0.032790
      dx2y2   :     0.005667
      dxy     :     0.007134
  2 C s       :     2.911559  s :     2.911559
      pz      :     1.124277  p :     3.108256
      px      :     0.973132
      py      :     1.010847
      dz2     :     0.029651  d :     0.095168
      dxz     :     0.019926
      dyz     :     0.032790
      dx2y2   :     0.005667
      dxy     :     0.007134
  3 C s       :     2.917182  s :     2.917182
      pz      :     0.947886  p :     3.131191
      px      :     1.092843
      py      :     1.090461
      dz2     :     0.006295  d :     0.092227
      dxz     :     0.002748
      dyz     :     0.018626
      dx2y2   :     0.037449
      dxy     :     0.027109
  4 C s       :     2.959286  s :     2.959286
      pz      :     1.046400  p :     3.259067
      px      :     1.104343
      py      :     1.108323
      dz2     :     0.005705  d :     0.066331
      dxz     :     0.002148
      dyz     :     0.007114
      dx2y2   :     0.028965
      dxy     :     0.022399
  5 H s       :     0.883565  s :     0.883565
  6 H s       :     0.854005  s :     0.854005
  7 H s       :     0.854005  s :     0.854005
  8 H s       :     0.870966  s :     0.870966
  9 H s       :     0.872500  s :     0.872500
 10 H s       :     0.868351  s :     0.868351


                      *****************************
                      * MAYER POPULATION ANALYSIS *
                      *****************************

  NA   - Mulliken gross atomic population
  ZA   - Total nuclear charge
  QA   - Mulliken gross atomic charge
  VA   - Mayer's total valence
  BVA  - Mayer's bonded valence
  FA   - Mayer's free valence

  ATOM       NA         ZA         QA         VA         BVA        FA
  0 C      6.2824     6.0000    -0.2824     3.7863     3.7863    -0.0000
  1 C      6.1918     6.0000    -0.1918     3.7143     3.7143     0.0000
  2 C      6.1918     6.0000    -0.1918     3.7143     3.7143     0.0000
  3 C      6.1037     6.0000    -0.1037     3.7589     3.7589     0.0000
  4 C      6.5058     6.0000    -0.5058     3.8102     3.8102     0.0000
  5 H      0.7879     1.0000     0.2121     0.9128     0.9128     0.0000
  6 H      0.7829     1.0000     0.2171     0.9322     0.9322     0.0000
  7 H      0.7829     1.0000     0.2171     0.9322     0.9322     0.0000
  8 H      0.7921     1.0000     0.2079     0.9186     0.9186    -0.0000
  9 H      0.7925     1.0000     0.2075     0.9251     0.9251     0.0000
 10 H      0.7864     1.0000     0.2136     0.9243     0.9243    -0.0000

  Mayer bond orders larger than 0.100000
B(  0-C ,  1-C ) :   0.9285 B(  0-C ,  2-C ) :   0.9285 B(  0-C ,  3-C ) :   1.0090 
B(  0-C ,  5-H ) :   0.9085 B(  1-C ,  2-C ) :   1.8479 B(  1-C ,  6-H ) :   0.9217 
B(  2-C ,  7-H ) :   0.9217 B(  3-C ,  4-C ) :   1.9009 B(  3-C ,  8-H ) :   0.9210 
B(  4-C ,  9-H ) :   0.9310 B(  4-C , 10-H ) :   0.9295 

-------
TIMINGS
-------

Total SCF time: 0 days 0 hours 0 min 45 sec 

Total time                  ....      45.390 sec
Sum of individual times     ....      42.017 sec  ( 92.6%)

Fock matrix formation       ....      36.187 sec  ( 79.7%)
  Split-RI-J                ....       4.637 sec  ( 12.8% of F)
  Chain of spheres X        ....      12.761 sec  ( 35.3% of F)
  XC integration            ....       9.135 sec  ( 25.2% of F)
    Basis function eval.    ....       1.814 sec  ( 19.9% of XC)
    Density eval.           ....       1.059 sec  ( 11.6% of XC)
    XC-Functional eval.     ....       1.012 sec  ( 11.1% of XC)
    XC-Potential eval.      ....       0.567 sec  (  6.2% of XC)
Diagonalization             ....       0.338 sec  (  0.7%)
Density matrix formation    ....       0.098 sec  (  0.2%)
Population analysis         ....       0.169 sec  (  0.4%)
Initial guess               ....       0.014 sec  (  0.0%)
Orbital Transformation      ....       0.000 sec  (  0.0%)
Orbital Orthonormalization  ....       0.000 sec  (  0.0%)
DIIS solution               ....       0.336 sec  (  0.7%)
SOSCF solution              ....       0.862 sec  (  1.9%)
Grid generation             ....       4.014 sec  (  8.8%)

Maximum memory used throughout the entire SCF-calculation: 49.2 MB


-------------------------------------------------------------------------------
                          DFT DISPERSION CORRECTION                            
                                                                               
                              DFTD3 V3.1  Rev 1                                
                          USING Becke-Johnson damping                          
-------------------------------------------------------------------------------
The PBEh-3c composite method is recognized
Using three-body term ABC
Active option DFTDOPT                   ...         4   

molecular C6(AA) [au] = 1227.446148 


            DFT-D V3
 parameters
 s6 scaling factor         :     1.0000 
 a1 scaling factor         :     0.4860 
 s8 scaling factor         :     0.0000 
 a2 scaling factor         :     4.5000 
 Damping factor alpha9(ATM):    16.0000 
 ad hoc parameters k1-k3   :    16.0000     1.3333    -4.0000 

 Edisp/kcal,au: -2.681249983501  -0.004272843373 
 E6   /kcal   :  -2.684425179 
 E8   /kcal   :  -0.000000000 
 E6(ABC)      :   0.003175195 
 % E8         :   0.000000000 
 % E6(ABC)    :  -0.118422199 

-------------------------   ----------------
Dispersion correction           -0.004272843
-------------------------   ----------------

------------------   -----------------
gCP correction             0.012093790
------------------   -----------------

-------------------------   --------------------
FINAL SINGLE POINT ENERGY      -193.577793731414
-------------------------   --------------------


                            ***************************************
                            *     ORCA property calculations      *
                            ***************************************

                                    ---------------------
                                    Active property flags
                                    ---------------------
   (+) Dipole Moment


------------------------------------------------------------------------------
                       ORCA ELECTRIC PROPERTIES CALCULATION
------------------------------------------------------------------------------

Dipole Moment Calculation                       ... on
Quadrupole Moment Calculation                   ... off
Polarizability Calculation                      ... off
GBWName                                         ... pbeh-3c.gbw
Electron density                                ... pbeh-3c.scfp
The origin for moment calculation is the CENTER OF MASS  = ( 0.009253,  0.054720  0.000000)

-------------
DIPOLE MOMENT
-------------
                                X             Y             Z
Electronic contribution:      0.46781       2.29894      -0.00000
Nuclear contribution   :     -0.33311      -1.96990       0.00000
                        -----------------------------------------
Total Dipole Moment    :      0.13470       0.32903      -0.00000
                        -----------------------------------------
Magnitude (a.u.)       :      0.35554
Magnitude (Debye)      :      0.90370



--------------------
Rotational spectrum 
--------------------
 
Rotational constants in cm-1:     0.661130     0.104257     0.101528 
Rotational constants in MHz : 19820.188334  3125.553534  3043.725912 

 Dipole components along the rotational axes: 
x,y,z [a.u.] :    -0.343573    -0.000000    -0.091451 
x,y,z [Debye]:    -0.873293    -0.000000    -0.232450 

 

Timings for individual modules:

Sum of individual times         ...       47.425 sec (=   0.790 min)
GTO integral calculation        ...        1.589 sec (=   0.026 min)   3.4 %
SCF iterations                  ...       45.835 sec (=   0.764 min)  96.6 %
                             ****ORCA TERMINATED NORMALLY****
TOTAL RUN TIME: 0 days 0 hours 0 minutes 49 seconds 304 msec
