
                                 *****************
                                 * O   R   C   A *
                                 *****************

                                            #,                                       
                                            ###                                      
                                            ####                                     
                                            #####                                    
                                            ######                                   
                                           ########,                                 
                                     ,,################,,,,,                         
                               ,,#################################,,                 
                          ,,##########################################,,             
                       ,#########################################, ''#####,          
                    ,#############################################,,   '####,        
                  ,##################################################,,,,####,       
                ,###########''''           ''''###############################       
              ,#####''   ,,,,##########,,,,          '''####'''          '####       
            ,##' ,,,,###########################,,,                        '##       
           ' ,,###''''                  '''############,,,                           
         ,,##''                                '''############,,,,        ,,,,,,###''
      ,#''                                            '''#######################'''  
     '                                                          ''''####''''         
             ,#######,   #######,   ,#######,      ##                                
            ,#'     '#,  ##    ##  ,#'     '#,    #''#        ######   ,####,        
            ##       ##  ##   ,#'  ##            #'  '#       #        #'  '#        
            ##       ##  #######   ##           ,######,      #####,   #    #        
            '#,     ,#'  ##    ##  '#,     ,#' ,#      #,         ##   #,  ,#        
             '#######'   ##     ##  '#######'  #'      '#     #####' # '####'        



                  #######################################################
                  #                        -***-                        #
                  #          Department of theory and spectroscopy      #
                  #    Directorship and core code : Frank Neese         #
                  #        Max Planck Institute fuer Kohlenforschung    #
                  #                Kaiser Wilhelm Platz 1               #
                  #                 D-45470 Muelheim/Ruhr               #
                  #                      Germany                        #
                  #                                                     #
                  #                  All rights reserved                #
                  #                        -***-                        #
                  #######################################################


                         Program Version 5.0.3 -  RELEASE  -


 With contributions from (in alphabetic order):
   Daniel Aravena         : Magnetic Suceptibility
   Michael Atanasov       : Ab Initio Ligand Field Theory (pilot matlab implementation)
   Alexander A. Auer      : GIAO ZORA, VPT2 properties, NMR spectrum
   Ute Becker             : Parallelization
   Giovanni Bistoni       : ED, misc. LED, open-shell LED, HFLD
   Martin Brehm           : Molecular dynamics
   Dmytro Bykov           : SCF Hessian
   Vijay G. Chilkuri      : MRCI spin determinant printing, contributions to CSF-ICE
   Dipayan Datta          : RHF DLPNO-CCSD density
   Achintya Kumar Dutta   : EOM-CC, STEOM-CC
   Dmitry Ganyushin       : Spin-Orbit,Spin-Spin,Magnetic field MRCI
   Miquel Garcia          : C-PCM and meta-GGA Hessian, CC/C-PCM, Gaussian charge scheme
   Yang Guo               : DLPNO-NEVPT2, F12-NEVPT2, CIM, IAO-localization
   Andreas Hansen         : Spin unrestricted coupled pair/coupled cluster methods
   Benjamin Helmich-Paris : MC-RPA, TRAH-SCF, COSX integrals
   Lee Huntington         : MR-EOM, pCC
   Robert Izsak           : Overlap fitted RIJCOSX, COSX-SCS-MP3, EOM
   Marcus Kettner         : VPT2
   Christian Kollmar      : KDIIS, OOCD, Brueckner-CCSD(T), CCSD density, CASPT2, CASPT2-K
   Simone Kossmann        : Meta GGA functionals, TD-DFT gradient, OOMP2, MP2 Hessian
   Martin Krupicka        : Initial AUTO-CI
   Lucas Lang             : DCDCAS
   Marvin Lechner         : AUTO-CI (C++ implementation), FIC-MRCC
   Dagmar Lenk            : GEPOL surface, SMD
   Dimitrios Liakos       : Extrapolation schemes; Compound Job, initial MDCI parallelization
   Dimitrios Manganas     : Further ROCIS development; embedding schemes
   Dimitrios Pantazis     : SARC Basis sets
   Anastasios Papadopoulos: AUTO-CI, single reference methods and gradients
   Taras Petrenko         : DFT Hessian,TD-DFT gradient, ASA, ECA, R-Raman, ABS, FL, XAS/XES, NRVS
   Peter Pinski           : DLPNO-MP2, DLPNO-MP2 Gradient
   Christoph Reimann      : Effective Core Potentials
   Marius Retegan         : Local ZFS, SOC
   Christoph Riplinger    : Optimizer, TS searches, QM/MM, DLPNO-CCSD(T), (RO)-DLPNO pert. Triples
   Tobias Risthaus        : Range-separated hybrids, TD-DFT gradient, RPA, STAB
   Michael Roemelt        : Original ROCIS implementation
   Masaaki Saitow         : Open-shell DLPNO-CCSD energy and density
   Barbara Sandhoefer     : DKH picture change effects
   Avijit Sen             : IP-ROCIS
   Kantharuban Sivalingam : CASSCF convergence, NEVPT2, FIC-MRCI
   Bernardo de Souza      : ESD, SOC TD-DFT
   Georgi Stoychev        : AutoAux, RI-MP2 NMR, DLPNO-MP2 response
   Willem Van den Heuvel  : Paramagnetic NMR
   Boris Wezisla          : Elementary symmetry handling
   Frank Wennmohs         : Technical directorship


 We gratefully acknowledge several colleagues who have allowed us to
 interface, adapt or use parts of their codes:
   Stefan Grimme, W. Hujo, H. Kruse, P. Pracht,  : VdW corrections, initial TS optimization,
                  C. Bannwarth, S. Ehlert          DFT functionals, gCP, sTDA/sTD-DF
   Ed Valeev, F. Pavosevic, A. Kumar             : LibInt (2-el integral package), F12 methods
   Garnet Chan, S. Sharma, J. Yang, R. Olivares  : DMRG
   Ulf Ekstrom                                   : XCFun DFT Library
   Mihaly Kallay                                 : mrcc  (arbitrary order and MRCC methods)
   Jiri Pittner, Ondrej Demel                    : Mk-CCSD
   Frank Weinhold                                : gennbo (NPA and NBO analysis)
   Christopher J. Cramer and Donald G. Truhlar   : smd solvation model
   Lars Goerigk                                  : TD-DFT with DH, B97 family of functionals
   V. Asgeirsson, H. Jonsson                     : NEB implementation
   FAccTs GmbH                                   : IRC, NEB, NEB-TS, DLPNO-Multilevel, CI-OPT
                                                   MM, QMMM, 2- and 3-layer-ONIOM, Crystal-QMMM,
                                                   LR-CPCM, SF, NACMEs, symmetry and pop. for TD-DFT,
                                                   nearIR, NL-DFT gradient (VV10), updates on ESD,
                                                   ML-optimized integration grids
   S Lehtola, MJT Oliveira, MAL Marques          : LibXC Library
   Liviu Ungur et al                             : ANISO software


 Your calculation uses the libint2 library for the computation of 2-el integrals
 For citations please refer to: http://libint.valeyev.net

 Your ORCA version has been built with support for libXC version: 5.1.0
 For citations please refer to: https://tddft.org/programs/libxc/

 This ORCA versions uses:
   CBLAS   interface :  Fast vector & matrix operations
   LAPACKE interface :  Fast linear algebra routines
   SCALAPACK package :  Parallel linear algebra routines
   Shared memory     :  Shared parallel matrices
   BLAS/LAPACK       :  OpenBLAS 0.3.15  USE64BITINT DYNAMIC_ARCH NO_AFFINITY Haswell SINGLE_THREADED
        Core in use  :  Haswell
   Copyright (c) 2011-2014, The OpenBLAS Project




***************************************
The coordinates will be read from file: 21A.xyz
***************************************


Your calculation utilizes the geometrical counterpoise correction gCP
Please cite in your paper:
H.Kruse, S. Grimme J.Chem.Phys., 136, (2012), 154101 
   

Your calculation utilizes the atom-pairwise dispersion correction
with the Becke-Johnson damping scheme (D3BJ)
Cite in your paper:
S.Grimme, S.Ehrlich, L.Goerigk, J Comput Chem, (2011), 32, 1456–1465 
S.Grimme, J.Antony, S.Ehrlich and H.Krieg, J.Chem.Phys., 132, (2010), 154104 
   

Your calculation employs the composite approach PBEh-3c.
Please cite in your paper:
S. Grimme, J. G. Brandenburg, C. Bannwarth, A. Hansen J.Chem.Phys., 143, (2015), 054107 
   

================================================================================

----- Orbital basis set information -----
Your calculation utilizes the basis: def2-mSVP

----- AuxJ basis set information -----
Your calculation utilizes the auxiliary basis: def2/J
   F. Weigend, Phys. Chem. Chem. Phys. 8, 1057 (2006).

================================================================================
                                        WARNINGS
                       Please study these warnings very carefully!
================================================================================


INFO   : the flag for use of the SHARK integral package has been found!

================================================================================
                                       INPUT FILE
================================================================================
NAME = pbeh-3c.inp
|  1> ! PBEh-3c def2/J TightSCF DefGrid3
|  2> 
|  3> %maxcore 60000
|  4> 
|  5> %pal
|  6> nprocs 4
|  7> end
|  8> 
|  9> *xyzfile 0 1 21A.xyz
| 10> 
| 11>                          ****END OF INPUT****
================================================================================

                       ****************************
                       * Single Point Calculation *
                       ****************************

---------------------------------
CARTESIAN COORDINATES (ANGSTROEM)
---------------------------------
  C      0.459100    0.347732    0.181811
  O      1.043549    1.322704    0.659695
  N      1.103229   -0.737389   -0.285013
  H      2.123432   -0.780996   -0.252328
  H      0.585223   -1.506044   -0.663775
  C     -1.047869    0.323554    0.096376
  H     -1.451779    0.430097    1.100064
  H     -1.440578   -0.583810   -0.354919
  H     -1.374308    1.184151   -0.481912

----------------------------
CARTESIAN COORDINATES (A.U.)
----------------------------
  NO LB      ZA    FRAG     MASS         X           Y           Z
   0 C     6.0000    0    12.011    0.867574    0.657118    0.343573
   1 O     8.0000    0    15.999    1.972023    2.499547    1.246643
   2 N     7.0000    0    14.007    2.084800   -1.393464   -0.538597
   3 H     1.0000    0     1.008    4.012706   -1.475868   -0.476830
   4 H     1.0000    0     1.008    1.105911   -2.846010   -1.254352
   5 C     6.0000    0    12.011   -1.980186    0.611429    0.182123
   6 H     1.0000    0     1.008   -2.743465    0.812766    2.078819
   7 H     1.0000    0     1.008   -2.722297   -1.103241   -0.670699
   8 H     1.0000    0     1.008   -2.597066    2.237722   -0.910681

--------------------------------
INTERNAL COORDINATES (ANGSTROEM)
--------------------------------
 C      0   0   0     0.000000000000     0.00000000     0.00000000
 O      1   0   0     1.233094866682     0.00000000     0.00000000
 N      1   2   0     1.345479398191   123.04023318     0.00000000
 H      3   1   2     1.021658288242   120.09112266     0.08729097
 H      3   1   2     1.001309077835   120.17771728   179.94765773
 C      1   2   3     1.509583018289   120.51379610   179.94375335
 H      6   1   2     1.087145131416   108.48574026   300.94809934
 H      6   1   2     1.086828611559   113.42701715   179.26993572
 H      6   1   2     1.087016769227   108.49462278    57.53723599

---------------------------
INTERNAL COORDINATES (A.U.)
---------------------------
 C      0   0   0     0.000000000000     0.00000000     0.00000000
 O      1   0   0     2.330211595173     0.00000000     0.00000000
 N      1   2   0     2.542587581414   123.04023318     0.00000000
 H      3   1   2     1.930654367229   120.09112266     0.08729097
 H      3   1   2     1.892199932518   120.17771728   179.94765773
 C      1   2   3     2.852698480984   120.51379610   179.94375335
 H      6   1   2     2.054406566202   108.48574026   300.94809934
 H      6   1   2     2.053808430356   113.42701715   179.26993572
 H      6   1   2     2.054163996819   108.49462278    57.53723599

---------------------
BASIS SET INFORMATION
---------------------
There are 4 groups of distinct atoms

 Group   1 Type C   : 8s4p1d contracted to 4s2p1d pattern {5111/31/1}
 Group   2 Type O   : 8s4p1d contracted to 4s2p1d pattern {5111/31/1}
 Group   3 Type N   : 8s4p1d contracted to 4s2p1d pattern {5111/31/1}
 Group   4 Type H   : 4s contracted to 2s pattern {31}

Atom   0C    basis set group =>   1
Atom   1O    basis set group =>   2
Atom   2N    basis set group =>   3
Atom   3H    basis set group =>   4
Atom   4H    basis set group =>   4
Atom   5C    basis set group =>   1
Atom   6H    basis set group =>   4
Atom   7H    basis set group =>   4
Atom   8H    basis set group =>   4
---------------------------------
AUXILIARY/J BASIS SET INFORMATION
---------------------------------
There are 4 groups of distinct atoms

 Group   1 Type C   : 12s5p4d2f1g contracted to 6s4p3d1f1g pattern {711111/2111/211/2/1}
 Group   2 Type O   : 12s5p4d2f1g contracted to 6s4p3d1f1g pattern {711111/2111/211/2/1}
 Group   3 Type N   : 12s5p4d2f1g contracted to 6s4p3d1f1g pattern {711111/2111/211/2/1}
 Group   4 Type H   : 5s2p1d contracted to 3s1p1d pattern {311/2/1}

Atom   0C    basis set group =>   1
Atom   1O    basis set group =>   2
Atom   2N    basis set group =>   3
Atom   3H    basis set group =>   4
Atom   4H    basis set group =>   4
Atom   5C    basis set group =>   1
Atom   6H    basis set group =>   4
Atom   7H    basis set group =>   4
Atom   8H    basis set group =>   4


           ************************************************************
           *        Program running with 4 parallel MPI-processes     *
           *              working on a common directory               *
           ************************************************************
------------------------------------------------------------------------------
                           ORCA GTO INTEGRAL CALCULATION
                           -- RI-GTO INTEGRALS CHOSEN --
------------------------------------------------------------------------------
------------------------------------------------------------------------------
                   ___                                                        
                  /   \      - P O W E R E D   B Y -                         
                 /     \                                                     
                 |  |  |   _    _      __       _____    __    __             
                 |  |  |  | |  | |    /  \     |  _  \  |  |  /  |          
                  \  \/   | |  | |   /    \    | | | |  |  | /  /          
                 / \  \   | |__| |  /  /\  \   | |_| |  |  |/  /          
                |  |  |   |  __  | /  /__\  \  |    /   |      \           
                |  |  |   | |  | | |   __   |  |    \   |  |\   \          
                \     /   | |  | | |  |  |  |  | |\  \  |  | \   \       
                 \___/    |_|  |_| |__|  |__|  |_| \__\ |__|  \__/        
                                                                              
                      - O R C A' S   B I G   F R I E N D -                    
                                      &                                       
                       - I N T E G R A L  F E E D E R -                       
                                                                              
 v1 FN, 2020, v2 2021                                                         
------------------------------------------------------------------------------


Reading SHARK input file pbeh-3c.SHARKINP.tmp ... ok
----------------------
SHARK INTEGRAL PACKAGE
----------------------

Number of atoms                             ...      9
Number of basis functions                   ...     70
Number of shells                            ...     38
Maximum angular momentum                    ...      2
Integral batch strategy                     ... SHARK/LIBINT Hybrid
RI-J (if used) integral strategy            ... SPLIT-RIJ (Revised 2003 algorithm where possible)
Printlevel                                  ...      1
Contraction scheme used                     ... SEGMENTED contraction
Coulomb Range Separation                    ... NOT USED
Exchange Range Separation                   ... NOT USED
Finite Nucleus Model                        ... NOT USED
Auxiliary Coulomb fitting basis             ... AVAILABLE
   # of basis functions in Aux-J            ...    251
   # of shells in Aux-J                     ...     85
   Maximum angular momentum in Aux-J        ...      4
Auxiliary J/K fitting basis                 ... NOT available
Auxiliary Correlation fitting basis         ... NOT available
Auxiliary 'external' fitting basis          ... NOT available
Integral threshold                          ...     2.500000e-11
Primitive cut-off                           ...     2.500000e-12
Primitive pair pre-selection threshold      ...     2.500000e-12

Calculating pre-screening integrals         ... done (  0.1 sec) Dimension = 38
Organizing shell pair data                  ... done (  0.4 sec)
Shell pair information
Total number of shell pairs                 ...       741
Shell pairs after pre-screening             ...       726
Total number of primitive shell pairs       ...      2695
Primitive shell pairs kept                  ...      2081
          la=0 lb=0:    336 shell pairs
          la=1 lb=0:    208 shell pairs
          la=1 lb=1:     36 shell pairs
          la=2 lb=0:    104 shell pairs
          la=2 lb=1:     32 shell pairs
          la=2 lb=2:     10 shell pairs

Calculating one electron integrals          ... done (  0.2 sec)
Calculating RI/J V-Matrix + Cholesky decomp.... done (  0.8 sec)
Calculating Nuclear repulsion               ... done (  0.0 sec) ENN=    121.855357103200 Eh

SHARK setup successfully completed in   2.5 seconds

Maximum memory used throughout the entire GTOINT-calculation: 9.4 MB


           ************************************************************
           *        Program running with 4 parallel MPI-processes     *
           *              working on a common directory               *
           ************************************************************
-------------------------------------------------------------------------------
                                 ORCA SCF
-------------------------------------------------------------------------------

------------
SCF SETTINGS
------------
Hamiltonian:
 Density Functional     Method          .... DFT(GTOs)
 Exchange Functional    Exchange        .... PBE
   PBE kappa parameter   XKappa         ....  1.024500
   PBE mue parameter    XMuePBE         ....  0.123457
 Correlation Functional Correlation     .... PBE
   PBE beta parameter  CBetaPBE         ....  0.030000
 LDA part of GGA corr.  LDAOpt          .... PW91-LDA
 Gradients option       PostSCFGGA      .... off
 Hybrid DFT is turned on
   Fraction HF Exchange ScalHFX         ....  0.420000
   Scaling of DF-GGA-X  ScalDFX         ....  0.580000
   Scaling of DF-GGA-C  ScalDFC         ....  1.000000
   Scaling of DF-LDA-C  ScalLDAC        ....  1.000000
   Perturbative correction              ....  0.000000
   Density functional embedding theory  .... OFF
 RI-approximation to the Coulomb term is turned on
   Number of AuxJ basis functions       .... 251
   RIJ-ON(X) (HFX calculated with O(N)) .... on
   Number of AuxJ basis functions       .... 251
   RIJ-COSX (HFX calculated with COS-X)).... on


General Settings:
 Integral files         IntName         .... pbeh-3c
 Hartree-Fock type      HFTyp           .... RHF
 Total Charge           Charge          ....    0
 Multiplicity           Mult            ....    1
 Number of Electrons    NEL             ....   32
 Basis Dimension        Dim             ....   70
 Nuclear Repulsion      ENuc            ....    121.8553571032 Eh

Convergence Acceleration:
 DIIS                   CNVDIIS         .... on
   Start iteration      DIISMaxIt       ....    12
   Startup error        DIISStart       ....  0.200000
   # of expansion vecs  DIISMaxEq       ....     5
   Bias factor          DIISBfac        ....   1.050
   Max. coefficient     DIISMaxC        ....  10.000
 Trust-Rad. Augm. Hess. CNVTRAH         .... auto
   Auto Start mean grad. ratio tolernc. ....  1.125000
   Auto Start start iteration           ....    20
   Auto Start num. interpolation iter.  ....    10
   Max. Number of Micro iterations      ....    16
   Max. Number of Macro iterations      .... Maxiter - #DIIS iter
   Number of Davidson start vectors     ....     2
   Converg. threshold I  (grad. norm)   ....   1.000e-05
   Converg. threshold II (energy diff.) ....   1.000e-08
   Grad. Scal. Fac. for Micro threshold ....   0.100
   Minimum threshold for Micro iter.    ....   0.010
   NR start threshold (gradient norm)   ....   0.001
   Initial trust radius                 ....   0.400
   Minimum AH scaling param. (alpha)    ....   1.000
   Maximum AH scaling param. (alpha)    .... 1000.000
   Orbital update algorithm             .... Taylor
   White noise on init. David. guess    .... on
   Maximum white noise                  ....   0.010
   Quad. conv. algorithm                .... NR
   COSX micro iterations for RIJONX calc.... off
 SOSCF                  CNVSOSCF        .... on
   Start iteration      SOSCFMaxIt      ....   150
   Startup grad/error   SOSCFStart      ....  0.003300
 Level Shifting         CNVShift        .... on
   Level shift para.    LevelShift      ....    0.2500
   Turn off err/grad.   ShiftErr        ....    0.0010
 Zerner damping         CNVZerner       .... off
 Static damping         CNVDamp         .... on
   Fraction old density DampFac         ....    0.7000
   Max. Damping (<1)    DampMax         ....    0.9800
   Min. Damping (>=0)   DampMin         ....    0.0000
   Turn off err/grad.   DampErr         ....    0.1000
 Fernandez-Rico         CNVRico         .... off

SCF Procedure:
 Maximum # iterations   MaxIter         ....   125
 SCF integral mode      SCFMode         .... Direct
   Integral package                     .... SHARK and LIBINT hybrid scheme
 Reset frequency        DirectResetFreq ....    20
 Integral Threshold     Thresh          ....  2.500e-11 Eh
 Primitive CutOff       TCut            ....  2.500e-12 Eh

Convergence Tolerance:
 Convergence Check Mode ConvCheckMode   .... Total+1el-Energy
 Convergence forced     ConvForced      .... 0
 Energy Change          TolE            ....  1.000e-08 Eh
 1-El. energy change                    ....  1.000e-05 Eh
 Orbital Gradient       TolG            ....  1.000e-05
 Orbital Rotation angle TolX            ....  1.000e-05
 DIIS Error             TolErr          ....  5.000e-07


Diagonalization of the overlap matrix:
Smallest eigenvalue                        ... 7.177e-03
Time for diagonalization                   ...    0.002 sec
Threshold for overlap eigenvalues          ... 1.000e-08
Number of eigenvalues below threshold      ... 0
Time for construction of square roots      ...    0.383 sec
Total time needed                          ...    0.386 sec

--------------------------------
INITIAL GUESS: MINIMAL BASIS EHT
--------------------------------
The minimal basis has 25 functions
EHT matrix was diagonalized
Basis set overlap was calculated now projecting the orbitals
Using GuessMode=FMatrix for the initial guess
C*T matrix was formed
Effective Fockian was calculated
Effective Fockian was diagonalized
Initial density was built
                      ------------------
                      INITIAL GUESS DONE
                      ------------------
-------------------
DFT GRID GENERATION
-------------------

General Integration Accuracy     IntAcc      ... 4.959
Radial Grid Type                 RadialGrid  ... OptM3 with GC (2021)
Angular Grid (max. ang.)         AngularGrid ... 6 (Lebedev-590)
Angular grid pruning method      GridPruning ... 4 (adaptive)
Weight generation scheme         WeightScheme... Becke
Basis function cutoff            BFCut       ... 1.0000e-11
Integration weight cutoff        WCut        ... 1.0000e-14
Angular grids for H and He will be reduced by one unit
Partially contracted basis set               ... off
Rotationally invariant grid construction     ... off

Total number of grid points                  ...   102097
Total number of batches                      ...     1601
Average number of points per batch           ...       63
Average number of grid points per atom       ...    11344
Time for grid setup =    1.812 sec

--------------------
COSX GRID GENERATION
--------------------

GRIDX 1
-------
General Integration Accuracy     IntAcc      ... 4.020
Radial Grid Type                 RadialGrid  ... OptM3 with GC (2021)
Angular Grid (max. ang.)         AngularGrid ... 2 (Lebedev-110)
Angular grid pruning method      GridPruning ... 4 (adaptive)
Weight generation scheme         WeightScheme... Becke
Basis function cutoff            BFCut       ... 1.0000e-11
Integration weight cutoff        WCut        ... 1.0000e-14
Angular grids for H and He will be reduced by one unit
Partially contracted basis set               ... on
Rotationally invariant grid construction     ... off

Total number of grid points                  ...    11297
Total number of batches                      ...      181
Average number of points per batch           ...       62
Average number of grid points per atom       ...     1255
UseSFitting                                  ... on

GRIDX 2
-------
General Integration Accuracy     IntAcc      ... 4.338
Radial Grid Type                 RadialGrid  ... OptM3 with GC (2021)
Angular Grid (max. ang.)         AngularGrid ... 3 (Lebedev-194)
Angular grid pruning method      GridPruning ... 4 (adaptive)
Weight generation scheme         WeightScheme... Becke
Basis function cutoff            BFCut       ... 1.0000e-11
Integration weight cutoff        WCut        ... 1.0000e-14
Angular grids for H and He will be reduced by one unit
Partially contracted basis set               ... on
Rotationally invariant grid construction     ... off

Total number of grid points                  ...    24863
Total number of batches                      ...      394
Average number of points per batch           ...       63
Average number of grid points per atom       ...     2763
UseSFitting                                  ... on

GRIDX 3
-------
General Integration Accuracy     IntAcc      ... 4.871
Radial Grid Type                 RadialGrid  ... OptM3 with GC (2021)
Angular Grid (max. ang.)         AngularGrid ... 4 (Lebedev-302)
Angular grid pruning method      GridPruning ... 4 (adaptive)
Weight generation scheme         WeightScheme... Becke
Basis function cutoff            BFCut       ... 1.0000e-11
Integration weight cutoff        WCut        ... 1.0000e-14
Angular grids for H and He will be reduced by one unit
Partially contracted basis set               ... on
Rotationally invariant grid construction     ... off

Total number of grid points                  ...    48366
Total number of batches                      ...      759
Average number of points per batch           ...       63
Average number of grid points per atom       ...     5374
UseSFitting                                  ... on

Time for X-Grid setup             =    3.586 sec

--------------
SCF ITERATIONS
--------------
ITER       Energy         Delta-E        Max-DP      RMS-DP      [F,P]     Damp
               ***  Starting incremental Fock matrix formation  ***
  0   -208.0038106427   0.000000000000 0.20414935  0.01115998  0.5833934 0.7000
  1   -208.3081231131  -0.304312470441 0.11177281  0.00564959  0.2932197 0.7000
  2   -208.4430401717  -0.134917058587 0.05309624  0.00272972  0.2069821 0.7000
                               ***Turning on DIIS***
  3   -208.5396110406  -0.096570868908 0.03276629  0.00181449  0.1454580 0.7000
  4   -208.6100298536  -0.070418812999 0.02263916  0.00134134  0.1020247 0.7000
  5   -208.6596645002  -0.049634646631 0.05570947  0.00330312  0.0716299 0.0000
  6   -208.7770804951  -0.117415994910 0.00614094  0.00023811  0.0047675 0.0000
                      *** Initiating the SOSCF procedure ***
                           *** Shutting down DIIS ***
                      *** Re-Reading the Fockian *** 
                      *** Removing any level shift *** 
ITER      Energy       Delta-E        Grad      Rot      Max-DP    RMS-DP
  7   -208.77715849  -0.0000779982  0.000805  0.000805  0.001853  0.000114
               *** Restarting incremental Fock matrix formation ***
  8   -208.77719104  -0.0000325458  0.000778  0.002019  0.001828  0.000096
  9   -208.77719729  -0.0000062554  0.000284  0.000672  0.001624  0.000082
 10   -208.77719718   0.0000001183  0.000353  0.000201  0.000710  0.000035
 11   -208.77719828  -0.0000011018  0.000028  0.000060  0.000096  0.000004
 12   -208.77719828  -0.0000000023  0.000025  0.000025  0.000046  0.000002
                  ***Gradient check signals convergence***
              ***Rediagonalizing the Fockian in SOSCF/NRSCF***

               *****************************************************
               *                     SUCCESS                       *
               *           SCF CONVERGED AFTER  13 CYCLES          *
               *****************************************************

Old exchange energy                            =    -11.335475424 Eh
New exchange energy                            =    -11.335478679 Eh
Exchange energy change after final integration =     -0.000003255 Eh
Total energy after final integration           =   -208.777201542 Eh
Final COS-X integration done in                =     1.152 sec

----------------
TOTAL SCF ENERGY
----------------

Total Energy       :         -208.77720154 Eh           -5681.11648 eV

Components:
Nuclear Repulsion  :          121.85535710 Eh            3315.85284 eV
Electronic Energy  :         -330.63255865 Eh           -8996.96932 eV
One Electron Energy:         -525.01288037 Eh          -14286.32678 eV
Two Electron Energy:          194.38032172 Eh            5289.35746 eV
Max COSX asymmetry :            0.00000084 Eh               0.00002 eV

Virial components:
Potential Energy   :         -416.03558848 Eh          -11320.90391 eV
Kinetic Energy     :          207.25838694 Eh            5639.78743 eV
Virial Ratio       :            2.00732812


DFT components:
N(Alpha)           :       15.999999250244 electrons
N(Beta)            :       15.999999250244 electrons
N(Total)           :       31.999998500489 electrons
E(X)               :      -15.080660187183 Eh       
E(C)               :       -1.400313988775 Eh       
E(XC)              :      -16.480974175957 Eh       
DFET-embed. en.    :        0.000000000000 Eh       

---------------
SCF CONVERGENCE
---------------

  Last Energy change         ...   -6.6741e-09  Tolerance :   1.0000e-08
  Last MAX-Density change    ...    9.9920e-16  Tolerance :   1.0000e-07
  Last RMS-Density change    ...    5.1392e-17  Tolerance :   5.0000e-09
  Last Orbital Gradient      ...    1.5457e-06  Tolerance :   1.0000e-05
  Last Orbital Rotation      ...    2.4810e-06  Tolerance :   1.0000e-05

             **** THE GBW FILE WAS UPDATED (pbeh-3c.gbw) ****
             **** DENSITY pbeh-3c.scfp WAS UPDATED ****
             **** ENERGY FILE WAS UPDATED (pbeh-3c.en.tmp) ****
             **** THE GBW FILE WAS UPDATED (pbeh-3c.gbw) ****
             **** DENSITY pbeh-3c.scfp WAS UPDATED ****
----------------
ORBITAL ENERGIES
----------------

  NO   OCC          E(Eh)            E(eV) 
   0   2.0000     -19.444091      -529.1006 
   1   2.0000     -14.660195      -398.9242 
   2   2.0000     -10.546362      -286.9811 
   3   2.0000     -10.440584      -284.1027 
   4   2.0000      -1.127897       -30.6916 
   5   2.0000      -1.004964       -27.3465 
   6   2.0000      -0.826240       -22.4831 
   7   2.0000      -0.664094       -18.0709 
   8   2.0000      -0.608915       -16.5694 
   9   2.0000      -0.533169       -14.5083 
  10   2.0000      -0.505572       -13.7573 
  11   2.0000      -0.459717       -12.5095 
  12   2.0000      -0.452791       -12.3211 
  13   2.0000      -0.419366       -11.4115 
  14   2.0000      -0.315218        -8.5775 
  15   2.0000      -0.299607        -8.1527 
  16   0.0000       0.070022         1.9054 
  17   0.0000       0.117645         3.2013 
  18   0.0000       0.162280         4.4159 
  19   0.0000       0.187008         5.0887 
  20   0.0000       0.221762         6.0344 
  21   0.0000       0.227760         6.1977 
  22   0.0000       0.252813         6.8794 
  23   0.0000       0.346698         9.4341 
  24   0.0000       0.452444        12.3116 
  25   0.0000       0.513007        13.9596 
  26   0.0000       0.541464        14.7340 
  27   0.0000       0.576773        15.6948 
  28   0.0000       0.585155        15.9229 
  29   0.0000       0.593851        16.1595 
  30   0.0000       0.706593        19.2274 
  31   0.0000       0.745332        20.2815 
  32   0.0000       0.811188        22.0736 
  33   0.0000       0.817289        22.2396 
  34   0.0000       0.942362        25.6430 
  35   0.0000       0.984053        26.7775 
  36   0.0000       1.004955        27.3462 
  37   0.0000       1.016856        27.6701 
  38   0.0000       1.057478        28.7754 
  39   0.0000       1.063982        28.9524 
  40   0.0000       1.160941        31.5908 
  41   0.0000       1.216184        33.0941 
  42   0.0000       1.257790        34.2262 
  43   0.0000       1.371290        37.3147 
  44   0.0000       1.394104        37.9355 
  45   0.0000       1.486874        40.4599 
  46   0.0000       1.577176        42.9172 
  47   0.0000       1.715896        46.6919 
  48   0.0000       1.806116        49.1469 
  49   0.0000       1.826607        49.7045 
  50   0.0000       1.888164        51.3795 
  51   0.0000       1.891165        51.4612 
  52   0.0000       2.022543        55.0362 
  53   0.0000       2.050325        55.7922 
  54   0.0000       2.106967        57.3335 
  55   0.0000       2.217067        60.3295 
  56   0.0000       2.275190        61.9111 
  57   0.0000       2.289914        62.3117 
  58   0.0000       2.401160        65.3389 
  59   0.0000       2.472701        67.2856 
  60   0.0000       2.484718        67.6126 
  61   0.0000       2.649395        72.0937 
  62   0.0000       2.724315        74.1324 
  63   0.0000       2.898856        78.8819 
  64   0.0000       3.005759        81.7909 
  65   0.0000       3.162646        86.0600 
  66   0.0000      13.644461       371.2847 
  67   0.0000      14.033957       381.8834 
  68   0.0000      19.199734       522.4513 
  69   0.0000      25.723764       699.9792 

                    ********************************
                    * MULLIKEN POPULATION ANALYSIS *
                    ********************************

-----------------------
MULLIKEN ATOMIC CHARGES
-----------------------
   0 C :    0.502035
   1 O :   -0.430158
   2 N :   -0.788503
   3 H :    0.374996
   4 H :    0.361732
   5 C :   -0.745793
   6 H :    0.261119
   7 H :    0.203028
   8 H :    0.261543
Sum of atomic charges:   -0.0000000

--------------------------------
MULLIKEN REDUCED ORBITAL CHARGES
--------------------------------
  0 C s       :     2.975659  s :     2.975659
      pz      :     0.758075  p :     2.399342
      px      :     0.875434
      py      :     0.765833
      dz2     :     0.015224  d :     0.122963
      dxz     :     0.014004
      dyz     :     0.022996
      dx2y2   :     0.038738
      dxy     :     0.032002
  1 O s       :     3.765037  s :     3.765037
      pz      :     1.453991  p :     4.636367
      px      :     1.706124
      py      :     1.476251
      dz2     :     0.004902  d :     0.028754
      dxz     :     0.003408
      dyz     :     0.007201
      dx2y2   :     0.006414
      dxy     :     0.006829
  2 N s       :     3.556167  s :     3.556167
      pz      :     1.658398  p :     4.205441
      px      :     1.252376
      py      :     1.294668
      dz2     :     0.003677  d :     0.026895
      dxz     :     0.002149
      dyz     :     0.004387
      dx2y2   :     0.009262
      dxy     :     0.007420
  3 H s       :     0.625004  s :     0.625004
  4 H s       :     0.638268  s :     0.638268
  5 C s       :     3.400790  s :     3.400790
      pz      :     1.178980  p :     3.310915
      px      :     0.976514
      py      :     1.155421
      dz2     :     0.007002  d :     0.034088
      dxz     :     0.005283
      dyz     :     0.007296
      dx2y2   :     0.009438
      dxy     :     0.005068
  6 H s       :     0.738881  s :     0.738881
  7 H s       :     0.796972  s :     0.796972
  8 H s       :     0.738457  s :     0.738457


                     *******************************
                     * LOEWDIN POPULATION ANALYSIS *
                     *******************************

----------------------
LOEWDIN ATOMIC CHARGES
----------------------
   0 C :    0.098309
   1 O :   -0.294120
   2 N :   -0.365086
   3 H :    0.263464
   4 H :    0.251708
   5 C :   -0.393100
   6 H :    0.158244
   7 H :    0.122265
   8 H :    0.158315

-------------------------------
LOEWDIN REDUCED ORBITAL CHARGES
-------------------------------
  0 C s       :     2.829970  s :     2.829970
      pz      :     0.811928  p :     2.794455
      px      :     1.028525
      py      :     0.954003
      dz2     :     0.031729  d :     0.277266
      dxz     :     0.029167
      dyz     :     0.052476
      dx2y2   :     0.091971
      dxy     :     0.071923
  1 O s       :     3.532113  s :     3.532113
      pz      :     1.463816  p :     4.707936
      px      :     1.723148
      py      :     1.520973
      dz2     :     0.007450  d :     0.054071
      dxz     :     0.005984
      dyz     :     0.012934
      dx2y2   :     0.012214
      dxy     :     0.015490
  2 N s       :     3.152012  s :     3.152012
      pz      :     1.625909  p :     4.154553
      px      :     1.226767
      py      :     1.301877
      dz2     :     0.005791  d :     0.058522
      dxz     :     0.004731
      dyz     :     0.008923
      dx2y2   :     0.020585
      dxy     :     0.018493
  3 H s       :     0.736536  s :     0.736536
  4 H s       :     0.748292  s :     0.748292
  5 C s       :     2.963787  s :     2.963787
      pz      :     1.151169  p :     3.365663
      px      :     1.079048
      py      :     1.135446
      dz2     :     0.012248  d :     0.063649
      dxz     :     0.010342
      dyz     :     0.011666
      dx2y2   :     0.019246
      dxy     :     0.010148
  6 H s       :     0.841756  s :     0.841756
  7 H s       :     0.877735  s :     0.877735
  8 H s       :     0.841685  s :     0.841685


                      *****************************
                      * MAYER POPULATION ANALYSIS *
                      *****************************

  NA   - Mulliken gross atomic population
  ZA   - Total nuclear charge
  QA   - Mulliken gross atomic charge
  VA   - Mayer's total valence
  BVA  - Mayer's bonded valence
  FA   - Mayer's free valence

  ATOM       NA         ZA         QA         VA         BVA        FA
  0 C      5.4980     6.0000     0.5020     4.0695     4.0695    -0.0000
  1 O      8.4302     8.0000    -0.4302     2.1662     2.1662    -0.0000
  2 N      7.7885     7.0000    -0.7885     2.9135     2.9135     0.0000
  3 H      0.6250     1.0000     0.3750     0.8445     0.8445     0.0000
  4 H      0.6383     1.0000     0.3617     0.8478     0.8478    -0.0000
  5 C      6.7458     6.0000    -0.7458     3.6823     3.6823    -0.0000
  6 H      0.7389     1.0000     0.2611     0.8986     0.8986     0.0000
  7 H      0.7970     1.0000     0.2030     0.9156     0.9156    -0.0000
  8 H      0.7385     1.0000     0.2615     0.8987     0.8987    -0.0000

  Mayer bond orders larger than 0.100000
B(  0-C ,  1-O ) :   2.0205 B(  0-C ,  2-N ) :   1.1559 B(  0-C ,  5-C ) :   0.9253 
B(  2-N ,  3-H ) :   0.8221 B(  2-N ,  4-H ) :   0.8304 B(  5-C ,  6-H ) :   0.9096 
B(  5-C ,  7-H ) :   0.9218 B(  5-C ,  8-H ) :   0.9099 

-------
TIMINGS
-------

Total SCF time: 0 days 0 hours 1 min 7 sec 

Total time                  ....      67.456 sec
Sum of individual times     ....      58.980 sec  ( 87.4%)

Fock matrix formation       ....      47.295 sec  ( 70.1%)
  Split-RI-J                ....       7.024 sec  ( 14.9% of F)
  Chain of spheres X        ....      10.240 sec  ( 21.7% of F)
  XC integration            ....      14.266 sec  ( 30.2% of F)
    Basis function eval.    ....       1.759 sec  ( 12.3% of XC)
    Density eval.           ....       0.915 sec  (  6.4% of XC)
    XC-Functional eval.     ....       0.928 sec  (  6.5% of XC)
    XC-Potential eval.      ....       0.590 sec  (  4.1% of XC)
Diagonalization             ....       1.128 sec  (  1.7%)
Density matrix formation    ....       0.195 sec  (  0.3%)
Population analysis         ....       0.793 sec  (  1.2%)
Initial guess               ....       0.136 sec  (  0.2%)
Orbital Transformation      ....       0.000 sec  (  0.0%)
Orbital Orthonormalization  ....       0.000 sec  (  0.0%)
DIIS solution               ....       2.374 sec  (  3.5%)
SOSCF solution              ....       1.659 sec  (  2.5%)
Grid generation             ....       5.399 sec  (  8.0%)

Maximum memory used throughout the entire SCF-calculation: 47.5 MB


-------------------------------------------------------------------------------
                          DFT DISPERSION CORRECTION                            
                                                                               
                              DFTD3 V3.1  Rev 1                                
                          USING Becke-Johnson damping                          
-------------------------------------------------------------------------------
The PBEh-3c composite method is recognized
Using three-body term ABC
Active option DFTDOPT                   ...         4   

molecular C6(AA) [au] = 652.919400 


            DFT-D V3
 parameters
 s6 scaling factor         :     1.0000 
 a1 scaling factor         :     0.4860 
 s8 scaling factor         :     0.0000 
 a2 scaling factor         :     4.5000 
 Damping factor alpha9(ATM):    16.0000 
 ad hoc parameters k1-k3   :    16.0000     1.3333    -4.0000 

 Edisp/kcal,au: -1.812276884028  -0.002888046740 
 E6   /kcal   :  -1.815354992 
 E8   /kcal   :  -0.000000000 
 E6(ABC)      :   0.003078108 
 % E8         :   0.000000000 
 % E6(ABC)    :  -0.169847570 

-------------------------   ----------------
Dispersion correction           -0.002888047
-------------------------   ----------------

------------------   -----------------
gCP correction             0.013537422
------------------   -----------------

-------------------------   --------------------
FINAL SINGLE POINT ENERGY      -208.766552167655
-------------------------   --------------------


                            ***************************************
                            *     ORCA property calculations      *
                            ***************************************

                                    ---------------------
                                    Active property flags
                                    ---------------------
   (+) Dipole Moment


------------------------------------------------------------------------------
                       ORCA ELECTRIC PROPERTIES CALCULATION
------------------------------------------------------------------------------

Dipole Moment Calculation                       ... on
Quadrupole Moment Calculation                   ... off
Polarizability Calculation                      ... off
GBWName                                         ... pbeh-3c.gbw
Electron density                                ... pbeh-3c.scfp
The origin for moment calculation is the CENTER OF MASS  = ( 0.752029,  0.564009  0.295785)

-------------
DIPOLE MOMENT
-------------
                                X             Y             Z
Electronic contribution:      2.88679       1.18540       0.68672
Nuclear contribution   :     -3.31502      -2.56951      -1.34173
                        -----------------------------------------
Total Dipole Moment    :     -0.42824      -1.38411      -0.65501
                        -----------------------------------------
Magnitude (a.u.)       :      1.59003
Magnitude (Debye)      :      4.04153



--------------------
Rotational spectrum 
--------------------
 
Rotational constants in cm-1:     0.361430     0.312716     0.172993 
Rotational constants in MHz : 10835.385944  9374.979122  5186.200174 

 Dipole components along the rotational axes: 
x,y,z [a.u.] :    -0.053850    -1.589113     0.002559 
x,y,z [Debye]:    -0.136876    -4.039204     0.006506 

 

Timings for individual modules:

Sum of individual times         ...       72.050 sec (=   1.201 min)
GTO integral calculation        ...        3.581 sec (=   0.060 min)   5.0 %
SCF iterations                  ...       68.469 sec (=   1.141 min)  95.0 %
                             ****ORCA TERMINATED NORMALLY****
TOTAL RUN TIME: 0 days 0 hours 1 minutes 16 seconds 215 msec
