
                                 *****************
                                 * O   R   C   A *
                                 *****************

                                            #,                                       
                                            ###                                      
                                            ####                                     
                                            #####                                    
                                            ######                                   
                                           ########,                                 
                                     ,,################,,,,,                         
                               ,,#################################,,                 
                          ,,##########################################,,             
                       ,#########################################, ''#####,          
                    ,#############################################,,   '####,        
                  ,##################################################,,,,####,       
                ,###########''''           ''''###############################       
              ,#####''   ,,,,##########,,,,          '''####'''          '####       
            ,##' ,,,,###########################,,,                        '##       
           ' ,,###''''                  '''############,,,                           
         ,,##''                                '''############,,,,        ,,,,,,###''
      ,#''                                            '''#######################'''  
     '                                                          ''''####''''         
             ,#######,   #######,   ,#######,      ##                                
            ,#'     '#,  ##    ##  ,#'     '#,    #''#        ######   ,####,        
            ##       ##  ##   ,#'  ##            #'  '#       #        #'  '#        
            ##       ##  #######   ##           ,######,      #####,   #    #        
            '#,     ,#'  ##    ##  '#,     ,#' ,#      #,         ##   #,  ,#        
             '#######'   ##     ##  '#######'  #'      '#     #####' # '####'        



                  #######################################################
                  #                        -***-                        #
                  #          Department of theory and spectroscopy      #
                  #    Directorship and core code : Frank Neese         #
                  #        Max Planck Institute fuer Kohlenforschung    #
                  #                Kaiser Wilhelm Platz 1               #
                  #                 D-45470 Muelheim/Ruhr               #
                  #                      Germany                        #
                  #                                                     #
                  #                  All rights reserved                #
                  #                        -***-                        #
                  #######################################################


                         Program Version 5.0.3 -  RELEASE  -


 With contributions from (in alphabetic order):
   Daniel Aravena         : Magnetic Suceptibility
   Michael Atanasov       : Ab Initio Ligand Field Theory (pilot matlab implementation)
   Alexander A. Auer      : GIAO ZORA, VPT2 properties, NMR spectrum
   Ute Becker             : Parallelization
   Giovanni Bistoni       : ED, misc. LED, open-shell LED, HFLD
   Martin Brehm           : Molecular dynamics
   Dmytro Bykov           : SCF Hessian
   Vijay G. Chilkuri      : MRCI spin determinant printing, contributions to CSF-ICE
   Dipayan Datta          : RHF DLPNO-CCSD density
   Achintya Kumar Dutta   : EOM-CC, STEOM-CC
   Dmitry Ganyushin       : Spin-Orbit,Spin-Spin,Magnetic field MRCI
   Miquel Garcia          : C-PCM and meta-GGA Hessian, CC/C-PCM, Gaussian charge scheme
   Yang Guo               : DLPNO-NEVPT2, F12-NEVPT2, CIM, IAO-localization
   Andreas Hansen         : Spin unrestricted coupled pair/coupled cluster methods
   Benjamin Helmich-Paris : MC-RPA, TRAH-SCF, COSX integrals
   Lee Huntington         : MR-EOM, pCC
   Robert Izsak           : Overlap fitted RIJCOSX, COSX-SCS-MP3, EOM
   Marcus Kettner         : VPT2
   Christian Kollmar      : KDIIS, OOCD, Brueckner-CCSD(T), CCSD density, CASPT2, CASPT2-K
   Simone Kossmann        : Meta GGA functionals, TD-DFT gradient, OOMP2, MP2 Hessian
   Martin Krupicka        : Initial AUTO-CI
   Lucas Lang             : DCDCAS
   Marvin Lechner         : AUTO-CI (C++ implementation), FIC-MRCC
   Dagmar Lenk            : GEPOL surface, SMD
   Dimitrios Liakos       : Extrapolation schemes; Compound Job, initial MDCI parallelization
   Dimitrios Manganas     : Further ROCIS development; embedding schemes
   Dimitrios Pantazis     : SARC Basis sets
   Anastasios Papadopoulos: AUTO-CI, single reference methods and gradients
   Taras Petrenko         : DFT Hessian,TD-DFT gradient, ASA, ECA, R-Raman, ABS, FL, XAS/XES, NRVS
   Peter Pinski           : DLPNO-MP2, DLPNO-MP2 Gradient
   Christoph Reimann      : Effective Core Potentials
   Marius Retegan         : Local ZFS, SOC
   Christoph Riplinger    : Optimizer, TS searches, QM/MM, DLPNO-CCSD(T), (RO)-DLPNO pert. Triples
   Tobias Risthaus        : Range-separated hybrids, TD-DFT gradient, RPA, STAB
   Michael Roemelt        : Original ROCIS implementation
   Masaaki Saitow         : Open-shell DLPNO-CCSD energy and density
   Barbara Sandhoefer     : DKH picture change effects
   Avijit Sen             : IP-ROCIS
   Kantharuban Sivalingam : CASSCF convergence, NEVPT2, FIC-MRCI
   Bernardo de Souza      : ESD, SOC TD-DFT
   Georgi Stoychev        : AutoAux, RI-MP2 NMR, DLPNO-MP2 response
   Willem Van den Heuvel  : Paramagnetic NMR
   Boris Wezisla          : Elementary symmetry handling
   Frank Wennmohs         : Technical directorship


 We gratefully acknowledge several colleagues who have allowed us to
 interface, adapt or use parts of their codes:
   Stefan Grimme, W. Hujo, H. Kruse, P. Pracht,  : VdW corrections, initial TS optimization,
                  C. Bannwarth, S. Ehlert          DFT functionals, gCP, sTDA/sTD-DF
   Ed Valeev, F. Pavosevic, A. Kumar             : LibInt (2-el integral package), F12 methods
   Garnet Chan, S. Sharma, J. Yang, R. Olivares  : DMRG
   Ulf Ekstrom                                   : XCFun DFT Library
   Mihaly Kallay                                 : mrcc  (arbitrary order and MRCC methods)
   Jiri Pittner, Ondrej Demel                    : Mk-CCSD
   Frank Weinhold                                : gennbo (NPA and NBO analysis)
   Christopher J. Cramer and Donald G. Truhlar   : smd solvation model
   Lars Goerigk                                  : TD-DFT with DH, B97 family of functionals
   V. Asgeirsson, H. Jonsson                     : NEB implementation
   FAccTs GmbH                                   : IRC, NEB, NEB-TS, DLPNO-Multilevel, CI-OPT
                                                   MM, QMMM, 2- and 3-layer-ONIOM, Crystal-QMMM,
                                                   LR-CPCM, SF, NACMEs, symmetry and pop. for TD-DFT,
                                                   nearIR, NL-DFT gradient (VV10), updates on ESD,
                                                   ML-optimized integration grids
   S Lehtola, MJT Oliveira, MAL Marques          : LibXC Library
   Liviu Ungur et al                             : ANISO software


 Your calculation uses the libint2 library for the computation of 2-el integrals
 For citations please refer to: http://libint.valeyev.net

 Your ORCA version has been built with support for libXC version: 5.1.0
 For citations please refer to: https://tddft.org/programs/libxc/

 This ORCA versions uses:
   CBLAS   interface :  Fast vector & matrix operations
   LAPACKE interface :  Fast linear algebra routines
   SCALAPACK package :  Parallel linear algebra routines
   Shared memory     :  Shared parallel matrices
   BLAS/LAPACK       :  OpenBLAS 0.3.15  USE64BITINT DYNAMIC_ARCH NO_AFFINITY Haswell SINGLE_THREADED
        Core in use  :  Haswell
   Copyright (c) 2011-2014, The OpenBLAS Project




***************************************
The coordinates will be read from file: 150A.xyz
***************************************


Your calculation utilizes the geometrical counterpoise correction gCP
Please cite in your paper:
H.Kruse, S. Grimme J.Chem.Phys., 136, (2012), 154101 
   

Your calculation utilizes the atom-pairwise dispersion correction
with the Becke-Johnson damping scheme (D3BJ)
Cite in your paper:
S.Grimme, S.Ehrlich, L.Goerigk, J Comput Chem, (2011), 32, 1456–1465 
S.Grimme, J.Antony, S.Ehrlich and H.Krieg, J.Chem.Phys., 132, (2010), 154104 
   

Your calculation employs the composite approach PBEh-3c.
Please cite in your paper:
S. Grimme, J. G. Brandenburg, C. Bannwarth, A. Hansen J.Chem.Phys., 143, (2015), 054107 
   

================================================================================

----- Orbital basis set information -----
Your calculation utilizes the basis: def2-mSVP

----- AuxJ basis set information -----
Your calculation utilizes the auxiliary basis: def2/J
   F. Weigend, Phys. Chem. Chem. Phys. 8, 1057 (2006).

================================================================================
                                        WARNINGS
                       Please study these warnings very carefully!
================================================================================


INFO   : the flag for use of the SHARK integral package has been found!

================================================================================
                                       INPUT FILE
================================================================================
NAME = pbeh-3c.inp
|  1> ! PBEh-3c def2/J TightSCF DefGrid3
|  2> 
|  3> %maxcore 60000
|  4> 
|  5> %pal
|  6> nprocs 4
|  7> end
|  8> 
|  9> *xyzfile 1 1 150A.xyz
| 10> 
| 11>                          ****END OF INPUT****
================================================================================

                       ****************************
                       * Single Point Calculation *
                       ****************************

---------------------------------
CARTESIAN COORDINATES (ANGSTROEM)
---------------------------------
  C      1.254560    0.045170   -0.223190
  N     -0.030320    0.045060    0.316690
  C      0.075120    0.044970    1.665660
  N      1.369860    0.045000    1.990010
  C      2.126280    0.045140    0.835920
  C     -1.296170    0.045070   -0.434770
  H      1.687550    0.045000    2.956340
  H     -0.722900    0.044890    2.397230
  H      3.207050    0.045200    0.858490
  H      1.426950    0.045260   -1.290400
  H     -1.070740    0.045150   -1.504290
  H     -1.877110   -0.850350   -0.188430
  H     -1.877160    0.940420   -0.188310

----------------------------
CARTESIAN COORDINATES (A.U.)
----------------------------
  NO LB      ZA    FRAG     MASS         X           Y           Z
   0 C     6.0000    0    12.011    2.370775    0.085359   -0.421768
   1 N     7.0000    0    14.007   -0.057296    0.085151    0.598457
   2 C     6.0000    0    12.011    0.141956    0.084981    3.147641
   3 N     7.0000    0    14.007    2.588660    0.085038    3.760574
   4 C     6.0000    0    12.011    4.018087    0.085302    1.579660
   5 C     6.0000    0    12.011   -2.449406    0.085170   -0.821596
   6 H     1.0000    0     1.008    3.189007    0.085038    5.586673
   7 H     1.0000    0     1.008   -1.366083    0.084830    4.530108
   8 H     1.0000    0     1.008    6.060446    0.085416    1.622311
   9 H     1.0000    0     1.008    2.696545    0.085529   -2.438502
  10 H     1.0000    0     1.008   -2.023405    0.085321   -2.842696
  11 H     1.0000    0     1.008   -3.547224   -1.606928   -0.356081
  12 H     1.0000    0     1.008   -3.547318    1.777136   -0.355854

--------------------------------
INTERNAL COORDINATES (ANGSTROEM)
--------------------------------
 C      0   0   0     0.000000000000     0.00000000     0.00000000
 N      1   0   0     1.393695369844     0.00000000     0.00000000
 C      2   1   0     1.353084399735   108.32179772     0.00000000
 N      3   2   1     1.334748789867   108.53328077     0.00000000
 C      1   2   3     1.371717669651   106.66557668     0.00000000
 C      2   1   3     1.472096498546   126.51376807   179.99868487
 H      4   3   2     1.017212078052   122.26270182   179.99636175
 H      3   2   1     1.082603475785   128.04311982   179.99889230
 H      5   1   2     1.081005643556   130.65306563   180.00017219
 H      1   2   3     1.081043611913   121.96705888   180.00028350
 H      6   2   1     1.093019445296   108.79269062     0.00000000
 H      6   2   1     1.095422966947   109.95192622   119.59178934
 H      6   2   1     1.095419259978   109.95165735   240.41174925

---------------------------
INTERNAL COORDINATES (A.U.)
---------------------------
 C      0   0   0     0.000000000000     0.00000000     0.00000000
 N      1   0   0     2.633702563119     0.00000000     0.00000000
 C      2   1   0     2.556958951580   108.32179772     0.00000000
 N      3   2   1     2.522309670432   108.53328077     0.00000000
 C      1   2   3     2.592170728702   106.66557668     0.00000000
 C      2   1   3     2.781859224955   126.51376807   179.99868487
 H      4   3   2     1.922252247634   122.26270182   179.99636175
 H      3   2   1     2.045824080865   128.04311982   179.99889230
 H      5   1   2     2.042804615544   130.65306563   180.00017219
 H      1   2   3     2.042876365341   121.96705888   180.00028350
 H      6   2   1     2.065507410661   108.79269062     0.00000000
 H      6   2   1     2.070049408338   109.95192622   119.59178934
 H      6   2   1     2.070042403180   109.95165735   240.41174925

---------------------
BASIS SET INFORMATION
---------------------
There are 3 groups of distinct atoms

 Group   1 Type C   : 8s4p1d contracted to 4s2p1d pattern {5111/31/1}
 Group   2 Type N   : 8s4p1d contracted to 4s2p1d pattern {5111/31/1}
 Group   3 Type H   : 4s contracted to 2s pattern {31}

Atom   0C    basis set group =>   1
Atom   1N    basis set group =>   2
Atom   2C    basis set group =>   1
Atom   3N    basis set group =>   2
Atom   4C    basis set group =>   1
Atom   5C    basis set group =>   1
Atom   6H    basis set group =>   3
Atom   7H    basis set group =>   3
Atom   8H    basis set group =>   3
Atom   9H    basis set group =>   3
Atom  10H    basis set group =>   3
Atom  11H    basis set group =>   3
Atom  12H    basis set group =>   3
---------------------------------
AUXILIARY/J BASIS SET INFORMATION
---------------------------------
There are 3 groups of distinct atoms

 Group   1 Type C   : 12s5p4d2f1g contracted to 6s4p3d1f1g pattern {711111/2111/211/2/1}
 Group   2 Type N   : 12s5p4d2f1g contracted to 6s4p3d1f1g pattern {711111/2111/211/2/1}
 Group   3 Type H   : 5s2p1d contracted to 3s1p1d pattern {311/2/1}

Atom   0C    basis set group =>   1
Atom   1N    basis set group =>   2
Atom   2C    basis set group =>   1
Atom   3N    basis set group =>   2
Atom   4C    basis set group =>   1
Atom   5C    basis set group =>   1
Atom   6H    basis set group =>   3
Atom   7H    basis set group =>   3
Atom   8H    basis set group =>   3
Atom   9H    basis set group =>   3
Atom  10H    basis set group =>   3
Atom  11H    basis set group =>   3
Atom  12H    basis set group =>   3


           ************************************************************
           *        Program running with 4 parallel MPI-processes     *
           *              working on a common directory               *
           ************************************************************
------------------------------------------------------------------------------
                           ORCA GTO INTEGRAL CALCULATION
                           -- RI-GTO INTEGRALS CHOSEN --
------------------------------------------------------------------------------
------------------------------------------------------------------------------
                   ___                                                        
                  /   \      - P O W E R E D   B Y -                         
                 /     \                                                     
                 |  |  |   _    _      __       _____    __    __             
                 |  |  |  | |  | |    /  \     |  _  \  |  |  /  |          
                  \  \/   | |  | |   /    \    | | | |  |  | /  /          
                 / \  \   | |__| |  /  /\  \   | |_| |  |  |/  /          
                |  |  |   |  __  | /  /__\  \  |    /   |      \           
                |  |  |   | |  | | |   __   |  |    \   |  |\   \          
                \     /   | |  | | |  |  |  |  | |\  \  |  | \   \       
                 \___/    |_|  |_| |__|  |__|  |_| \__\ |__|  \__/        
                                                                              
                      - O R C A' S   B I G   F R I E N D -                    
                                      &                                       
                       - I N T E G R A L  F E E D E R -                       
                                                                              
 v1 FN, 2020, v2 2021                                                         
------------------------------------------------------------------------------


Reading SHARK input file pbeh-3c.SHARKINP.tmp ... ok
----------------------
SHARK INTEGRAL PACKAGE
----------------------

Number of atoms                             ...     13
Number of basis functions                   ...    104
Number of shells                            ...     56
Maximum angular momentum                    ...      2
Integral batch strategy                     ... SHARK/LIBINT Hybrid
RI-J (if used) integral strategy            ... SPLIT-RIJ (Revised 2003 algorithm where possible)
Printlevel                                  ...      1
Contraction scheme used                     ... SEGMENTED contraction
Coulomb Range Separation                    ... NOT USED
Exchange Range Separation                   ... NOT USED
Finite Nucleus Model                        ... NOT USED
Auxiliary Coulomb fitting basis             ... AVAILABLE
   # of basis functions in Aux-J            ...    371
   # of shells in Aux-J                     ...    125
   Maximum angular momentum in Aux-J        ...      4
Auxiliary J/K fitting basis                 ... NOT available
Auxiliary Correlation fitting basis         ... NOT available
Auxiliary 'external' fitting basis          ... NOT available
Integral threshold                          ...     2.500000e-11
Primitive cut-off                           ...     2.500000e-12
Primitive pair pre-selection threshold      ...     2.500000e-12

Calculating pre-screening integrals         ... done (  0.1 sec) Dimension = 56
Organizing shell pair data                  ... done (  0.3 sec)
Shell pair information
Total number of shell pairs                 ...      1596
Shell pairs after pre-screening             ...      1518
Total number of primitive shell pairs       ...      5770
Primitive shell pairs kept                  ...      4101
          la=0 lb=0:    672 shell pairs
          la=1 lb=0:    454 shell pairs
          la=1 lb=1:     78 shell pairs
          la=2 lb=0:    221 shell pairs
          la=2 lb=1:     72 shell pairs
          la=2 lb=2:     21 shell pairs

Calculating one electron integrals          ... done (  0.0 sec)
Calculating RI/J V-Matrix + Cholesky decomp.... done (  0.7 sec)
Calculating Nuclear repulsion               ... done (  0.0 sec) ENN=    235.512545013446 Eh

SHARK setup successfully completed in   1.6 seconds

Maximum memory used throughout the entire GTOINT-calculation: 10.2 MB


           ************************************************************
           *        Program running with 4 parallel MPI-processes     *
           *              working on a common directory               *
           ************************************************************
-------------------------------------------------------------------------------
                                 ORCA SCF
-------------------------------------------------------------------------------

------------
SCF SETTINGS
------------
Hamiltonian:
 Density Functional     Method          .... DFT(GTOs)
 Exchange Functional    Exchange        .... PBE
   PBE kappa parameter   XKappa         ....  1.024500
   PBE mue parameter    XMuePBE         ....  0.123457
 Correlation Functional Correlation     .... PBE
   PBE beta parameter  CBetaPBE         ....  0.030000
 LDA part of GGA corr.  LDAOpt          .... PW91-LDA
 Gradients option       PostSCFGGA      .... off
 Hybrid DFT is turned on
   Fraction HF Exchange ScalHFX         ....  0.420000
   Scaling of DF-GGA-X  ScalDFX         ....  0.580000
   Scaling of DF-GGA-C  ScalDFC         ....  1.000000
   Scaling of DF-LDA-C  ScalLDAC        ....  1.000000
   Perturbative correction              ....  0.000000
   Density functional embedding theory  .... OFF
 RI-approximation to the Coulomb term is turned on
   Number of AuxJ basis functions       .... 371
   RIJ-ON(X) (HFX calculated with O(N)) .... on
   Number of AuxJ basis functions       .... 371
   RIJ-COSX (HFX calculated with COS-X)).... on


General Settings:
 Integral files         IntName         .... pbeh-3c
 Hartree-Fock type      HFTyp           .... RHF
 Total Charge           Charge          ....    1
 Multiplicity           Mult            ....    1
 Number of Electrons    NEL             ....   44
 Basis Dimension        Dim             ....  104
 Nuclear Repulsion      ENuc            ....    235.5125450134 Eh

Convergence Acceleration:
 DIIS                   CNVDIIS         .... on
   Start iteration      DIISMaxIt       ....    12
   Startup error        DIISStart       ....  0.200000
   # of expansion vecs  DIISMaxEq       ....     5
   Bias factor          DIISBfac        ....   1.050
   Max. coefficient     DIISMaxC        ....  10.000
 Trust-Rad. Augm. Hess. CNVTRAH         .... auto
   Auto Start mean grad. ratio tolernc. ....  1.125000
   Auto Start start iteration           ....    20
   Auto Start num. interpolation iter.  ....    10
   Max. Number of Micro iterations      ....    16
   Max. Number of Macro iterations      .... Maxiter - #DIIS iter
   Number of Davidson start vectors     ....     2
   Converg. threshold I  (grad. norm)   ....   1.000e-05
   Converg. threshold II (energy diff.) ....   1.000e-08
   Grad. Scal. Fac. for Micro threshold ....   0.100
   Minimum threshold for Micro iter.    ....   0.010
   NR start threshold (gradient norm)   ....   0.001
   Initial trust radius                 ....   0.400
   Minimum AH scaling param. (alpha)    ....   1.000
   Maximum AH scaling param. (alpha)    .... 1000.000
   Orbital update algorithm             .... Taylor
   White noise on init. David. guess    .... on
   Maximum white noise                  ....   0.010
   Quad. conv. algorithm                .... NR
   COSX micro iterations for RIJONX calc.... off
 SOSCF                  CNVSOSCF        .... on
   Start iteration      SOSCFMaxIt      ....   150
   Startup grad/error   SOSCFStart      ....  0.003300
 Level Shifting         CNVShift        .... on
   Level shift para.    LevelShift      ....    0.2500
   Turn off err/grad.   ShiftErr        ....    0.0010
 Zerner damping         CNVZerner       .... off
 Static damping         CNVDamp         .... on
   Fraction old density DampFac         ....    0.7000
   Max. Damping (<1)    DampMax         ....    0.9800
   Min. Damping (>=0)   DampMin         ....    0.0000
   Turn off err/grad.   DampErr         ....    0.1000
 Fernandez-Rico         CNVRico         .... off

SCF Procedure:
 Maximum # iterations   MaxIter         ....   125
 SCF integral mode      SCFMode         .... Direct
   Integral package                     .... SHARK and LIBINT hybrid scheme
 Reset frequency        DirectResetFreq ....    20
 Integral Threshold     Thresh          ....  2.500e-11 Eh
 Primitive CutOff       TCut            ....  2.500e-12 Eh

Convergence Tolerance:
 Convergence Check Mode ConvCheckMode   .... Total+1el-Energy
 Convergence forced     ConvForced      .... 0
 Energy Change          TolE            ....  1.000e-08 Eh
 1-El. energy change                    ....  1.000e-05 Eh
 Orbital Gradient       TolG            ....  1.000e-05
 Orbital Rotation angle TolX            ....  1.000e-05
 DIIS Error             TolErr          ....  5.000e-07


Diagonalization of the overlap matrix:
Smallest eigenvalue                        ... 1.820e-03
Time for diagonalization                   ...    0.002 sec
Threshold for overlap eigenvalues          ... 1.000e-08
Number of eigenvalues below threshold      ... 0
Time for construction of square roots      ...    0.004 sec
Total time needed                          ...    0.006 sec

--------------------------------
INITIAL GUESS: MINIMAL BASIS EHT
--------------------------------
The minimal basis has 37 functions
EHT matrix was diagonalized
Basis set overlap was calculated now projecting the orbitals
Using GuessMode=FMatrix for the initial guess
C*T matrix was formed
Effective Fockian was calculated
Effective Fockian was diagonalized
Initial density was built
                      ------------------
                      INITIAL GUESS DONE
                      ------------------
-------------------
DFT GRID GENERATION
-------------------

General Integration Accuracy     IntAcc      ... 4.959
Radial Grid Type                 RadialGrid  ... OptM3 with GC (2021)
Angular Grid (max. ang.)         AngularGrid ... 6 (Lebedev-590)
Angular grid pruning method      GridPruning ... 4 (adaptive)
Weight generation scheme         WeightScheme... Becke
Basis function cutoff            BFCut       ... 1.0000e-11
Integration weight cutoff        WCut        ... 1.0000e-14
Angular grids for H and He will be reduced by one unit
Partially contracted basis set               ... off
Rotationally invariant grid construction     ... off

Total number of grid points                  ...   147437
Total number of batches                      ...     2311
Average number of points per batch           ...       63
Average number of grid points per atom       ...    11341
Time for grid setup =    2.607 sec

--------------------
COSX GRID GENERATION
--------------------

GRIDX 1
-------
General Integration Accuracy     IntAcc      ... 4.020
Radial Grid Type                 RadialGrid  ... OptM3 with GC (2021)
Angular Grid (max. ang.)         AngularGrid ... 2 (Lebedev-110)
Angular grid pruning method      GridPruning ... 4 (adaptive)
Weight generation scheme         WeightScheme... Becke
Basis function cutoff            BFCut       ... 1.0000e-11
Integration weight cutoff        WCut        ... 1.0000e-14
Angular grids for H and He will be reduced by one unit
Partially contracted basis set               ... on
Rotationally invariant grid construction     ... off

Total number of grid points                  ...    16267
Total number of batches                      ...      264
Average number of points per batch           ...       61
Average number of grid points per atom       ...     1251
UseSFitting                                  ... on

GRIDX 2
-------
General Integration Accuracy     IntAcc      ... 4.338
Radial Grid Type                 RadialGrid  ... OptM3 with GC (2021)
Angular Grid (max. ang.)         AngularGrid ... 3 (Lebedev-194)
Angular grid pruning method      GridPruning ... 4 (adaptive)
Weight generation scheme         WeightScheme... Becke
Basis function cutoff            BFCut       ... 1.0000e-11
Integration weight cutoff        WCut        ... 1.0000e-14
Angular grids for H and He will be reduced by one unit
Partially contracted basis set               ... on
Rotationally invariant grid construction     ... off

Total number of grid points                  ...    35760
Total number of batches                      ...      566
Average number of points per batch           ...       63
Average number of grid points per atom       ...     2751
UseSFitting                                  ... on

GRIDX 3
-------
General Integration Accuracy     IntAcc      ... 4.871
Radial Grid Type                 RadialGrid  ... OptM3 with GC (2021)
Angular Grid (max. ang.)         AngularGrid ... 4 (Lebedev-302)
Angular grid pruning method      GridPruning ... 4 (adaptive)
Weight generation scheme         WeightScheme... Becke
Basis function cutoff            BFCut       ... 1.0000e-11
Integration weight cutoff        WCut        ... 1.0000e-14
Angular grids for H and He will be reduced by one unit
Partially contracted basis set               ... on
Rotationally invariant grid construction     ... off

Total number of grid points                  ...    69057
Total number of batches                      ...     1086
Average number of points per batch           ...       63
Average number of grid points per atom       ...     5312
UseSFitting                                  ... on

Time for X-Grid setup             =    3.126 sec

--------------
SCF ITERATIONS
--------------
ITER       Energy         Delta-E        Max-DP      RMS-DP      [F,P]     Damp
               ***  Starting incremental Fock matrix formation  ***
  0   -264.7551759132   0.000000000000 0.08038338  0.00393855  0.3833821 0.7000
  1   -264.9340438621  -0.178867948911 0.05967548  0.00291915  0.2733330 0.7000
                               ***Turning on DIIS***
  2   -265.0535643135  -0.119520451365 0.04152794  0.00211087  0.1953748 0.7000
  3   -265.1366453269  -0.083081013381 0.03338140  0.00163895  0.1391573 0.7000
  4   -265.1955985331  -0.058953206223 0.08073902  0.00407463  0.0973854 0.0000
  5   -265.3374899611  -0.141891428021 0.00581141  0.00021335  0.0051535 0.0000
                      *** Initiating the SOSCF procedure ***
                           *** Shutting down DIIS ***
                      *** Re-Reading the Fockian *** 
                      *** Removing any level shift *** 
ITER      Energy       Delta-E        Grad      Rot      Max-DP    RMS-DP
  6   -265.33764018  -0.0001502232  0.001177  0.001177  0.002140  0.000074
               *** Restarting incremental Fock matrix formation ***
  7   -265.33767781  -0.0000376212  0.000524  0.000851  0.001080  0.000038
  8   -265.33768104  -0.0000032333  0.000098  0.000412  0.000344  0.000018
  9   -265.33768137  -0.0000003277  0.000064  0.000099  0.000189  0.000006
 10   -265.33768149  -0.0000001279  0.000028  0.000042  0.000083  0.000003
 11   -265.33768150  -0.0000000042  0.000015  0.000022  0.000038  0.000001
 12   -265.33768151  -0.0000000097  0.000004  0.000009  0.000019  0.000001
 13   -265.33768151  -0.0000000043  0.000004  0.000004  0.000010  0.000000
                 **** Energy Check signals convergence ****
              ***Rediagonalizing the Fockian in SOSCF/NRSCF***

               *****************************************************
               *                     SUCCESS                       *
               *           SCF CONVERGED AFTER  14 CYCLES          *
               *****************************************************

Old exchange energy                            =    -15.170733747 Eh
New exchange energy                            =    -15.170729793 Eh
Exchange energy change after final integration =      0.000003954 Eh
Total energy after final integration           =   -265.337677555 Eh
Final COS-X integration done in                =     2.201 sec

----------------
TOTAL SCF ENERGY
----------------

Total Energy       :         -265.33767755 Eh           -7220.20527 eV

Components:
Nuclear Repulsion  :          235.51254501 Eh            6408.62216 eV
Electronic Energy  :         -500.85022257 Eh          -13628.82743 eV
One Electron Energy:         -814.38382826 Eh          -22160.51059 eV
Two Electron Energy:          313.53360569 Eh            8531.68315 eV
Max COSX asymmetry :            0.00000095 Eh               0.00003 eV

Virial components:
Potential Energy   :         -528.39432659 Eh          -14378.34061 eV
Kinetic Energy     :          263.05664904 Eh            7158.13533 eV
Virial Ratio       :            2.00867124


DFT components:
N(Alpha)           :       21.999998729192 electrons
N(Beta)            :       21.999998729192 electrons
N(Total)           :       43.999997458385 electrons
E(X)               :      -20.169750511807 Eh       
E(C)               :       -1.916498227785 Eh       
E(XC)              :      -22.086248739592 Eh       
DFET-embed. en.    :        0.000000000000 Eh       

---------------
SCF CONVERGENCE
---------------

  Last Energy change         ...    3.8957e-09  Tolerance :   1.0000e-08
  Last MAX-Density change    ...    1.2212e-15  Tolerance :   1.0000e-07
  Last RMS-Density change    ...    4.5307e-17  Tolerance :   5.0000e-09
  Last Orbital Gradient      ...    3.3468e-07  Tolerance :   1.0000e-05
  Last Orbital Rotation      ...    1.0903e-06  Tolerance :   1.0000e-05

             **** THE GBW FILE WAS UPDATED (pbeh-3c.gbw) ****
             **** DENSITY pbeh-3c.scfp WAS UPDATED ****
             **** ENERGY FILE WAS UPDATED (pbeh-3c.en.tmp) ****
             **** THE GBW FILE WAS UPDATED (pbeh-3c.gbw) ****
             **** DENSITY pbeh-3c.scfp WAS UPDATED ****
----------------
ORBITAL ENERGIES
----------------

  NO   OCC          E(Eh)            E(eV) 
   0   2.0000     -14.926170      -406.1617 
   1   2.0000     -14.920585      -406.0098 
   2   2.0000     -10.738286      -292.2036 
   3   2.0000     -10.684371      -290.7365 
   4   2.0000     -10.683360      -290.7090 
   5   2.0000     -10.659160      -290.0505 
   6   2.0000      -1.362981       -37.0886 
   7   2.0000      -1.231693       -33.5161 
   8   2.0000      -1.065467       -28.9928 
   9   2.0000      -1.010729       -27.5033 
  10   2.0000      -0.912621       -24.8337 
  11   2.0000      -0.879021       -23.9194 
  12   2.0000      -0.846234       -23.0272 
  13   2.0000      -0.744982       -20.2720 
  14   2.0000      -0.739388       -20.1198 
  15   2.0000      -0.714245       -19.4356 
  16   2.0000      -0.706875       -19.2350 
  17   2.0000      -0.688958       -18.7475 
  18   2.0000      -0.662422       -18.0254 
  19   2.0000      -0.637440       -17.3456 
  20   2.0000      -0.553405       -15.0589 
  21   2.0000      -0.487413       -13.2632 
  22   0.0000      -0.176654        -4.8070 
  23   0.0000      -0.129909        -3.5350 
  24   0.0000      -0.066580        -1.8117 
  25   0.0000      -0.029742        -0.8093 
  26   0.0000      -0.011013        -0.2997 
  27   0.0000       0.005721         0.1557 
  28   0.0000       0.014506         0.3947 
  29   0.0000       0.027909         0.7594 
  30   0.0000       0.046527         1.2661 
  31   0.0000       0.055078         1.4987 
  32   0.0000       0.067680         1.8417 
  33   0.0000       0.095650         2.6028 
  34   0.0000       0.139627         3.7994 
  35   0.0000       0.173031         4.7084 
  36   0.0000       0.279066         7.5938 
  37   0.0000       0.288521         7.8510 
  38   0.0000       0.305980         8.3261 
  39   0.0000       0.320690         8.7264 
  40   0.0000       0.361276         9.8308 
  41   0.0000       0.365666         9.9503 
  42   0.0000       0.375755        10.2248 
  43   0.0000       0.397207        10.8086 
  44   0.0000       0.419118        11.4048 
  45   0.0000       0.458403        12.4738 
  46   0.0000       0.473734        12.8909 
  47   0.0000       0.519861        14.1461 
  48   0.0000       0.566509        15.4155 
  49   0.0000       0.630684        17.1618 
  50   0.0000       0.654605        17.8127 
  51   0.0000       0.674125        18.3439 
  52   0.0000       0.733105        19.9488 
  53   0.0000       0.761212        20.7136 
  54   0.0000       0.771494        20.9934 
  55   0.0000       0.778288        21.1783 
  56   0.0000       0.815123        22.1806 
  57   0.0000       0.828982        22.5578 
  58   0.0000       0.858536        23.3620 
  59   0.0000       0.868649        23.6372 
  60   0.0000       0.907171        24.6854 
  61   0.0000       0.992078        26.9958 
  62   0.0000       1.011427        27.5223 
  63   0.0000       1.054946        28.7065 
  64   0.0000       1.098761        29.8988 
  65   0.0000       1.141914        31.0730 
  66   0.0000       1.175763        31.9941 
  67   0.0000       1.197751        32.5925 
  68   0.0000       1.257006        34.2049 
  69   0.0000       1.310737        35.6670 
  70   0.0000       1.370037        37.2806 
  71   0.0000       1.440333        39.1934 
  72   0.0000       1.492247        40.6061 
  73   0.0000       1.659866        45.1672 
  74   0.0000       1.702853        46.3370 
  75   0.0000       1.781759        48.4841 
  76   0.0000       1.802981        49.0616 
  77   0.0000       1.862577        50.6833 
  78   0.0000       1.878227        51.1092 
  79   0.0000       1.912536        52.0428 
  80   0.0000       1.975264        53.7497 
  81   0.0000       1.994412        54.2707 
  82   0.0000       2.059812        56.0503 
  83   0.0000       2.070821        56.3499 
  84   0.0000       2.109498        57.4024 
  85   0.0000       2.116830        57.6019 
  86   0.0000       2.176204        59.2175 
  87   0.0000       2.179819        59.3159 
  88   0.0000       2.228030        60.6278 
  89   0.0000       2.315808        63.0163 
  90   0.0000       2.414188        65.6934 
  91   0.0000       2.426595        66.0310 
  92   0.0000       2.510276        68.3081 
  93   0.0000       2.564041        69.7711 
  94   0.0000       2.606003        70.9130 
  95   0.0000       2.818667        76.6998 
  96   0.0000       2.928694        79.6938 
  97   0.0000       2.965178        80.6866 
  98   0.0000      13.329423       362.7120 
  99   0.0000      13.516792       367.8106 
 100   0.0000      13.603709       370.1757 
 101   0.0000      13.870430       377.4336 
 102   0.0000      19.008493       517.2474 
 103   0.0000      19.151093       521.1277 

                    ********************************
                    * MULLIKEN POPULATION ANALYSIS *
                    ********************************

-----------------------
MULLIKEN ATOMIC CHARGES
-----------------------
   0 C :   -0.049394
   1 N :   -0.419041
   2 C :    0.276273
   3 N :   -0.565167
   4 C :   -0.033743
   5 C :   -0.516635
   6 H :    0.437907
   7 H :    0.342088
   8 H :    0.329256
   9 H :    0.329002
  10 H :    0.286018
  11 H :    0.291719
  12 H :    0.291719
Sum of atomic charges:    1.0000000

--------------------------------
MULLIKEN REDUCED ORBITAL CHARGES
--------------------------------
  0 C s       :     3.175852  s :     3.175852
      pz      :     1.082982  p :     2.821751
      px      :     0.716897
      py      :     1.021872
      dz2     :     0.013930  d :     0.051792
      dxz     :     0.015575
      dyz     :     0.004667
      dx2y2   :     0.008119
      dxy     :     0.009500
  1 N s       :     3.543914  s :     3.543914
      pz      :     1.155634  p :     3.825342
      px      :     1.206123
      py      :     1.463585
      dz2     :     0.012995  d :     0.049785
      dxz     :     0.011560
      dyz     :     0.009187
      dx2y2   :     0.007149
      dxy     :     0.008895
  2 C s       :     3.075482  s :     3.075482
      pz      :     0.820940  p :     2.575199
      px      :     0.833919
      py      :     0.920339
      dz2     :     0.020324  d :     0.073046
      dxz     :     0.020421
      dyz     :     0.011442
      dx2y2   :     0.010595
      dxy     :     0.010264
  3 N s       :     3.579513  s :     3.579513
      pz      :     1.278760  p :     3.943035
      px      :     1.163821
      py      :     1.500454
      dz2     :     0.013422  d :     0.042619
      dxz     :     0.010118
      dyz     :     0.004162
      dx2y2   :     0.005174
      dxy     :     0.009742
  4 C s       :     3.173332  s :     3.173332
      pz      :     0.751545  p :     2.807125
      px      :     1.038442
      py      :     1.017138
      dz2     :     0.011798  d :     0.053286
      dxz     :     0.018722
      dyz     :     0.009934
      dx2y2   :     0.008005
      dxy     :     0.004827
  5 C s       :     3.385839  s :     3.385839
      pz      :     1.068398  p :     3.084288
      px      :     0.826951
      py      :     1.188939
      dz2     :     0.010589  d :     0.046508
      dxz     :     0.011283
      dyz     :     0.002982
      dx2y2   :     0.008664
      dxy     :     0.012990
  6 H s       :     0.562093  s :     0.562093
  7 H s       :     0.657912  s :     0.657912
  8 H s       :     0.670744  s :     0.670744
  9 H s       :     0.670998  s :     0.670998
 10 H s       :     0.713982  s :     0.713982
 11 H s       :     0.708281  s :     0.708281
 12 H s       :     0.708281  s :     0.708281


                     *******************************
                     * LOEWDIN POPULATION ANALYSIS *
                     *******************************

----------------------
LOEWDIN ATOMIC CHARGES
----------------------
   0 C :   -0.057202
   1 N :    0.009258
   2 C :    0.055176
   3 N :   -0.069644
   4 C :   -0.060817
   5 C :   -0.232682
   6 H :    0.309877
   7 H :    0.184216
   8 H :    0.183100
   9 H :    0.182789
  10 H :    0.166419
  11 H :    0.164755
  12 H :    0.164754

-------------------------------
LOEWDIN REDUCED ORBITAL CHARGES
-------------------------------
  0 C s       :     2.899996  s :     2.899996
      pz      :     1.103539  p :     3.044709
      px      :     0.914073
      py      :     1.027097
      dz2     :     0.027598  d :     0.112497
      dxz     :     0.038637
      dyz     :     0.006460
      dx2y2   :     0.019670
      dxy     :     0.020132
  1 N s       :     3.062887  s :     3.062887
      pz      :     1.200830  p :     3.812033
      px      :     1.215035
      py      :     1.396167
      dz2     :     0.034316  d :     0.115821
      dxz     :     0.032037
      dyz     :     0.018550
      dx2y2   :     0.014772
      dxy     :     0.016148
  2 C s       :     2.876989  s :     2.876989
      pz      :     0.967339  p :     2.912457
      px      :     0.994654
      py      :     0.950464
      dz2     :     0.046615  d :     0.155378
      dxz     :     0.044399
      dyz     :     0.022202
      dx2y2   :     0.022823
      dxy     :     0.019338
  3 N s       :     3.084906  s :     3.084906
      pz      :     1.225247  p :     3.888339
      px      :     1.218775
      py      :     1.444317
      dz2     :     0.028443  d :     0.096398
      dxz     :     0.028070
      dyz     :     0.006628
      dx2y2   :     0.013139
      dxy     :     0.020118
  4 C s       :     2.896250  s :     2.896250
      pz      :     0.944546  p :     3.048766
      px      :     1.081773
      py      :     1.022446
      dz2     :     0.029331  d :     0.115801
      dxz     :     0.045813
      dyz     :     0.021027
      dx2y2   :     0.012870
      dxy     :     0.006760
  5 C s       :     2.955186  s :     2.955186
      pz      :     1.084617  p :     3.188592
      px      :     0.931336
      py      :     1.172640
      dz2     :     0.019289  d :     0.088904
      dxz     :     0.023387
      dyz     :     0.004447
      dx2y2   :     0.017237
      dxy     :     0.024544
  6 H s       :     0.690123  s :     0.690123
  7 H s       :     0.815784  s :     0.815784
  8 H s       :     0.816900  s :     0.816900
  9 H s       :     0.817211  s :     0.817211
 10 H s       :     0.833581  s :     0.833581
 11 H s       :     0.835245  s :     0.835245
 12 H s       :     0.835246  s :     0.835246


                      *****************************
                      * MAYER POPULATION ANALYSIS *
                      *****************************

  NA   - Mulliken gross atomic population
  ZA   - Total nuclear charge
  QA   - Mulliken gross atomic charge
  VA   - Mayer's total valence
  BVA  - Mayer's bonded valence
  FA   - Mayer's free valence

  ATOM       NA         ZA         QA         VA         BVA        FA
  0 C      6.0494     6.0000    -0.0494     3.7174     3.7174     0.0000
  1 N      7.4190     7.0000    -0.4190     3.4040     3.4040     0.0000
  2 C      5.7237     6.0000     0.2763     3.5212     3.5212    -0.0000
  3 N      7.5652     7.0000    -0.5652     3.3186     3.3186     0.0000
  4 C      6.0337     6.0000    -0.0337     3.6957     3.6957     0.0000
  5 C      6.5166     6.0000    -0.5166     3.5455     3.5455    -0.0000
  6 H      0.5621     1.0000     0.4379     0.7930     0.7930    -0.0000
  7 H      0.6579     1.0000     0.3421     0.8557     0.8557    -0.0000
  8 H      0.6707     1.0000     0.3293     0.8664     0.8664     0.0000
  9 H      0.6710     1.0000     0.3290     0.8669     0.8669    -0.0000
 10 H      0.7140     1.0000     0.2860     0.8934     0.8934    -0.0000
 11 H      0.7083     1.0000     0.2917     0.8811     0.8811     0.0000
 12 H      0.7083     1.0000     0.2917     0.8811     0.8811    -0.0000

  Mayer bond orders larger than 0.100000
B(  0-C ,  1-N ) :   1.1405 B(  0-C ,  4-C ) :   1.6384 B(  0-C ,  9-H ) :   0.8662 
B(  1-N ,  2-C ) :   1.3085 B(  1-N ,  5-C ) :   0.8616 B(  2-C ,  3-N ) :   1.2914 
B(  2-C ,  7-H ) :   0.8610 B(  3-N ,  4-C ) :   1.1251 B(  3-N ,  6-H ) :   0.7779 
B(  4-C ,  8-H ) :   0.8696 B(  5-C , 10-H ) :   0.9006 B(  5-C , 11-H ) :   0.8897 
B(  5-C , 12-H ) :   0.8897 

-------
TIMINGS
-------

Total SCF time: 0 days 0 hours 1 min 6 sec 

Total time                  ....      66.857 sec
Sum of individual times     ....      61.894 sec  ( 92.6%)

Fock matrix formation       ....      52.415 sec  ( 78.4%)
  Split-RI-J                ....       5.557 sec  ( 10.6% of F)
  Chain of spheres X        ....      19.229 sec  ( 36.7% of F)
  XC integration            ....      14.542 sec  ( 27.7% of F)
    Basis function eval.    ....       2.541 sec  ( 17.5% of XC)
    Density eval.           ....       1.424 sec  (  9.8% of XC)
    XC-Functional eval.     ....       1.150 sec  (  7.9% of XC)
    XC-Potential eval.      ....       1.141 sec  (  7.8% of XC)
Diagonalization             ....       0.807 sec  (  1.2%)
Density matrix formation    ....       0.009 sec  (  0.0%)
Population analysis         ....       0.261 sec  (  0.4%)
Initial guess               ....       0.077 sec  (  0.1%)
Orbital Transformation      ....       0.000 sec  (  0.0%)
Orbital Orthonormalization  ....       0.000 sec  (  0.0%)
DIIS solution               ....       1.374 sec  (  2.1%)
SOSCF solution              ....       1.219 sec  (  1.8%)
Grid generation             ....       5.732 sec  (  8.6%)

Maximum memory used throughout the entire SCF-calculation: 51.3 MB


-------------------------------------------------------------------------------
                          DFT DISPERSION CORRECTION                            
                                                                               
                              DFTD3 V3.1  Rev 1                                
                          USING Becke-Johnson damping                          
-------------------------------------------------------------------------------
The PBEh-3c composite method is recognized
Using three-body term ABC
Active option DFTDOPT                   ...         4   

molecular C6(AA) [au] = 1527.035019 


            DFT-D V3
 parameters
 s6 scaling factor         :     1.0000 
 a1 scaling factor         :     0.4860 
 s8 scaling factor         :     0.0000 
 a2 scaling factor         :     4.5000 
 Damping factor alpha9(ATM):    16.0000 
 ad hoc parameters k1-k3   :    16.0000     1.3333    -4.0000 

 Edisp/kcal,au: -3.598287272577  -0.005734235159 
 E6   /kcal   :  -3.604519567 
 E8   /kcal   :  -0.000000000 
 E6(ABC)      :   0.006232294 
 % E8         :   0.000000000 
 % E6(ABC)    :  -0.173201692 

-------------------------   ----------------
Dispersion correction           -0.005734235
-------------------------   ----------------

------------------   -----------------
gCP correction             0.022336634
------------------   -----------------

-------------------------   --------------------
FINAL SINGLE POINT ENERGY      -265.321075156187
-------------------------   --------------------


                            ***************************************
                            *     ORCA property calculations      *
                            ***************************************

                                    ---------------------
                                    Active property flags
                                    ---------------------
   (+) Dipole Moment


------------------------------------------------------------------------------
                       ORCA ELECTRIC PROPERTIES CALCULATION
------------------------------------------------------------------------------

Dipole Moment Calculation                       ... on
Quadrupole Moment Calculation                   ... off
Polarizability Calculation                      ... off
GBWName                                         ... pbeh-3c.gbw
Electron density                                ... pbeh-3c.scfp
The origin for moment calculation is the CENTER OF MASS  = ( 1.034150,  0.085165  1.307775)

-------------
DIPOLE MOMENT
-------------
                                X             Y             Z
Electronic contribution:      2.74638      -0.00009       2.29187
Nuclear contribution   :     -2.86675       0.00009      -1.68709
                        -----------------------------------------
Total Dipole Moment    :     -0.12037       0.00000       0.60477
                        -----------------------------------------
Magnitude (a.u.)       :      0.61663
Magnitude (Debye)      :      1.56736



--------------------
Rotational spectrum 
--------------------
 
Rotational constants in cm-1:     0.291109     0.116027     0.084302 
Rotational constants in MHz :  8727.214860  3478.389516  2527.312324 

 Dipole components along the rotational axes: 
x,y,z [a.u.] :    -0.219866     0.576105    -0.000055 
x,y,z [Debye]:    -0.558856     1.464343    -0.000140 

 

Timings for individual modules:

Sum of individual times         ...       69.771 sec (=   1.163 min)
GTO integral calculation        ...        2.166 sec (=   0.036 min)   3.1 %
SCF iterations                  ...       67.605 sec (=   1.127 min)  96.9 %
                             ****ORCA TERMINATED NORMALLY****
TOTAL RUN TIME: 0 days 0 hours 1 minutes 11 seconds 755 msec
