
                                 *****************
                                 * O   R   C   A *
                                 *****************

                                            #,                                       
                                            ###                                      
                                            ####                                     
                                            #####                                    
                                            ######                                   
                                           ########,                                 
                                     ,,################,,,,,                         
                               ,,#################################,,                 
                          ,,##########################################,,             
                       ,#########################################, ''#####,          
                    ,#############################################,,   '####,        
                  ,##################################################,,,,####,       
                ,###########''''           ''''###############################       
              ,#####''   ,,,,##########,,,,          '''####'''          '####       
            ,##' ,,,,###########################,,,                        '##       
           ' ,,###''''                  '''############,,,                           
         ,,##''                                '''############,,,,        ,,,,,,###''
      ,#''                                            '''#######################'''  
     '                                                          ''''####''''         
             ,#######,   #######,   ,#######,      ##                                
            ,#'     '#,  ##    ##  ,#'     '#,    #''#        ######   ,####,        
            ##       ##  ##   ,#'  ##            #'  '#       #        #'  '#        
            ##       ##  #######   ##           ,######,      #####,   #    #        
            '#,     ,#'  ##    ##  '#,     ,#' ,#      #,         ##   #,  ,#        
             '#######'   ##     ##  '#######'  #'      '#     #####' # '####'        



                  #######################################################
                  #                        -***-                        #
                  #          Department of theory and spectroscopy      #
                  #    Directorship and core code : Frank Neese         #
                  #        Max Planck Institute fuer Kohlenforschung    #
                  #                Kaiser Wilhelm Platz 1               #
                  #                 D-45470 Muelheim/Ruhr               #
                  #                      Germany                        #
                  #                                                     #
                  #                  All rights reserved                #
                  #                        -***-                        #
                  #######################################################


                         Program Version 5.0.3 -  RELEASE  -


 With contributions from (in alphabetic order):
   Daniel Aravena         : Magnetic Suceptibility
   Michael Atanasov       : Ab Initio Ligand Field Theory (pilot matlab implementation)
   Alexander A. Auer      : GIAO ZORA, VPT2 properties, NMR spectrum
   Ute Becker             : Parallelization
   Giovanni Bistoni       : ED, misc. LED, open-shell LED, HFLD
   Martin Brehm           : Molecular dynamics
   Dmytro Bykov           : SCF Hessian
   Vijay G. Chilkuri      : MRCI spin determinant printing, contributions to CSF-ICE
   Dipayan Datta          : RHF DLPNO-CCSD density
   Achintya Kumar Dutta   : EOM-CC, STEOM-CC
   Dmitry Ganyushin       : Spin-Orbit,Spin-Spin,Magnetic field MRCI
   Miquel Garcia          : C-PCM and meta-GGA Hessian, CC/C-PCM, Gaussian charge scheme
   Yang Guo               : DLPNO-NEVPT2, F12-NEVPT2, CIM, IAO-localization
   Andreas Hansen         : Spin unrestricted coupled pair/coupled cluster methods
   Benjamin Helmich-Paris : MC-RPA, TRAH-SCF, COSX integrals
   Lee Huntington         : MR-EOM, pCC
   Robert Izsak           : Overlap fitted RIJCOSX, COSX-SCS-MP3, EOM
   Marcus Kettner         : VPT2
   Christian Kollmar      : KDIIS, OOCD, Brueckner-CCSD(T), CCSD density, CASPT2, CASPT2-K
   Simone Kossmann        : Meta GGA functionals, TD-DFT gradient, OOMP2, MP2 Hessian
   Martin Krupicka        : Initial AUTO-CI
   Lucas Lang             : DCDCAS
   Marvin Lechner         : AUTO-CI (C++ implementation), FIC-MRCC
   Dagmar Lenk            : GEPOL surface, SMD
   Dimitrios Liakos       : Extrapolation schemes; Compound Job, initial MDCI parallelization
   Dimitrios Manganas     : Further ROCIS development; embedding schemes
   Dimitrios Pantazis     : SARC Basis sets
   Anastasios Papadopoulos: AUTO-CI, single reference methods and gradients
   Taras Petrenko         : DFT Hessian,TD-DFT gradient, ASA, ECA, R-Raman, ABS, FL, XAS/XES, NRVS
   Peter Pinski           : DLPNO-MP2, DLPNO-MP2 Gradient
   Christoph Reimann      : Effective Core Potentials
   Marius Retegan         : Local ZFS, SOC
   Christoph Riplinger    : Optimizer, TS searches, QM/MM, DLPNO-CCSD(T), (RO)-DLPNO pert. Triples
   Tobias Risthaus        : Range-separated hybrids, TD-DFT gradient, RPA, STAB
   Michael Roemelt        : Original ROCIS implementation
   Masaaki Saitow         : Open-shell DLPNO-CCSD energy and density
   Barbara Sandhoefer     : DKH picture change effects
   Avijit Sen             : IP-ROCIS
   Kantharuban Sivalingam : CASSCF convergence, NEVPT2, FIC-MRCI
   Bernardo de Souza      : ESD, SOC TD-DFT
   Georgi Stoychev        : AutoAux, RI-MP2 NMR, DLPNO-MP2 response
   Willem Van den Heuvel  : Paramagnetic NMR
   Boris Wezisla          : Elementary symmetry handling
   Frank Wennmohs         : Technical directorship


 We gratefully acknowledge several colleagues who have allowed us to
 interface, adapt or use parts of their codes:
   Stefan Grimme, W. Hujo, H. Kruse, P. Pracht,  : VdW corrections, initial TS optimization,
                  C. Bannwarth, S. Ehlert          DFT functionals, gCP, sTDA/sTD-DF
   Ed Valeev, F. Pavosevic, A. Kumar             : LibInt (2-el integral package), F12 methods
   Garnet Chan, S. Sharma, J. Yang, R. Olivares  : DMRG
   Ulf Ekstrom                                   : XCFun DFT Library
   Mihaly Kallay                                 : mrcc  (arbitrary order and MRCC methods)
   Jiri Pittner, Ondrej Demel                    : Mk-CCSD
   Frank Weinhold                                : gennbo (NPA and NBO analysis)
   Christopher J. Cramer and Donald G. Truhlar   : smd solvation model
   Lars Goerigk                                  : TD-DFT with DH, B97 family of functionals
   V. Asgeirsson, H. Jonsson                     : NEB implementation
   FAccTs GmbH                                   : IRC, NEB, NEB-TS, DLPNO-Multilevel, CI-OPT
                                                   MM, QMMM, 2- and 3-layer-ONIOM, Crystal-QMMM,
                                                   LR-CPCM, SF, NACMEs, symmetry and pop. for TD-DFT,
                                                   nearIR, NL-DFT gradient (VV10), updates on ESD,
                                                   ML-optimized integration grids
   S Lehtola, MJT Oliveira, MAL Marques          : LibXC Library
   Liviu Ungur et al                             : ANISO software


 Your calculation uses the libint2 library for the computation of 2-el integrals
 For citations please refer to: http://libint.valeyev.net

 Your ORCA version has been built with support for libXC version: 5.1.0
 For citations please refer to: https://tddft.org/programs/libxc/

 This ORCA versions uses:
   CBLAS   interface :  Fast vector & matrix operations
   LAPACKE interface :  Fast linear algebra routines
   SCALAPACK package :  Parallel linear algebra routines
   Shared memory     :  Shared parallel matrices
   BLAS/LAPACK       :  OpenBLAS 0.3.15  USE64BITINT DYNAMIC_ARCH NO_AFFINITY Haswell SINGLE_THREADED
        Core in use  :  Haswell
   Copyright (c) 2011-2014, The OpenBLAS Project




***************************************
The coordinates will be read from file: 224.xyz
***************************************


Your calculation utilizes the geometrical counterpoise correction gCP
Please cite in your paper:
H.Kruse, S. Grimme J.Chem.Phys., 136, (2012), 154101 
   

Your calculation utilizes the atom-pairwise dispersion correction
with the Becke-Johnson damping scheme (D3BJ)
Cite in your paper:
S.Grimme, S.Ehrlich, L.Goerigk, J Comput Chem, (2011), 32, 1456–1465 
S.Grimme, J.Antony, S.Ehrlich and H.Krieg, J.Chem.Phys., 132, (2010), 154104 
   

Your calculation employs the composite approach PBEh-3c.
Please cite in your paper:
S. Grimme, J. G. Brandenburg, C. Bannwarth, A. Hansen J.Chem.Phys., 143, (2015), 054107 
   

================================================================================

----- Orbital basis set information -----
Your calculation utilizes the basis: def2-mSVP

----- AuxJ basis set information -----
Your calculation utilizes the auxiliary basis: def2/J
   F. Weigend, Phys. Chem. Chem. Phys. 8, 1057 (2006).

================================================================================
                                        WARNINGS
                       Please study these warnings very carefully!
================================================================================


INFO   : the flag for use of the SHARK integral package has been found!

================================================================================
                                       INPUT FILE
================================================================================
NAME = pbeh-3c.inp
|  1> ! PBEh-3c def2/J TightSCF DefGrid3
|  2> 
|  3> %maxcore 60000
|  4> 
|  5> %pal
|  6> nprocs 4
|  7> end
|  8> 
|  9> *xyzfile 0 1 224.xyz
| 10> 
| 11>                          ****END OF INPUT****
================================================================================

                       ****************************
                       * Single Point Calculation *
                       ****************************

---------------------------------
CARTESIAN COORDINATES (ANGSTROEM)
---------------------------------
  O      3.625459   -1.215432    1.593730
  C      3.479459   -0.444432    0.672730
  O      3.552459   -0.835432   -0.602270
  H      3.323459   -0.067432   -1.182270
  C      3.210459    1.041568    0.880730
  H      3.998459    1.614568    0.387730
  H      3.235460    1.236568    1.946730
  N      1.921460    1.469568    0.366730
  H      1.173460    1.759568    0.996730
  C      1.695459    1.603568   -0.946270
  O      2.515459    1.281568   -1.818270
  C      0.362459    2.241568   -1.314270
  H      0.316460    2.276568   -2.397270
  H      0.352459    3.259568   -0.921270
  N     -0.806540    1.545568   -0.819270
  H     -1.394540    1.002568   -1.437270
  C     -1.220541    1.625568    0.456730
  O     -0.577541    2.185568    1.352730
  C     -2.549541    0.951568    0.747730
  N     -3.323541    0.792568   -0.481270
  H     -3.707541    1.687568   -0.765270
  H     -4.116541    0.185568   -0.307270
  H     -3.034541    1.582568    1.497730
  C     -2.282541   -0.417432    1.398730
  H     -1.821541   -0.232432    2.369730
  H     -3.251541   -0.888432    1.584730
  C     -1.402540   -1.323432    0.585730
  C     -0.059541   -1.500432    0.938730
  H      0.330459   -1.003432    1.818730
  C      0.776459   -2.327432    0.189730
  H      1.803459   -2.469432    0.491730
  C      0.279460   -2.975432   -0.939270
  H      0.928459   -3.612432   -1.524270
  C     -1.056541   -2.812432   -1.300270
  H     -1.452540   -3.326432   -2.166270
  C     -1.891541   -1.998432   -0.538270
  H     -2.931541   -1.893432   -0.817270

----------------------------
CARTESIAN COORDINATES (A.U.)
----------------------------
  NO LB      ZA    FRAG     MASS         X           Y           Z
   0 O     8.0000    0    15.999    6.851126   -2.296834    3.011713
   1 C     6.0000    0    12.011    6.575226   -0.839856    1.271275
   2 O     8.0000    0    15.999    6.713176   -1.578738   -1.138126
   3 H     1.0000    0     1.008    6.280428   -0.127429   -2.234167
   4 C     6.0000    0    12.011    6.066889    1.968278    1.664338
   5 H     1.0000    0     1.008    7.555993    3.051091    0.732703
   6 H     1.0000    0     1.008    6.114132    2.336774    3.678786
   7 N     7.0000    0    14.007    3.631032    2.777080    0.693019
   8 H     1.0000    0     1.008    2.217517    3.325101    1.883546
   9 C     6.0000    0    12.011    3.203954    3.030304   -1.788192
  10 O     8.0000    0    15.999    4.753530    2.421812   -3.436033
  11 C     6.0000    0    12.011    0.684949    4.235949   -2.483611
  12 H     1.0000    0     1.008    0.598022    4.302089   -4.530184
  13 H     1.0000    0     1.008    0.666052    6.159690   -1.740949
  14 N     7.0000    0    14.007   -1.524141    2.920699   -1.548196
  15 H     1.0000    0     1.008   -2.635300    1.894578   -2.716047
  16 C     6.0000    0    12.011   -2.306487    3.071878    0.863094
  17 O     8.0000    0    15.999   -1.091393    4.130124    2.556289
  18 C     6.0000    0    12.011   -4.817934    1.798202    1.413004
  19 N     7.0000    0    14.007   -6.280582    1.497736   -0.909469
  20 H     1.0000    0     1.008   -7.006236    3.189041   -1.446151
  21 H     1.0000    0     1.008   -7.779134    0.350672   -0.580657
  22 H     1.0000    0     1.008   -5.734451    2.990619    2.830299
  23 C     6.0000    0    12.011   -4.313377   -0.788833    2.643216
  24 H     1.0000    0     1.008   -3.442213   -0.439234    4.478140
  25 H     1.0000    0     1.008   -6.144521   -1.678894    2.994705
  26 C     6.0000    0    12.011   -2.650417   -2.500925    1.106869
  27 C     6.0000    0    12.011   -0.112515   -2.835406    1.773942
  28 H     1.0000    0     1.008    0.624478   -1.896212    3.436901
  29 C     6.0000    0    12.011    1.467296   -4.398210    0.358537
  30 H     1.0000    0     1.008    3.408045   -4.666551    0.929234
  31 C     6.0000    0    12.011    0.528102   -5.622752   -1.774964
  32 H     1.0000    0     1.008    1.754534   -6.826508   -2.880453
  33 C     6.0000    0    12.011   -1.996572   -5.314727   -2.457155
  34 H     1.0000    0     1.008   -2.744904   -6.286046   -4.093658
  35 C     6.0000    0    12.011   -3.574494   -3.776490   -1.017183
  36 H     1.0000    0     1.008   -5.539809   -3.578069   -1.544417

--------------------------------
INTERNAL COORDINATES (ANGSTROEM)
--------------------------------
 O      0   0   0     0.000000000000     0.00000000     0.00000000
 C      1   0   0     1.209957850506     0.00000000     0.00000000
 O      2   1   0     1.335602860135   122.24256249     0.00000000
 H      3   2   1     0.989274987049   108.64854799   174.96173472
 C      2   1   3     1.524408409843   122.58766660   180.49139712
 H      5   2   1     1.091934979749   108.81938401   121.54415987
 H      5   2   1     1.083976937024   107.78670375     2.93985885
 N      5   2   1     1.452205563961   113.30553502   243.00575027
 H      8   5   2     1.020050979118   121.06924030   111.36851646
 C      8   5   2     1.339029872706   121.76041252   285.95945759
 O     10   8   5     1.239543464345   123.51535407     5.69323305
 C     10   8   5     1.522943531455   115.25144435   188.08822929
 H     12  10   8     1.084541377726   106.97399461   180.45552365
 H     12  10   8     1.091271276998   108.16758417    62.91764026
 N     12  10   8     1.447757576392   115.00739324   301.43080301
 H     15  12  10     1.011195826732   121.24649203   254.08907257
 C     15  12  10     1.343864576511   123.00918886    77.44906433
 O     17  15  12     1.236877115966   123.68484439   352.54331821
 C     17  15  12     1.518287939029   115.16441803   173.47962689
 N     19  17  15     1.461094795008   110.53546777   338.96877756
 H     20  19  17     1.014463897830   109.87644276   285.35718662
 H     20  19  17     1.013693247487   109.58402830   168.94078617
 H     19  17  15     1.093565727334   105.27853707   215.57697943
 C     19  17  15     1.539237148720   108.90796309   100.59282713
 H     24  19  17     1.090681939064   107.39670658    65.69815187
 H     24  19  17     1.093342581262   107.53927700   180.82211902
 C     24  19  17     1.502066967881   114.15256314   303.89442132
 C     27  24  19     1.399852492229   120.12206418   103.19741152
 H     28  27  24     1.083286204103   119.48740189     1.86406976
 C     28  27  24     1.394211605173   120.98407683   180.59276676
 H     30  28  27     1.079859713111   119.86964006   181.44499477
 C     30  28  27     1.393396569538   119.81899462     0.93024398
 H     32  30  28     1.081293266140   119.88383103   179.63849742
 C     32  30  28     1.393479816861   119.83324798   358.86086509
 H     34  32  30     1.082112748285   120.17340880   181.04374451
 C     34  32  30     1.393005742989   120.08856366     0.32001650
 H     36  34  32     1.081880865900   119.46319011   181.11543401

---------------------------
INTERNAL COORDINATES (A.U.)
---------------------------
 O      0   0   0     0.000000000000     0.00000000     0.00000000
 C      1   0   0     2.286488971044     0.00000000     0.00000000
 O      2   1   0     2.523923629337   122.24256249     0.00000000
 H      3   2   1     1.869458796660   108.64854799   174.96173472
 C      2   1   3     2.880714410850   122.58766660   180.49139712
 H      5   2   1     2.063458067775   108.81938401   121.54415987
 H      5   2   1     2.048419546462   107.78670375     2.93985885
 N      5   2   1     2.744270806043   113.30553502   243.00575027
 H      8   5   2     1.927616993172   121.06924030   111.36851646
 C      8   5   2     2.530399744554   121.76041252   285.95945759
 O     10   8   5     2.342397678704   123.51535407     5.69323305
 C     10   8   5     2.877946191876   115.25144435   188.08822929
 H     12  10   8     2.049486184808   106.97399461   180.45552365
 H     12  10   8     2.062203851340   108.16758417    62.91764026
 N     12  10   8     2.735865327690   115.00739324   301.43080301
 H     15  12  10     1.910883180287   121.24649203   254.08907257
 C     15  12  10     2.539536010683   123.00918886    77.44906433
 O     17  15  12     2.337359010490   123.68484439   352.54331821
 C     17  15  12     2.869148397200   115.16441803   173.47962689
 N     19  17  15     2.761069018263   110.53546777   338.96877756
 H     20  19  17     1.917058939649   109.87644276   285.35718662
 H     20  19  17     1.915602621555   109.58402830   168.94078617
 H     19  17  15     2.066539734104   105.27853707   215.57697943
 C     19  17  15     2.908736666239   108.90796309   100.59282713
 H     24  19  17     2.061090164045   107.39670658    65.69815187
 H     24  19  17     2.066118049139   107.53927700   180.82211902
 C     24  19  17     2.838495204105   114.15256314   303.89442132
 C     27  24  19     2.645337838200   120.12206418   103.19741152
 H     28  27  24     2.047114250410   119.48740189     1.86406976
 C     28  27  24     2.634678106512   120.98407683   180.59276676
 H     30  28  27     2.040639120834   119.86964006   181.44499477
 C     30  28  27     2.633137912372   119.81899462     0.93024398
 H     32  30  28     2.043348143458   119.88383103   179.63849742
 C     32  30  28     2.633295227015   119.83324798   358.86086509
 H     34  32  30     2.044896740283   120.17340880   181.04374451
 C     34  32  30     2.632399357228   120.08856366     0.32001650
 H     36  34  32     2.044458546080   119.46319011   181.11543401

---------------------
BASIS SET INFORMATION
---------------------
There are 4 groups of distinct atoms

 Group   1 Type O   : 8s4p1d contracted to 4s2p1d pattern {5111/31/1}
 Group   2 Type C   : 8s4p1d contracted to 4s2p1d pattern {5111/31/1}
 Group   3 Type H   : 4s contracted to 2s pattern {31}
 Group   4 Type N   : 8s4p1d contracted to 4s2p1d pattern {5111/31/1}

Atom   0O    basis set group =>   1
Atom   1C    basis set group =>   2
Atom   2O    basis set group =>   1
Atom   3H    basis set group =>   3
Atom   4C    basis set group =>   2
Atom   5H    basis set group =>   3
Atom   6H    basis set group =>   3
Atom   7N    basis set group =>   4
Atom   8H    basis set group =>   3
Atom   9C    basis set group =>   2
Atom  10O    basis set group =>   1
Atom  11C    basis set group =>   2
Atom  12H    basis set group =>   3
Atom  13H    basis set group =>   3
Atom  14N    basis set group =>   4
Atom  15H    basis set group =>   3
Atom  16C    basis set group =>   2
Atom  17O    basis set group =>   1
Atom  18C    basis set group =>   2
Atom  19N    basis set group =>   4
Atom  20H    basis set group =>   3
Atom  21H    basis set group =>   3
Atom  22H    basis set group =>   3
Atom  23C    basis set group =>   2
Atom  24H    basis set group =>   3
Atom  25H    basis set group =>   3
Atom  26C    basis set group =>   2
Atom  27C    basis set group =>   2
Atom  28H    basis set group =>   3
Atom  29C    basis set group =>   2
Atom  30H    basis set group =>   3
Atom  31C    basis set group =>   2
Atom  32H    basis set group =>   3
Atom  33C    basis set group =>   2
Atom  34H    basis set group =>   3
Atom  35C    basis set group =>   2
Atom  36H    basis set group =>   3
---------------------------------
AUXILIARY/J BASIS SET INFORMATION
---------------------------------
There are 4 groups of distinct atoms

 Group   1 Type O   : 12s5p4d2f1g contracted to 6s4p3d1f1g pattern {711111/2111/211/2/1}
 Group   2 Type C   : 12s5p4d2f1g contracted to 6s4p3d1f1g pattern {711111/2111/211/2/1}
 Group   3 Type H   : 5s2p1d contracted to 3s1p1d pattern {311/2/1}
 Group   4 Type N   : 12s5p4d2f1g contracted to 6s4p3d1f1g pattern {711111/2111/211/2/1}

Atom   0O    basis set group =>   1
Atom   1C    basis set group =>   2
Atom   2O    basis set group =>   1
Atom   3H    basis set group =>   3
Atom   4C    basis set group =>   2
Atom   5H    basis set group =>   3
Atom   6H    basis set group =>   3
Atom   7N    basis set group =>   4
Atom   8H    basis set group =>   3
Atom   9C    basis set group =>   2
Atom  10O    basis set group =>   1
Atom  11C    basis set group =>   2
Atom  12H    basis set group =>   3
Atom  13H    basis set group =>   3
Atom  14N    basis set group =>   4
Atom  15H    basis set group =>   3
Atom  16C    basis set group =>   2
Atom  17O    basis set group =>   1
Atom  18C    basis set group =>   2
Atom  19N    basis set group =>   4
Atom  20H    basis set group =>   3
Atom  21H    basis set group =>   3
Atom  22H    basis set group =>   3
Atom  23C    basis set group =>   2
Atom  24H    basis set group =>   3
Atom  25H    basis set group =>   3
Atom  26C    basis set group =>   2
Atom  27C    basis set group =>   2
Atom  28H    basis set group =>   3
Atom  29C    basis set group =>   2
Atom  30H    basis set group =>   3
Atom  31C    basis set group =>   2
Atom  32H    basis set group =>   3
Atom  33C    basis set group =>   2
Atom  34H    basis set group =>   3
Atom  35C    basis set group =>   2
Atom  36H    basis set group =>   3


           ************************************************************
           *        Program running with 4 parallel MPI-processes     *
           *              working on a common directory               *
           ************************************************************
------------------------------------------------------------------------------
                           ORCA GTO INTEGRAL CALCULATION
                           -- RI-GTO INTEGRALS CHOSEN --
------------------------------------------------------------------------------
------------------------------------------------------------------------------
                   ___                                                        
                  /   \      - P O W E R E D   B Y -                         
                 /     \                                                     
                 |  |  |   _    _      __       _____    __    __             
                 |  |  |  | |  | |    /  \     |  _  \  |  |  /  |          
                  \  \/   | |  | |   /    \    | | | |  |  | /  /          
                 / \  \   | |__| |  /  /\  \   | |_| |  |  |/  /          
                |  |  |   |  __  | /  /__\  \  |    /   |      \           
                |  |  |   | |  | | |   __   |  |    \   |  |\   \          
                \     /   | |  | | |  |  |  |  | |\  \  |  | \   \       
                 \___/    |_|  |_| |__|  |__|  |_| \__\ |__|  \__/        
                                                                              
                      - O R C A' S   B I G   F R I E N D -                    
                                      &                                       
                       - I N T E G R A L  F E E D E R -                       
                                                                              
 v1 FN, 2020, v2 2021                                                         
------------------------------------------------------------------------------


Reading SHARK input file pbeh-3c.SHARKINP.tmp ... ok
----------------------
SHARK INTEGRAL PACKAGE
----------------------

Number of atoms                             ...     37
Number of basis functions                   ...    334
Number of shells                            ...    174
Maximum angular momentum                    ...      2
Integral batch strategy                     ... SHARK/LIBINT Hybrid
RI-J (if used) integral strategy            ... SPLIT-RIJ (Revised 2003 algorithm where possible)
Printlevel                                  ...      1
Contraction scheme used                     ... SEGMENTED contraction
Coulomb Range Separation                    ... NOT USED
Exchange Range Separation                   ... NOT USED
Finite Nucleus Model                        ... NOT USED
Auxiliary Coulomb fitting basis             ... AVAILABLE
   # of basis functions in Aux-J            ...   1167
   # of shells in Aux-J                     ...    385
   Maximum angular momentum in Aux-J        ...      4
Auxiliary J/K fitting basis                 ... NOT available
Auxiliary Correlation fitting basis         ... NOT available
Auxiliary 'external' fitting basis          ... NOT available
Integral threshold                          ...     2.500000e-11
Primitive cut-off                           ...     2.500000e-12
Primitive pair pre-selection threshold      ...     2.500000e-12

Calculating pre-screening integrals         ... done (  0.1 sec) Dimension = 174
Organizing shell pair data                  ... done (  0.4 sec)
Shell pair information
Total number of shell pairs                 ...     15225
Shell pairs after pre-screening             ...     11353
Total number of primitive shell pairs       ...     54267
Primitive shell pairs kept                  ...     25647
          la=0 lb=0:   4423 shell pairs
          la=1 lb=0:   3791 shell pairs
          la=1 lb=1:    769 shell pairs
          la=2 lb=0:   1524 shell pairs
          la=2 lb=1:    696 shell pairs
          la=2 lb=2:    150 shell pairs

Calculating one electron integrals          ... done (  0.1 sec)
Calculating RI/J V-Matrix + Cholesky decomp.... done (  0.9 sec)
Calculating Nuclear repulsion               ... done (  0.0 sec) ENN=   1667.424641383726 Eh

SHARK setup successfully completed in   2.7 seconds

Maximum memory used throughout the entire GTOINT-calculation: 23.2 MB


           ************************************************************
           *        Program running with 4 parallel MPI-processes     *
           *              working on a common directory               *
           ************************************************************
-------------------------------------------------------------------------------
                                 ORCA SCF
-------------------------------------------------------------------------------

------------
SCF SETTINGS
------------
Hamiltonian:
 Density Functional     Method          .... DFT(GTOs)
 Exchange Functional    Exchange        .... PBE
   PBE kappa parameter   XKappa         ....  1.024500
   PBE mue parameter    XMuePBE         ....  0.123457
 Correlation Functional Correlation     .... PBE
   PBE beta parameter  CBetaPBE         ....  0.030000
 LDA part of GGA corr.  LDAOpt          .... PW91-LDA
 Gradients option       PostSCFGGA      .... off
 Hybrid DFT is turned on
   Fraction HF Exchange ScalHFX         ....  0.420000
   Scaling of DF-GGA-X  ScalDFX         ....  0.580000
   Scaling of DF-GGA-C  ScalDFC         ....  1.000000
   Scaling of DF-LDA-C  ScalLDAC        ....  1.000000
   Perturbative correction              ....  0.000000
   Density functional embedding theory  .... OFF
 RI-approximation to the Coulomb term is turned on
   Number of AuxJ basis functions       .... 1167
   RIJ-ON(X) (HFX calculated with O(N)) .... on
   Number of AuxJ basis functions       .... 1167
   RIJ-COSX (HFX calculated with COS-X)).... on


General Settings:
 Integral files         IntName         .... pbeh-3c
 Hartree-Fock type      HFTyp           .... RHF
 Total Charge           Charge          ....    0
 Multiplicity           Mult            ....    1
 Number of Electrons    NEL             ....  148
 Basis Dimension        Dim             ....  334
 Nuclear Repulsion      ENuc            ....   1667.4246413837 Eh

Convergence Acceleration:
 DIIS                   CNVDIIS         .... on
   Start iteration      DIISMaxIt       ....    12
   Startup error        DIISStart       ....  0.200000
   # of expansion vecs  DIISMaxEq       ....     5
   Bias factor          DIISBfac        ....   1.050
   Max. coefficient     DIISMaxC        ....  10.000
 Trust-Rad. Augm. Hess. CNVTRAH         .... auto
   Auto Start mean grad. ratio tolernc. ....  1.125000
   Auto Start start iteration           ....    20
   Auto Start num. interpolation iter.  ....    10
   Max. Number of Micro iterations      ....    16
   Max. Number of Macro iterations      .... Maxiter - #DIIS iter
   Number of Davidson start vectors     ....     2
   Converg. threshold I  (grad. norm)   ....   1.000e-05
   Converg. threshold II (energy diff.) ....   1.000e-08
   Grad. Scal. Fac. for Micro threshold ....   0.100
   Minimum threshold for Micro iter.    ....   0.010
   NR start threshold (gradient norm)   ....   0.001
   Initial trust radius                 ....   0.400
   Minimum AH scaling param. (alpha)    ....   1.000
   Maximum AH scaling param. (alpha)    .... 1000.000
   Orbital update algorithm             .... Taylor
   White noise on init. David. guess    .... on
   Maximum white noise                  ....   0.010
   Quad. conv. algorithm                .... NR
   COSX micro iterations for RIJONX calc.... off
 SOSCF                  CNVSOSCF        .... on
   Start iteration      SOSCFMaxIt      ....   150
   Startup grad/error   SOSCFStart      ....  0.003300
 Level Shifting         CNVShift        .... on
   Level shift para.    LevelShift      ....    0.2500
   Turn off err/grad.   ShiftErr        ....    0.0010
 Zerner damping         CNVZerner       .... off
 Static damping         CNVDamp         .... on
   Fraction old density DampFac         ....    0.7000
   Max. Damping (<1)    DampMax         ....    0.9800
   Min. Damping (>=0)   DampMin         ....    0.0000
   Turn off err/grad.   DampErr         ....    0.1000
 Fernandez-Rico         CNVRico         .... off

SCF Procedure:
 Maximum # iterations   MaxIter         ....   125
 SCF integral mode      SCFMode         .... Direct
   Integral package                     .... SHARK and LIBINT hybrid scheme
 Reset frequency        DirectResetFreq ....    20
 Integral Threshold     Thresh          ....  2.500e-11 Eh
 Primitive CutOff       TCut            ....  2.500e-12 Eh

Convergence Tolerance:
 Convergence Check Mode ConvCheckMode   .... Total+1el-Energy
 Convergence forced     ConvForced      .... 0
 Energy Change          TolE            ....  1.000e-08 Eh
 1-El. energy change                    ....  1.000e-05 Eh
 Orbital Gradient       TolG            ....  1.000e-05
 Orbital Rotation angle TolX            ....  1.000e-05
 DIIS Error             TolErr          ....  5.000e-07


Diagonalization of the overlap matrix:
Smallest eigenvalue                        ... 4.115e-04
Time for diagonalization                   ...    0.075 sec
Threshold for overlap eigenvalues          ... 1.000e-08
Number of eigenvalues below threshold      ... 0
Time for construction of square roots      ...    0.123 sec
Total time needed                          ...    0.199 sec

--------------------------------
INITIAL GUESS: MINIMAL BASIS EHT
--------------------------------
The minimal basis has 117 functions
EHT matrix was diagonalized
Basis set overlap was calculated now projecting the orbitals
Using GuessMode=FMatrix for the initial guess
C*T matrix was formed
Effective Fockian was calculated
Effective Fockian was diagonalized
Initial density was built
                      ------------------
                      INITIAL GUESS DONE
                      ------------------
-------------------
DFT GRID GENERATION
-------------------

General Integration Accuracy     IntAcc      ... 4.959
Radial Grid Type                 RadialGrid  ... OptM3 with GC (2021)
Angular Grid (max. ang.)         AngularGrid ... 6 (Lebedev-590)
Angular grid pruning method      GridPruning ... 4 (adaptive)
Weight generation scheme         WeightScheme... Becke
Basis function cutoff            BFCut       ... 1.0000e-11
Integration weight cutoff        WCut        ... 1.0000e-14
Angular grids for H and He will be reduced by one unit
Partially contracted basis set               ... off
Rotationally invariant grid construction     ... off

Total number of grid points                  ...   427181
Total number of batches                      ...     6690
Average number of points per batch           ...       63
Average number of grid points per atom       ...    11545
Time for grid setup =   11.128 sec

--------------------
COSX GRID GENERATION
--------------------

GRIDX 1
-------
General Integration Accuracy     IntAcc      ... 4.020
Radial Grid Type                 RadialGrid  ... OptM3 with GC (2021)
Angular Grid (max. ang.)         AngularGrid ... 2 (Lebedev-110)
Angular grid pruning method      GridPruning ... 4 (adaptive)
Weight generation scheme         WeightScheme... Becke
Basis function cutoff            BFCut       ... 1.0000e-11
Integration weight cutoff        WCut        ... 1.0000e-14
Angular grids for H and He will be reduced by one unit
Partially contracted basis set               ... on
Rotationally invariant grid construction     ... off

Total number of grid points                  ...    47440
Total number of batches                      ...      758
Average number of points per batch           ...       62
Average number of grid points per atom       ...     1282
UseSFitting                                  ... on

GRIDX 2
-------
General Integration Accuracy     IntAcc      ... 4.338
Radial Grid Type                 RadialGrid  ... OptM3 with GC (2021)
Angular Grid (max. ang.)         AngularGrid ... 3 (Lebedev-194)
Angular grid pruning method      GridPruning ... 4 (adaptive)
Weight generation scheme         WeightScheme... Becke
Basis function cutoff            BFCut       ... 1.0000e-11
Integration weight cutoff        WCut        ... 1.0000e-14
Angular grids for H and He will be reduced by one unit
Partially contracted basis set               ... on
Rotationally invariant grid construction     ... off

Total number of grid points                  ...   103569
Total number of batches                      ...     1634
Average number of points per batch           ...       63
Average number of grid points per atom       ...     2799
UseSFitting                                  ... on

GRIDX 3
-------
General Integration Accuracy     IntAcc      ... 4.871
Radial Grid Type                 RadialGrid  ... OptM3 with GC (2021)
Angular Grid (max. ang.)         AngularGrid ... 4 (Lebedev-302)
Angular grid pruning method      GridPruning ... 4 (adaptive)
Weight generation scheme         WeightScheme... Becke
Basis function cutoff            BFCut       ... 1.0000e-11
Integration weight cutoff        WCut        ... 1.0000e-14
Angular grids for H and He will be reduced by one unit
Partially contracted basis set               ... on
Rotationally invariant grid construction     ... off

Total number of grid points                  ...   194443
Total number of batches                      ...     3056
Average number of points per batch           ...       63
Average number of grid points per atom       ...     5255
UseSFitting                                  ... on

Time for X-Grid setup             =   11.424 sec

--------------
SCF ITERATIONS
--------------
ITER       Energy         Delta-E        Max-DP      RMS-DP      [F,P]     Damp
               ***  Starting incremental Fock matrix formation  ***
  0   -965.6527258894   0.000000000000 0.19732141  0.00447246  0.5608685 0.7000
  1   -966.8137752911  -1.161049401632 0.10696555  0.00265007  0.2880859 0.7000
  2   -967.3941562107  -0.580380919595 0.04758395  0.00161000  0.2021737 0.7000
                               ***Turning on DIIS***
  3   -967.8033900381  -0.409233827431 0.03563162  0.00112499  0.1429821 0.7000
  4   -968.0989773350  -0.295587296875 0.02625151  0.00084002  0.1007658 0.7000
  5   -968.3079937277  -0.209016392752 0.06158415  0.00207027  0.0705755 0.0000
  6   -968.8045054689  -0.496511741206 0.00659871  0.00011848  0.0046621 0.0000
                      *** Initiating the SOSCF procedure ***
                           *** Shutting down DIIS ***
                      *** Re-Reading the Fockian *** 
                      *** Removing any level shift *** 
ITER      Energy       Delta-E        Grad      Rot      Max-DP    RMS-DP
  7   -968.80485474  -0.0003492723  0.000646  0.000646  0.002841  0.000056
               *** Restarting incremental Fock matrix formation ***
  8   -968.80493785  -0.0000831041  0.000734  0.002068  0.002938  0.000046
  9   -968.80495781  -0.0000199652  0.000423  0.000632  0.001952  0.000037
 10   -968.80496779  -0.0000099843  0.000132  0.000278  0.000986  0.000015
 11   -968.80496964  -0.0000018448  0.000025  0.000044  0.000132  0.000002
 12   -968.80496964  -0.0000000031  0.000021  0.000024  0.000064  0.000001
                  ***Gradient check signals convergence***
              ***Rediagonalizing the Fockian in SOSCF/NRSCF***

               *****************************************************
               *                     SUCCESS                       *
               *           SCF CONVERGED AFTER  13 CYCLES          *
               *****************************************************

Old exchange energy                            =    -53.033989139 Eh
New exchange energy                            =    -53.034000502 Eh
Exchange energy change after final integration =     -0.000011363 Eh
Total energy after final integration           =   -968.804981076 Eh
Final COS-X integration done in                =    40.188 sec

----------------
TOTAL SCF ENERGY
----------------

Total Energy       :         -968.80498108 Eh          -26362.52378 eV

Components:
Nuclear Repulsion  :         1667.42464138 Eh           45372.93121 eV
Electronic Energy  :        -2636.22962246 Eh          -71735.45499 eV
One Electron Energy:        -4635.44738061 Eh         -126136.93590 eV
Two Electron Energy:         1999.21775815 Eh           54401.48092 eV
Max COSX asymmetry :            0.00000199 Eh               0.00005 eV

Virial components:
Potential Energy   :        -1930.39568141 Eh          -52528.73700 eV
Kinetic Energy     :          961.59070033 Eh           26166.21322 eV
Virial Ratio       :            2.00750244


DFT components:
N(Alpha)           :       74.000005781340 electrons
N(Beta)            :       74.000005781340 electrons
N(Total)           :      148.000011562680 electrons
E(X)               :      -70.546617894015 Eh       
E(C)               :       -6.564110551463 Eh       
E(XC)              :      -77.110728445478 Eh       
DFET-embed. en.    :        0.000000000000 Eh       

---------------
SCF CONVERGENCE
---------------

  Last Energy change         ...   -7.0734e-08  Tolerance :   1.0000e-08
  Last MAX-Density change    ...    2.5535e-15  Tolerance :   1.0000e-07
  Last RMS-Density change    ...    3.5988e-17  Tolerance :   5.0000e-09
  Last Orbital Gradient      ...    2.4677e-06  Tolerance :   1.0000e-05
  Last Orbital Rotation      ...    8.1921e-06  Tolerance :   1.0000e-05

             **** THE GBW FILE WAS UPDATED (pbeh-3c.gbw) ****
             **** DENSITY pbeh-3c.scfp WAS UPDATED ****
             **** ENERGY FILE WAS UPDATED (pbeh-3c.en.tmp) ****
             **** THE GBW FILE WAS UPDATED (pbeh-3c.gbw) ****
             **** DENSITY pbeh-3c.scfp WAS UPDATED ****
----------------
ORBITAL ENERGIES
----------------

  NO   OCC          E(Eh)            E(eV) 
   0   2.0000     -19.513779      -530.9969 
   1   2.0000     -19.489651      -530.3404 
   2   2.0000     -19.486222      -530.2470 
   3   2.0000     -19.470267      -529.8129 
   4   2.0000     -14.685771      -399.6201 
   5   2.0000     -14.678148      -399.4127 
   6   2.0000     -14.651129      -398.6775 
   7   2.0000     -10.570710      -287.6436 
   8   2.0000     -10.570007      -287.6245 
   9   2.0000     -10.568337      -287.5791 
  10   2.0000     -10.505193      -285.8608 
  11   2.0000     -10.502009      -285.7742 
  12   2.0000     -10.494878      -285.5801 
  13   2.0000     -10.462739      -284.7056 
  14   2.0000     -10.458341      -284.5859 
  15   2.0000     -10.447036      -284.2783 
  16   2.0000     -10.446123      -284.2535 
  17   2.0000     -10.443700      -284.1875 
  18   2.0000     -10.441625      -284.1311 
  19   2.0000     -10.437945      -284.0309 
  20   2.0000      -1.199972       -32.6529 
  21   2.0000      -1.172321       -31.9005 
  22   2.0000      -1.163689       -31.6656 
  23   2.0000      -1.109839       -30.2003 
  24   2.0000      -1.054747       -28.7011 
  25   2.0000      -1.042939       -28.3798 
  26   2.0000      -1.017037       -27.6750 
  27   2.0000      -0.954732       -25.9796 
  28   2.0000      -0.883947       -24.0534 
  29   2.0000      -0.865295       -23.5459 
  30   2.0000      -0.831989       -22.6396 
  31   2.0000      -0.823203       -22.4005 
  32   2.0000      -0.805971       -21.9316 
  33   2.0000      -0.739993       -20.1362 
  34   2.0000      -0.691765       -18.8239 
  35   2.0000      -0.681010       -18.5312 
  36   2.0000      -0.671611       -18.2755 
  37   2.0000      -0.661527       -18.0011 
  38   2.0000      -0.658314       -17.9136 
  39   2.0000      -0.622046       -16.9267 
  40   2.0000      -0.613898       -16.7050 
  41   2.0000      -0.592608       -16.1257 
  42   2.0000      -0.583616       -15.8810 
  43   2.0000      -0.572789       -15.5864 
  44   2.0000      -0.568595       -15.4723 
  45   2.0000      -0.555282       -15.1100 
  46   2.0000      -0.540151       -14.6982 
  47   2.0000      -0.525776       -14.3071 
  48   2.0000      -0.521302       -14.1854 
  49   2.0000      -0.509277       -13.8581 
  50   2.0000      -0.503804       -13.7092 
  51   2.0000      -0.499043       -13.5796 
  52   2.0000      -0.490967       -13.3599 
  53   2.0000      -0.483253       -13.1500 
  54   2.0000      -0.479961       -13.0604 
  55   2.0000      -0.471935       -12.8420 
  56   2.0000      -0.460284       -12.5250 
  57   2.0000      -0.455754       -12.4017 
  58   2.0000      -0.448827       -12.2132 
  59   2.0000      -0.443888       -12.0788 
  60   2.0000      -0.438578       -11.9343 
  61   2.0000      -0.430251       -11.7077 
  62   2.0000      -0.408238       -11.1087 
  63   2.0000      -0.393774       -10.7151 
  64   2.0000      -0.388635       -10.5753 
  65   2.0000      -0.360951        -9.8220 
  66   2.0000      -0.355871        -9.6837 
  67   2.0000      -0.346580        -9.4309 
  68   2.0000      -0.344113        -9.3638 
  69   2.0000      -0.324976        -8.8430 
  70   2.0000      -0.319619        -8.6973 
  71   2.0000      -0.304762        -8.2930 
  72   2.0000      -0.287950        -7.8355 
  73   2.0000      -0.282586        -7.6895 
  74   0.0000       0.014664         0.3990 
  75   0.0000       0.017412         0.4738 
  76   0.0000       0.026613         0.7242 
  77   0.0000       0.035417         0.9638 
  78   0.0000       0.049792         1.3549 
  79   0.0000       0.101607         2.7649 
  80   0.0000       0.137298         3.7361 
  81   0.0000       0.142547         3.8789 
  82   0.0000       0.148089         4.0297 
  83   0.0000       0.160062         4.3555 
  84   0.0000       0.168201         4.5770 
  85   0.0000       0.173527         4.7219 
  86   0.0000       0.181289         4.9331 
  87   0.0000       0.191516         5.2114 
  88   0.0000       0.200717         5.4618 
  89   0.0000       0.206154         5.6097 
  90   0.0000       0.210861         5.7378 
  91   0.0000       0.217906         5.9295 
  92   0.0000       0.218774         5.9531 
  93   0.0000       0.222405         6.0520 
  94   0.0000       0.230762         6.2793 
  95   0.0000       0.232341         6.3223 
  96   0.0000       0.239129         6.5070 
  97   0.0000       0.248355         6.7581 
  98   0.0000       0.253517         6.8985 
  99   0.0000       0.260225         7.0811 
 100   0.0000       0.264165         7.1883 
 101   0.0000       0.275967         7.5094 
 102   0.0000       0.285861         7.7787 
 103   0.0000       0.293517         7.9870 
 104   0.0000       0.317468         8.6387 
 105   0.0000       0.329025         8.9532 
 106   0.0000       0.334891         9.1129 
 107   0.0000       0.347122         9.4457 
 108   0.0000       0.362831         9.8731 
 109   0.0000       0.375037        10.2053 
 110   0.0000       0.384415        10.4605 
 111   0.0000       0.398158        10.8344 
 112   0.0000       0.422443        11.4953 
 113   0.0000       0.425580        11.5806 
 114   0.0000       0.454645        12.3715 
 115   0.0000       0.466146        12.6845 
 116   0.0000       0.476791        12.9741 
 117   0.0000       0.501784        13.6542 
 118   0.0000       0.511931        13.9303 
 119   0.0000       0.528859        14.3910 
 120   0.0000       0.532033        14.4774 
 121   0.0000       0.539524        14.6812 
 122   0.0000       0.541217        14.7273 
 123   0.0000       0.552030        15.0215 
 124   0.0000       0.554557        15.0903 
 125   0.0000       0.566429        15.4133 
 126   0.0000       0.583590        15.8803 
 127   0.0000       0.587120        15.9764 
 128   0.0000       0.596760        16.2387 
 129   0.0000       0.601445        16.3661 
 130   0.0000       0.607045        16.5185 
 131   0.0000       0.617132        16.7930 
 132   0.0000       0.623423        16.9642 
 133   0.0000       0.625867        17.0307 
 134   0.0000       0.631118        17.1736 
 135   0.0000       0.645909        17.5761 
 136   0.0000       0.654877        17.8201 
 137   0.0000       0.660855        17.9828 
 138   0.0000       0.670850        18.2548 
 139   0.0000       0.673937        18.3388 
 140   0.0000       0.687231        18.7005 
 141   0.0000       0.692554        18.8454 
 142   0.0000       0.694941        18.9103 
 143   0.0000       0.711629        19.3644 
 144   0.0000       0.726263        19.7626 
 145   0.0000       0.730959        19.8904 
 146   0.0000       0.741954        20.1896 
 147   0.0000       0.761487        20.7211 
 148   0.0000       0.772264        21.0144 
 149   0.0000       0.777876        21.1671 
 150   0.0000       0.790686        21.5157 
 151   0.0000       0.814639        22.1674 
 152   0.0000       0.843841        22.9621 
 153   0.0000       0.853317        23.2199 
 154   0.0000       0.876590        23.8532 
 155   0.0000       0.887928        24.1618 
 156   0.0000       0.904818        24.6214 
 157   0.0000       0.923746        25.1364 
 158   0.0000       0.927817        25.2472 
 159   0.0000       0.936318        25.4785 
 160   0.0000       0.945750        25.7352 
 161   0.0000       0.948061        25.7981 
 162   0.0000       0.955963        26.0131 
 163   0.0000       0.962789        26.1988 
 164   0.0000       0.970230        26.4013 
 165   0.0000       0.980122        26.6705 
 166   0.0000       0.983157        26.7531 
 167   0.0000       0.990448        26.9515 
 168   0.0000       1.003330        27.3020 
 169   0.0000       1.007665        27.4200 
 170   0.0000       1.009200        27.4617 
 171   0.0000       1.012590        27.5540 
 172   0.0000       1.029803        28.0224 
 173   0.0000       1.036030        28.1918 
 174   0.0000       1.049433        28.5565 
 175   0.0000       1.055550        28.7230 
 176   0.0000       1.059955        28.8428 
 177   0.0000       1.069677        29.1074 
 178   0.0000       1.078869        29.3575 
 179   0.0000       1.085682        29.5429 
 180   0.0000       1.093706        29.7613 
 181   0.0000       1.107271        30.1304 
 182   0.0000       1.119069        30.4514 
 183   0.0000       1.121750        30.5244 
 184   0.0000       1.137830        30.9619 
 185   0.0000       1.148106        31.2416 
 186   0.0000       1.153618        31.3916 
 187   0.0000       1.170366        31.8473 
 188   0.0000       1.203902        32.7598 
 189   0.0000       1.212551        32.9952 
 190   0.0000       1.220432        33.2096 
 191   0.0000       1.234217        33.5848 
 192   0.0000       1.245449        33.8904 
 193   0.0000       1.252686        34.0873 
 194   0.0000       1.271535        34.6002 
 195   0.0000       1.290099        35.1054 
 196   0.0000       1.297609        35.3097 
 197   0.0000       1.314249        35.7625 
 198   0.0000       1.315970        35.8094 
 199   0.0000       1.334954        36.3260 
 200   0.0000       1.346066        36.6283 
 201   0.0000       1.369175        37.2571 
 202   0.0000       1.382083        37.6084 
 203   0.0000       1.407260        38.2935 
 204   0.0000       1.434256        39.0281 
 205   0.0000       1.449286        39.4371 
 206   0.0000       1.474981        40.1363 
 207   0.0000       1.488700        40.5096 
 208   0.0000       1.490001        40.5450 
 209   0.0000       1.503178        40.9036 
 210   0.0000       1.504371        40.9360 
 211   0.0000       1.524321        41.4789 
 212   0.0000       1.542932        41.9853 
 213   0.0000       1.555120        42.3170 
 214   0.0000       1.561625        42.4940 
 215   0.0000       1.567561        42.6555 
 216   0.0000       1.569640        42.7121 
 217   0.0000       1.597725        43.4763 
 218   0.0000       1.606907        43.7261 
 219   0.0000       1.623365        44.1740 
 220   0.0000       1.636015        44.5182 
 221   0.0000       1.652427        44.9648 
 222   0.0000       1.671594        45.4864 
 223   0.0000       1.703928        46.3662 
 224   0.0000       1.740656        47.3656 
 225   0.0000       1.779327        48.4180 
 226   0.0000       1.793578        48.8057 
 227   0.0000       1.801693        49.0266 
 228   0.0000       1.819682        49.5161 
 229   0.0000       1.822107        49.5821 
 230   0.0000       1.848468        50.2994 
 231   0.0000       1.855672        50.4954 
 232   0.0000       1.864679        50.7405 
 233   0.0000       1.869459        50.8706 
 234   0.0000       1.881643        51.2021 
 235   0.0000       1.885741        51.3136 
 236   0.0000       1.904949        51.8363 
 237   0.0000       1.926908        52.4338 
 238   0.0000       1.931391        52.5558 
 239   0.0000       1.944950        52.9248 
 240   0.0000       1.950193        53.0675 
 241   0.0000       1.964839        53.4660 
 242   0.0000       1.973028        53.6888 
 243   0.0000       1.993266        54.2395 
 244   0.0000       2.010928        54.7201 
 245   0.0000       2.025806        55.1250 
 246   0.0000       2.038198        55.4622 
 247   0.0000       2.041572        55.5540 
 248   0.0000       2.058899        56.0255 
 249   0.0000       2.068191        56.2783 
 250   0.0000       2.078880        56.5692 
 251   0.0000       2.083324        56.6901 
 252   0.0000       2.094882        57.0046 
 253   0.0000       2.112363        57.4803 
 254   0.0000       2.119958        57.6870 
 255   0.0000       2.126680        57.8699 
 256   0.0000       2.143656        58.3319 
 257   0.0000       2.151548        58.5466 
 258   0.0000       2.164131        58.8890 
 259   0.0000       2.179676        59.3120 
 260   0.0000       2.186685        59.5027 
 261   0.0000       2.200032        59.8659 
 262   0.0000       2.213509        60.2326 
 263   0.0000       2.226121        60.5758 
 264   0.0000       2.230559        60.6966 
 265   0.0000       2.249707        61.2176 
 266   0.0000       2.257930        61.4414 
 267   0.0000       2.286988        62.2321 
 268   0.0000       2.307694        62.7955 
 269   0.0000       2.333531        63.4986 
 270   0.0000       2.345813        63.8328 
 271   0.0000       2.355580        64.0986 
 272   0.0000       2.372849        64.5685 
 273   0.0000       2.384119        64.8752 
 274   0.0000       2.389261        65.0151 
 275   0.0000       2.420309        65.8600 
 276   0.0000       2.428555        66.0843 
 277   0.0000       2.451995        66.7222 
 278   0.0000       2.485619        67.6371 
 279   0.0000       2.511283        68.3355 
 280   0.0000       2.534659        68.9716 
 281   0.0000       2.557658        69.5974 
 282   0.0000       2.566889        69.8486 
 283   0.0000       2.585129        70.3449 
 284   0.0000       2.620361        71.3036 
 285   0.0000       2.635098        71.7047 
 286   0.0000       2.639540        71.8255 
 287   0.0000       2.650073        72.1122 
 288   0.0000       2.665687        72.5370 
 289   0.0000       2.702687        73.5439 
 290   0.0000       2.715903        73.9035 
 291   0.0000       2.726430        74.1899 
 292   0.0000       2.736057        74.4519 
 293   0.0000       2.745305        74.7035 
 294   0.0000       2.772231        75.4362 
 295   0.0000       2.783035        75.7302 
 296   0.0000       2.787036        75.8391 
 297   0.0000       2.791324        75.9558 
 298   0.0000       2.808797        76.4312 
 299   0.0000       2.816356        76.6369 
 300   0.0000       2.832244        77.0693 
 301   0.0000       2.845729        77.4362 
 302   0.0000       2.931012        79.7569 
 303   0.0000       2.934950        79.8641 
 304   0.0000       2.958999        80.5185 
 305   0.0000       2.971695        80.8639 
 306   0.0000       3.037651        82.6587 
 307   0.0000       3.051962        83.0481 
 308   0.0000       3.061849        83.3171 
 309   0.0000       3.115499        84.7770 
 310   0.0000       3.178056        86.4793 
 311   0.0000       3.216694        87.5307 
 312   0.0000       3.250217        88.4429 
 313   0.0000       3.472507        94.4917 
 314   0.0000      13.253574       360.6481 
 315   0.0000      13.598513       370.0343 
 316   0.0000      13.664332       371.8254 
 317   0.0000      13.679724       372.2442 
 318   0.0000      13.740176       373.8892 
 319   0.0000      13.819211       376.0399 
 320   0.0000      14.015354       381.3772 
 321   0.0000      14.053164       382.4060 
 322   0.0000      14.071212       382.8971 
 323   0.0000      14.122535       384.2937 
 324   0.0000      14.142992       384.8504 
 325   0.0000      14.168832       385.5535 
 326   0.0000      14.558866       396.1669 
 327   0.0000      19.150043       521.0992 
 328   0.0000      19.302089       525.2365 
 329   0.0000      19.366708       526.9949 
 330   0.0000      25.628889       697.3975 
 331   0.0000      25.742470       700.4882 
 332   0.0000      25.785713       701.6649 
 333   0.0000      25.788483       701.7403 

                    ********************************
                    * MULLIKEN POPULATION ANALYSIS *
                    ********************************

-----------------------
MULLIKEN ATOMIC CHARGES
-----------------------
   0 O :   -0.401640
   1 C :    0.554074
   2 O :   -0.592931
   3 H :    0.476301
   4 C :   -0.443073
   5 H :    0.263175
   6 H :    0.273166
   7 N :   -0.637106
   8 H :    0.430743
   9 C :    0.566469
  10 O :   -0.487644
  11 C :   -0.403792
  12 H :    0.277029
  13 H :    0.264572
  14 N :   -0.608792
  15 H :    0.408000
  16 C :    0.557830
  17 O :   -0.479668
  18 C :   -0.188890
  19 N :   -0.771178
  20 H :    0.336160
  21 H :    0.338536
  22 H :    0.248948
  23 C :   -0.534033
  24 H :    0.265378
  25 H :    0.240037
  26 C :    0.144465
  27 C :   -0.295913
  28 H :    0.221607
  29 C :   -0.219991
  30 H :    0.277005
  31 C :   -0.237747
  32 H :    0.226805
  33 C :   -0.209085
  34 H :    0.215853
  35 C :   -0.268147
  36 H :    0.193478
Sum of atomic charges:    0.0000000

--------------------------------
MULLIKEN REDUCED ORBITAL CHARGES
--------------------------------
  0 O s       :     3.765392  s :     3.765392
      pz      :     1.572293  p :     4.605803
      px      :     1.422974
      py      :     1.610536
      dz2     :     0.006584  d :     0.030445
      dxz     :     0.006765
      dyz     :     0.008560
      dx2y2   :     0.003488
      dxy     :     0.005048
  1 C s       :     2.962171  s :     2.962171
      pz      :     0.749141  p :     2.346669
      px      :     0.749357
      py      :     0.848171
      dz2     :     0.050190  d :     0.137086
      dxz     :     0.027203
      dyz     :     0.036611
      dx2y2   :     0.013769
      dxy     :     0.009314
  2 O s       :     3.798959  s :     3.798959
      pz      :     1.321321  p :     4.763711
      px      :     1.767581
      py      :     1.674809
      dz2     :     0.004992  d :     0.030261
      dxz     :     0.004049
      dyz     :     0.011772
      dx2y2   :     0.005361
      dxy     :     0.004086
  3 H s       :     0.523699  s :     0.523699
  4 C s       :     3.339465  s :     3.339465
      pz      :     1.189264  p :     3.048833
      px      :     0.880014
      py      :     0.979555
      dz2     :     0.012565  d :     0.054775
      dxz     :     0.008994
      dyz     :     0.005518
      dx2y2   :     0.013988
      dxy     :     0.013710
  5 H s       :     0.736825  s :     0.736825
  6 H s       :     0.726834  s :     0.726834
  7 N s       :     3.551457  s :     3.551457
      pz      :     1.185758  p :     4.051093
      px      :     1.263675
      py      :     1.601659
      dz2     :     0.008269  d :     0.034557
      dxz     :     0.012178
      dyz     :     0.005205
      dx2y2   :     0.004719
      dxy     :     0.004186
  8 H s       :     0.569257  s :     0.569257
  9 C s       :     2.965256  s :     2.965256
      pz      :     0.771109  p :     2.348977
      px      :     0.814990
      py      :     0.762878
      dz2     :     0.040324  d :     0.119297
      dxz     :     0.028473
      dyz     :     0.026256
      dx2y2   :     0.011732
      dxy     :     0.012513
 10 O s       :     3.781903  s :     3.781903
      pz      :     1.605998  p :     4.677773
      px      :     1.551401
      py      :     1.520374
      dz2     :     0.005691  d :     0.027968
      dxz     :     0.008400
      dyz     :     0.006182
      dx2y2   :     0.003952
      dxy     :     0.003742
 11 C s       :     3.334690  s :     3.334690
      pz      :     1.166822  p :     3.014009
      px      :     0.803328
      py      :     1.043860
      dz2     :     0.013716  d :     0.055093
      dxz     :     0.007072
      dyz     :     0.005731
      dx2y2   :     0.016709
      dxy     :     0.011866
 12 H s       :     0.722971  s :     0.722971
 13 H s       :     0.735428  s :     0.735428
 14 N s       :     3.544978  s :     3.544978
      pz      :     1.210016  p :     4.029002
      px      :     1.314429
      py      :     1.504556
      dz2     :     0.007600  d :     0.034812
      dxz     :     0.010665
      dyz     :     0.006863
      dx2y2   :     0.003633
      dxy     :     0.006052
 15 H s       :     0.592000  s :     0.592000
 16 C s       :     2.977932  s :     2.977932
      pz      :     0.757763  p :     2.344715
      px      :     0.823399
      py      :     0.763553
      dz2     :     0.040582  d :     0.119523
      dxz     :     0.027994
      dyz     :     0.024420
      dx2y2   :     0.012734
      dxy     :     0.013794
 17 O s       :     3.778200  s :     3.778200
      pz      :     1.572929  p :     4.673747
      px      :     1.610121
      py      :     1.490697
      dz2     :     0.006254  d :     0.027722
      dxz     :     0.006827
      dyz     :     0.007039
      dx2y2   :     0.004288
      dxy     :     0.003314
 18 C s       :     3.271062  s :     3.271062
      pz      :     0.910832  p :     2.856145
      px      :     0.929289
      py      :     1.016024
      dz2     :     0.013788  d :     0.061682
      dxz     :     0.014329
      dyz     :     0.013630
      dx2y2   :     0.009106
      dxy     :     0.010830
 19 N s       :     3.642277  s :     3.642277
      pz      :     1.436015  p :     4.093333
      px      :     1.360951
      py      :     1.296367
      dz2     :     0.009891  d :     0.035568
      dxz     :     0.005266
      dyz     :     0.004145
      dx2y2   :     0.004712
      dxy     :     0.011555
 20 H s       :     0.663840  s :     0.663840
 21 H s       :     0.661464  s :     0.661464
 22 H s       :     0.751052  s :     0.751052
 23 C s       :     3.370464  s :     3.370464
      pz      :     1.073461  p :     3.120480
      px      :     1.125861
      py      :     0.921158
      dz2     :     0.009133  d :     0.043089
      dxz     :     0.007624
      dyz     :     0.007676
      dx2y2   :     0.008686
      dxy     :     0.009970
 24 H s       :     0.734622  s :     0.734622
 25 H s       :     0.759963  s :     0.759963
 26 C s       :     3.140598  s :     3.140598
      pz      :     0.867762  p :     2.669560
      px      :     0.850853
      py      :     0.950945
      dz2     :     0.009217  d :     0.045377
      dxz     :     0.010985
      dyz     :     0.007092
      dx2y2   :     0.008691
      dxy     :     0.009392
 27 C s       :     3.281297  s :     3.281297
      pz      :     1.051888  p :     2.975229
      px      :     0.919513
      py      :     1.003828
      dz2     :     0.006843  d :     0.039387
      dxz     :     0.010034
      dyz     :     0.006375
      dx2y2   :     0.007994
      dxy     :     0.008141
 28 H s       :     0.778393  s :     0.778393
 29 C s       :     3.254802  s :     3.254802
      pz      :     0.925176  p :     2.925691
      px      :     1.065519
      py      :     0.934996
      dz2     :     0.008730  d :     0.039498
      dxz     :     0.009353
      dyz     :     0.006404
      dx2y2   :     0.009063
      dxy     :     0.005949
 30 H s       :     0.722995  s :     0.722995
 31 C s       :     3.257764  s :     3.257764
      pz      :     0.980484  p :     2.940394
      px      :     0.949100
      py      :     1.010810
      dz2     :     0.007002  d :     0.039589
      dxz     :     0.010883
      dyz     :     0.006517
      dx2y2   :     0.006390
      dxy     :     0.008797
 32 H s       :     0.773195  s :     0.773195
 33 C s       :     3.243303  s :     3.243303
      pz      :     1.015842  p :     2.926002
      px      :     0.926924
      py      :     0.983236
      dz2     :     0.006613  d :     0.039781
      dxz     :     0.010585
      dyz     :     0.006263
      dx2y2   :     0.007850
      dxy     :     0.008469
 34 H s       :     0.784147  s :     0.784147
 35 C s       :     3.278821  s :     3.278821
      pz      :     0.939878  p :     2.949882
      px      :     1.042360
      py      :     0.967645
      dz2     :     0.008996  d :     0.039444
      dxz     :     0.008702
      dyz     :     0.006391
      dx2y2   :     0.009802
      dxy     :     0.005553
 36 H s       :     0.806522  s :     0.806522


                     *******************************
                     * LOEWDIN POPULATION ANALYSIS *
                     *******************************

----------------------
LOEWDIN ATOMIC CHARGES
----------------------
   0 O :   -0.226179
   1 C :    0.117724
   2 O :   -0.299559
   3 H :    0.328197
   4 C :   -0.185032
   5 H :    0.147376
   6 H :    0.154926
   7 N :   -0.221379
   8 H :    0.279696
   9 C :    0.116576
  10 O :   -0.301775
  11 C :   -0.160579
  12 H :    0.155017
  13 H :    0.152319
  14 N :   -0.209776
  15 H :    0.279336
  16 C :    0.116460
  17 O :   -0.307357
  18 C :   -0.100479
  19 N :   -0.459388
  20 H :    0.232227
  21 H :    0.231973
  22 H :    0.130411
  23 C :   -0.215208
  24 H :    0.149985
  25 H :    0.134978
  26 C :   -0.062898
  27 C :   -0.138249
  28 H :    0.137309
  29 C :   -0.125412
  30 H :    0.157630
  31 C :   -0.133082
  32 H :    0.139265
  33 C :   -0.137051
  34 H :    0.134626
  35 C :   -0.140768
  36 H :    0.128141

-------------------------------
LOEWDIN REDUCED ORBITAL CHARGES
-------------------------------
  0 O s       :     3.518876  s :     3.518876
      pz      :     1.600552  p :     4.651147
      px      :     1.408349
      py      :     1.642245
      dz2     :     0.012859  d :     0.056156
      dxz     :     0.009221
      dyz     :     0.020302
      dx2y2   :     0.007100
      dxy     :     0.006673
  1 C s       :     2.841019  s :     2.841019
      pz      :     0.943074  p :     2.732625
      px      :     0.763659
      py      :     1.025892
      dz2     :     0.121274  d :     0.308632
      dxz     :     0.056173
      dyz     :     0.082035
      dx2y2   :     0.031152
      dxy     :     0.017997
  2 O s       :     3.491923  s :     3.491923
      pz      :     1.353546  p :     4.753800
      px      :     1.744922
      py      :     1.655332
      dz2     :     0.013552  d :     0.053837
      dxz     :     0.007461
      dyz     :     0.022746
      dx2y2   :     0.005938
      dxy     :     0.004140
  3 H s       :     0.671803  s :     0.671803
  4 C s       :     2.915158  s :     2.915158
      pz      :     1.114819  p :     3.156318
      px      :     0.966870
      py      :     1.074629
      dz2     :     0.024476  d :     0.113557
      dxz     :     0.018003
      dyz     :     0.010032
      dx2y2   :     0.031899
      dxy     :     0.029147
  5 H s       :     0.852624  s :     0.852624
  6 H s       :     0.845074  s :     0.845074
  7 N s       :     3.106934  s :     3.106934
      pz      :     1.222626  p :     4.031865
      px      :     1.262681
      py      :     1.546558
      dz2     :     0.023341  d :     0.082579
      dxz     :     0.029724
      dyz     :     0.011388
      dx2y2   :     0.009253
      dxy     :     0.008872
  8 H s       :     0.720304  s :     0.720304
  9 C s       :     2.828290  s :     2.828290
      pz      :     0.986836  p :     2.783481
      px      :     0.986102
      py      :     0.810543
      dz2     :     0.100122  d :     0.271652
      dxz     :     0.063886
      dyz     :     0.056011
      dx2y2   :     0.024503
      dxy     :     0.027131
 10 O s       :     3.523066  s :     3.523066
      pz      :     1.631362  p :     4.724843
      px      :     1.582739
      py      :     1.510741
      dz2     :     0.011738  d :     0.053867
      dxz     :     0.018468
      dyz     :     0.009245
      dx2y2   :     0.007353
      dxy     :     0.007063
 11 C s       :     2.904205  s :     2.904205
      pz      :     1.109487  p :     3.141799
      px      :     0.958313
      py      :     1.073999
      dz2     :     0.026627  d :     0.114575
      dxz     :     0.015239
      dyz     :     0.010183
      dx2y2   :     0.035706
      dxy     :     0.026819
 12 H s       :     0.844983  s :     0.844983
 13 H s       :     0.847681  s :     0.847681
 14 N s       :     3.098985  s :     3.098985
      pz      :     1.241957  p :     4.027292
      px      :     1.309469
      py      :     1.475866
      dz2     :     0.021244  d :     0.083500
      dxz     :     0.027239
      dyz     :     0.015034
      dx2y2   :     0.008659
      dxy     :     0.011324
 15 H s       :     0.720664  s :     0.720664
 16 C s       :     2.829268  s :     2.829268
      pz      :     0.974211  p :     2.780529
      px      :     0.979309
      py      :     0.827009
      dz2     :     0.100460  d :     0.273743
      dxz     :     0.062906
      dyz     :     0.053307
      dx2y2   :     0.026226
      dxy     :     0.030844
 17 O s       :     3.522431  s :     3.522431
      pz      :     1.603367  p :     4.731179
      px      :     1.625726
      py      :     1.502087
      dz2     :     0.012522  d :     0.053746
      dxz     :     0.014281
      dyz     :     0.012957
      dx2y2   :     0.006266
      dxy     :     0.007720
 18 C s       :     2.876488  s :     2.876488
      pz      :     0.996870  p :     3.088346
      px      :     1.017462
      py      :     1.074014
      dz2     :     0.031168  d :     0.135645
      dxz     :     0.031185
      dyz     :     0.028692
      dx2y2   :     0.021032
      dxy     :     0.023567
 19 N s       :     3.247007  s :     3.247007
      pz      :     1.488444  p :     4.147971
      px      :     1.364033
      py      :     1.295494
      dz2     :     0.017073  d :     0.064410
      dxz     :     0.011186
      dyz     :     0.008891
      dx2y2   :     0.008036
      dxy     :     0.019224
 20 H s       :     0.767773  s :     0.767773
 21 H s       :     0.768027  s :     0.768027
 22 H s       :     0.869589  s :     0.869589
 23 C s       :     2.902798  s :     2.902798
      pz      :     1.088593  p :     3.223236
      px      :     1.099317
      py      :     1.035326
      dz2     :     0.017515  d :     0.089174
      dxz     :     0.014707
      dyz     :     0.017501
      dx2y2   :     0.018825
      dxy     :     0.020627
 24 H s       :     0.850015  s :     0.850015
 25 H s       :     0.865022  s :     0.865022
 26 C s       :     2.847611  s :     2.847611
      pz      :     1.038931  p :     3.106074
      px      :     1.069887
      py      :     0.997256
      dz2     :     0.021249  d :     0.109213
      dxz     :     0.028749
      dyz     :     0.016245
      dx2y2   :     0.020855
      dxy     :     0.022115
 27 C s       :     2.892555  s :     2.892555
      pz      :     1.054521  p :     3.156596
      px      :     1.068362
      py      :     1.033712
      dz2     :     0.015075  d :     0.089099
      dxz     :     0.023029
      dyz     :     0.011866
      dx2y2   :     0.019460
      dxy     :     0.019669
 28 H s       :     0.862691  s :     0.862691
 29 C s       :     2.896992  s :     2.896992
      pz      :     1.044946  p :     3.139352
      px      :     1.087779
      py      :     1.006627
      dz2     :     0.019810  d :     0.089068
      dxz     :     0.021777
      dyz     :     0.016195
      dx2y2   :     0.017927
      dxy     :     0.013359
 30 H s       :     0.842370  s :     0.842370
 31 C s       :     2.894343  s :     2.894343
      pz      :     1.053849  p :     3.149289
      px      :     1.075889
      py      :     1.019550
      dz2     :     0.016124  d :     0.089450
      dxz     :     0.026400
      dyz     :     0.012902
      dx2y2   :     0.015644
      dxy     :     0.018380
 32 H s       :     0.860735  s :     0.860735
 33 C s       :     2.893191  s :     2.893191
      pz      :     1.048164  p :     3.153829
      px      :     1.084620
      py      :     1.021045
      dz2     :     0.014379  d :     0.090031
      dxz     :     0.024672
      dyz     :     0.011575
      dx2y2   :     0.019211
      dxy     :     0.020195
 34 H s       :     0.865374  s :     0.865374
 35 C s       :     2.890521  s :     2.890521
      pz      :     1.051559  p :     3.160778
      px      :     1.073628
      py      :     1.035591
      dz2     :     0.020439  d :     0.089470
      dxz     :     0.020452
      dyz     :     0.016126
      dx2y2   :     0.019663
      dxy     :     0.012791
 36 H s       :     0.871859  s :     0.871859


                      *****************************
                      * MAYER POPULATION ANALYSIS *
                      *****************************

  NA   - Mulliken gross atomic population
  ZA   - Total nuclear charge
  QA   - Mulliken gross atomic charge
  VA   - Mayer's total valence
  BVA  - Mayer's bonded valence
  FA   - Mayer's free valence

  ATOM       NA         ZA         QA         VA         BVA        FA
  0 O      8.4016     8.0000    -0.4016     2.1921     2.1921     0.0000
  1 C      5.4459     6.0000     0.5541     4.1050     4.1050    -0.0000
  2 O      8.5929     8.0000    -0.5929     1.9891     1.9891     0.0000
  3 H      0.5237     1.0000     0.4763     0.7941     0.7941     0.0000
  4 C      6.4431     6.0000    -0.4431     3.6761     3.6761     0.0000
  5 H      0.7368     1.0000     0.2632     0.8895     0.8895     0.0000
  6 H      0.7268     1.0000     0.2732     0.8990     0.8990    -0.0000
  7 N      7.6371     7.0000    -0.6371     2.9718     2.9718    -0.0000
  8 H      0.5693     1.0000     0.4307     0.8294     0.8294    -0.0000
  9 C      5.4335     6.0000     0.5665     3.9255     3.9255     0.0000
 10 O      8.4876     8.0000    -0.4876     2.1390     2.1390     0.0000
 11 C      6.4038     6.0000    -0.4038     3.6694     3.6694    -0.0000
 12 H      0.7230     1.0000     0.2770     0.8970     0.8970     0.0000
 13 H      0.7354     1.0000     0.2646     0.8920     0.8920     0.0000
 14 N      7.6088     7.0000    -0.6088     3.0025     3.0025     0.0000
 15 H      0.5920     1.0000     0.4080     0.8288     0.8288     0.0000
 16 C      5.4422     6.0000     0.5578     3.9044     3.9044     0.0000
 17 O      8.4797     8.0000    -0.4797     2.1390     2.1390    -0.0000
 18 C      6.1889     6.0000    -0.1889     3.7345     3.7345     0.0000
 19 N      7.7712     7.0000    -0.7712     2.7686     2.7686     0.0000
 20 H      0.6638     1.0000     0.3362     0.8527     0.8527     0.0000
 21 H      0.6615     1.0000     0.3385     0.8552     0.8552     0.0000
 22 H      0.7511     1.0000     0.2489     0.8874     0.8874    -0.0000
 23 C      6.5340     6.0000    -0.5340     3.6928     3.6928    -0.0000
 24 H      0.7346     1.0000     0.2654     0.8969     0.8969     0.0000
 25 H      0.7600     1.0000     0.2400     0.9010     0.9010    -0.0000
 26 C      5.8555     6.0000     0.1445     3.6718     3.6718     0.0000
 27 C      6.2959     6.0000    -0.2959     3.8369     3.8369     0.0000
 28 H      0.7784     1.0000     0.2216     0.9200     0.9200     0.0000
 29 C      6.2200     6.0000    -0.2200     3.7763     3.7763     0.0000
 30 H      0.7230     1.0000     0.2770     0.9044     0.9044    -0.0000
 31 C      6.2377     6.0000    -0.2377     3.8185     3.8185    -0.0000
 32 H      0.7732     1.0000     0.2268     0.9105     0.9105    -0.0000
 33 C      6.2091     6.0000    -0.2091     3.8156     3.8156     0.0000
 34 H      0.7841     1.0000     0.2159     0.9124     0.9124     0.0000
 35 C      6.2681     6.0000    -0.2681     3.8303     3.8303    -0.0000
 36 H      0.8065     1.0000     0.1935     0.9300     0.9300     0.0000

  Mayer bond orders larger than 0.100000
B(  0-O ,  1-C ) :   2.0163 B(  1-C ,  2-O ) :   1.2094 B(  1-C ,  4-C ) :   0.9028 
B(  2-O ,  3-H ) :   0.6274 B(  3-H , 10-O ) :   0.1455 B(  4-C ,  5-H ) :   0.8888 
B(  4-C ,  6-H ) :   0.9021 B(  4-C ,  7-N ) :   0.9405 B(  7-N ,  8-H ) :   0.6927 
B(  7-N ,  9-C ) :   1.2481 B(  8-H , 17-O ) :   0.1169 B(  9-C , 10-O ) :   1.8063 
B(  9-C , 11-C ) :   0.8980 B( 11-C , 12-H ) :   0.9071 B( 11-C , 13-H ) :   0.8924 
B( 11-C , 14-N ) :   0.9516 B( 14-N , 15-H ) :   0.7654 B( 14-N , 16-C ) :   1.1999 
B( 16-C , 17-O ) :   1.8373 B( 16-C , 18-C ) :   0.9107 B( 18-C , 19-N ) :   1.0059 
B( 18-C , 22-H ) :   0.8871 B( 18-C , 23-C ) :   0.9599 B( 19-N , 20-H ) :   0.8529 
B( 19-N , 21-H ) :   0.8456 B( 23-C , 24-H ) :   0.9076 B( 23-C , 25-H ) :   0.9131 
B( 23-C , 26-C ) :   0.9366 B( 26-C , 27-C ) :   1.4006 B( 26-C , 35-C ) :   1.3881 
B( 27-C , 28-H ) :   0.9169 B( 27-C , 29-C ) :   1.4247 B( 29-C , 30-H ) :   0.8760 
B( 29-C , 31-C ) :   1.4245 B( 31-C , 32-H ) :   0.9180 B( 31-C , 33-C ) :   1.4158 
B( 33-C , 34-H ) :   0.9210 B( 33-C , 35-C ) :   1.4336 B( 35-C , 36-H ) :   0.9277 


-------
TIMINGS
-------

Total SCF time: 0 days 0 hours 5 min 37 sec 

Total time                  ....     337.250 sec
Sum of individual times     ....     330.494 sec  ( 98.0%)

Fock matrix formation       ....     299.723 sec  ( 88.9%)
  Split-RI-J                ....      22.305 sec  (  7.4% of F)
  Chain of spheres X        ....     225.945 sec  ( 75.4% of F)
  XC integration            ....      41.125 sec  ( 13.7% of F)
    Basis function eval.    ....      13.823 sec  ( 33.6% of XC)
    Density eval.           ....       8.724 sec  ( 21.2% of XC)
    XC-Functional eval.     ....       2.707 sec  (  6.6% of XC)
    XC-Potential eval.      ....       4.982 sec  ( 12.1% of XC)
Diagonalization             ....       1.193 sec  (  0.4%)
Density matrix formation    ....       0.230 sec  (  0.1%)
Population analysis         ....       0.081 sec  (  0.0%)
Initial guess               ....       0.210 sec  (  0.1%)
Orbital Transformation      ....       0.000 sec  (  0.0%)
Orbital Orthonormalization  ....       0.000 sec  (  0.0%)
DIIS solution               ....       4.098 sec  (  1.2%)
SOSCF solution              ....       2.406 sec  (  0.7%)
Grid generation             ....      22.552 sec  (  6.7%)

Maximum memory used throughout the entire SCF-calculation: 116.0 MB


-------------------------------------------------------------------------------
                          DFT DISPERSION CORRECTION                            
                                                                               
                              DFTD3 V3.1  Rev 1                                
                          USING Becke-Johnson damping                          
-------------------------------------------------------------------------------
The PBEh-3c composite method is recognized
Using three-body term ABC
Active option DFTDOPT                   ...         4   

molecular C6(AA) [au] = 13829.079393 


            DFT-D V3
 parameters
 s6 scaling factor         :     1.0000 
 a1 scaling factor         :     0.4860 
 s8 scaling factor         :     0.0000 
 a2 scaling factor         :     4.5000 
 Damping factor alpha9(ATM):    16.0000 
 ad hoc parameters k1-k3   :    16.0000     1.3333    -4.0000 

 Edisp/kcal,au: -17.633663610181  -0.028101028682 
 E6   /kcal   : -18.036653452 
 E8   /kcal   :  -0.000000000 
 E6(ABC)      :   0.402989841 
 % E8         :   0.000000000 
 % E6(ABC)    :  -2.285343819 

-------------------------   ----------------
Dispersion correction           -0.028101029
-------------------------   ----------------

------------------   -----------------
gCP correction             0.088291890
------------------   -----------------

-------------------------   --------------------
FINAL SINGLE POINT ENERGY      -968.744790214975
-------------------------   --------------------


                            ***************************************
                            *     ORCA property calculations      *
                            ***************************************

                                    ---------------------
                                    Active property flags
                                    ---------------------
   (+) Dipole Moment


------------------------------------------------------------------------------
                       ORCA ELECTRIC PROPERTIES CALCULATION
------------------------------------------------------------------------------

Dipole Moment Calculation                       ... on
Quadrupole Moment Calculation                   ... off
Polarizability Calculation                      ... off
GBWName                                         ... pbeh-3c.gbw
Electron density                                ... pbeh-3c.scfp
The origin for moment calculation is the CENTER OF MASS  = ( 0.681302,  0.006880  0.033189)

-------------
DIPOLE MOMENT
-------------
                                X             Y             Z
Electronic contribution:      8.92521       0.49396       0.08290
Nuclear contribution   :    -11.51661       1.02650      -0.67715
                        -----------------------------------------
Total Dipole Moment    :     -2.59141       1.52046      -0.59425
                        -----------------------------------------
Magnitude (a.u.)       :      3.06273
Magnitude (Debye)      :      7.78484



--------------------
Rotational spectrum 
--------------------
 
Rotational constants in cm-1:     0.015346     0.010095     0.007840 
Rotational constants in MHz :   460.050825   302.646327   235.043843 

 Dipole components along the rotational axes: 
x,y,z [a.u.] :    -2.591322     1.520621    -0.594208 
x,y,z [Debye]:    -6.586616     3.865111    -1.510356 

 

Timings for individual modules:

Sum of individual times         ...      342.126 sec (=   5.702 min)
GTO integral calculation        ...        3.783 sec (=   0.063 min)   1.1 %
SCF iterations                  ...      338.343 sec (=   5.639 min)  98.9 %
                             ****ORCA TERMINATED NORMALLY****
TOTAL RUN TIME: 0 days 0 hours 5 minutes 43 seconds 686 msec
