
                                 *****************
                                 * O   R   C   A *
                                 *****************

                                            #,                                       
                                            ###                                      
                                            ####                                     
                                            #####                                    
                                            ######                                   
                                           ########,                                 
                                     ,,################,,,,,                         
                               ,,#################################,,                 
                          ,,##########################################,,             
                       ,#########################################, ''#####,          
                    ,#############################################,,   '####,        
                  ,##################################################,,,,####,       
                ,###########''''           ''''###############################       
              ,#####''   ,,,,##########,,,,          '''####'''          '####       
            ,##' ,,,,###########################,,,                        '##       
           ' ,,###''''                  '''############,,,                           
         ,,##''                                '''############,,,,        ,,,,,,###''
      ,#''                                            '''#######################'''  
     '                                                          ''''####''''         
             ,#######,   #######,   ,#######,      ##                                
            ,#'     '#,  ##    ##  ,#'     '#,    #''#        ######   ,####,        
            ##       ##  ##   ,#'  ##            #'  '#       #        #'  '#        
            ##       ##  #######   ##           ,######,      #####,   #    #        
            '#,     ,#'  ##    ##  '#,     ,#' ,#      #,         ##   #,  ,#        
             '#######'   ##     ##  '#######'  #'      '#     #####' # '####'        



                  #######################################################
                  #                        -***-                        #
                  #          Department of theory and spectroscopy      #
                  #    Directorship and core code : Frank Neese         #
                  #        Max Planck Institute fuer Kohlenforschung    #
                  #                Kaiser Wilhelm Platz 1               #
                  #                 D-45470 Muelheim/Ruhr               #
                  #                      Germany                        #
                  #                                                     #
                  #                  All rights reserved                #
                  #                        -***-                        #
                  #######################################################


                         Program Version 5.0.3 -  RELEASE  -


 With contributions from (in alphabetic order):
   Daniel Aravena         : Magnetic Suceptibility
   Michael Atanasov       : Ab Initio Ligand Field Theory (pilot matlab implementation)
   Alexander A. Auer      : GIAO ZORA, VPT2 properties, NMR spectrum
   Ute Becker             : Parallelization
   Giovanni Bistoni       : ED, misc. LED, open-shell LED, HFLD
   Martin Brehm           : Molecular dynamics
   Dmytro Bykov           : SCF Hessian
   Vijay G. Chilkuri      : MRCI spin determinant printing, contributions to CSF-ICE
   Dipayan Datta          : RHF DLPNO-CCSD density
   Achintya Kumar Dutta   : EOM-CC, STEOM-CC
   Dmitry Ganyushin       : Spin-Orbit,Spin-Spin,Magnetic field MRCI
   Miquel Garcia          : C-PCM and meta-GGA Hessian, CC/C-PCM, Gaussian charge scheme
   Yang Guo               : DLPNO-NEVPT2, F12-NEVPT2, CIM, IAO-localization
   Andreas Hansen         : Spin unrestricted coupled pair/coupled cluster methods
   Benjamin Helmich-Paris : MC-RPA, TRAH-SCF, COSX integrals
   Lee Huntington         : MR-EOM, pCC
   Robert Izsak           : Overlap fitted RIJCOSX, COSX-SCS-MP3, EOM
   Marcus Kettner         : VPT2
   Christian Kollmar      : KDIIS, OOCD, Brueckner-CCSD(T), CCSD density, CASPT2, CASPT2-K
   Simone Kossmann        : Meta GGA functionals, TD-DFT gradient, OOMP2, MP2 Hessian
   Martin Krupicka        : Initial AUTO-CI
   Lucas Lang             : DCDCAS
   Marvin Lechner         : AUTO-CI (C++ implementation), FIC-MRCC
   Dagmar Lenk            : GEPOL surface, SMD
   Dimitrios Liakos       : Extrapolation schemes; Compound Job, initial MDCI parallelization
   Dimitrios Manganas     : Further ROCIS development; embedding schemes
   Dimitrios Pantazis     : SARC Basis sets
   Anastasios Papadopoulos: AUTO-CI, single reference methods and gradients
   Taras Petrenko         : DFT Hessian,TD-DFT gradient, ASA, ECA, R-Raman, ABS, FL, XAS/XES, NRVS
   Peter Pinski           : DLPNO-MP2, DLPNO-MP2 Gradient
   Christoph Reimann      : Effective Core Potentials
   Marius Retegan         : Local ZFS, SOC
   Christoph Riplinger    : Optimizer, TS searches, QM/MM, DLPNO-CCSD(T), (RO)-DLPNO pert. Triples
   Tobias Risthaus        : Range-separated hybrids, TD-DFT gradient, RPA, STAB
   Michael Roemelt        : Original ROCIS implementation
   Masaaki Saitow         : Open-shell DLPNO-CCSD energy and density
   Barbara Sandhoefer     : DKH picture change effects
   Avijit Sen             : IP-ROCIS
   Kantharuban Sivalingam : CASSCF convergence, NEVPT2, FIC-MRCI
   Bernardo de Souza      : ESD, SOC TD-DFT
   Georgi Stoychev        : AutoAux, RI-MP2 NMR, DLPNO-MP2 response
   Willem Van den Heuvel  : Paramagnetic NMR
   Boris Wezisla          : Elementary symmetry handling
   Frank Wennmohs         : Technical directorship


 We gratefully acknowledge several colleagues who have allowed us to
 interface, adapt or use parts of their codes:
   Stefan Grimme, W. Hujo, H. Kruse, P. Pracht,  : VdW corrections, initial TS optimization,
                  C. Bannwarth, S. Ehlert          DFT functionals, gCP, sTDA/sTD-DF
   Ed Valeev, F. Pavosevic, A. Kumar             : LibInt (2-el integral package), F12 methods
   Garnet Chan, S. Sharma, J. Yang, R. Olivares  : DMRG
   Ulf Ekstrom                                   : XCFun DFT Library
   Mihaly Kallay                                 : mrcc  (arbitrary order and MRCC methods)
   Jiri Pittner, Ondrej Demel                    : Mk-CCSD
   Frank Weinhold                                : gennbo (NPA and NBO analysis)
   Christopher J. Cramer and Donald G. Truhlar   : smd solvation model
   Lars Goerigk                                  : TD-DFT with DH, B97 family of functionals
   V. Asgeirsson, H. Jonsson                     : NEB implementation
   FAccTs GmbH                                   : IRC, NEB, NEB-TS, DLPNO-Multilevel, CI-OPT
                                                   MM, QMMM, 2- and 3-layer-ONIOM, Crystal-QMMM,
                                                   LR-CPCM, SF, NACMEs, symmetry and pop. for TD-DFT,
                                                   nearIR, NL-DFT gradient (VV10), updates on ESD,
                                                   ML-optimized integration grids
   S Lehtola, MJT Oliveira, MAL Marques          : LibXC Library
   Liviu Ungur et al                             : ANISO software


 Your calculation uses the libint2 library for the computation of 2-el integrals
 For citations please refer to: http://libint.valeyev.net

 Your ORCA version has been built with support for libXC version: 5.1.0
 For citations please refer to: https://tddft.org/programs/libxc/

 This ORCA versions uses:
   CBLAS   interface :  Fast vector & matrix operations
   LAPACKE interface :  Fast linear algebra routines
   SCALAPACK package :  Parallel linear algebra routines
   Shared memory     :  Shared parallel matrices
   BLAS/LAPACK       :  OpenBLAS 0.3.15  USE64BITINT DYNAMIC_ARCH NO_AFFINITY Haswell SINGLE_THREADED
        Core in use  :  Haswell
   Copyright (c) 2011-2014, The OpenBLAS Project




***************************************
The coordinates will be read from file: 56A.xyz
***************************************


Your calculation utilizes the geometrical counterpoise correction gCP
Please cite in your paper:
H.Kruse, S. Grimme J.Chem.Phys., 136, (2012), 154101 
   

Your calculation utilizes the atom-pairwise dispersion correction
with the Becke-Johnson damping scheme (D3BJ)
Cite in your paper:
S.Grimme, S.Ehrlich, L.Goerigk, J Comput Chem, (2011), 32, 1456–1465 
S.Grimme, J.Antony, S.Ehrlich and H.Krieg, J.Chem.Phys., 132, (2010), 154104 
   

Your calculation employs the composite approach PBEh-3c.
Please cite in your paper:
S. Grimme, J. G. Brandenburg, C. Bannwarth, A. Hansen J.Chem.Phys., 143, (2015), 054107 
   

================================================================================

----- Orbital basis set information -----
Your calculation utilizes the basis: def2-mSVP

----- AuxJ basis set information -----
Your calculation utilizes the auxiliary basis: def2/J
   F. Weigend, Phys. Chem. Chem. Phys. 8, 1057 (2006).

================================================================================
                                        WARNINGS
                       Please study these warnings very carefully!
================================================================================


INFO   : the flag for use of the SHARK integral package has been found!

================================================================================
                                       INPUT FILE
================================================================================
NAME = pbeh-3c.inp
|  1> ! PBEh-3c def2/J TightSCF DefGrid3
|  2> 
|  3> %maxcore 60000
|  4> 
|  5> %pal
|  6> nprocs 4
|  7> end
|  8> 
|  9> *xyzfile 0 1 56A.xyz
| 10> 
| 11>                          ****END OF INPUT****
================================================================================

                       ****************************
                       * Single Point Calculation *
                       ****************************

---------------------------------
CARTESIAN COORDINATES (ANGSTROEM)
---------------------------------
  C      1.207297    0.697033    0.000000
  H      2.143842    1.237748    0.000000
  C      1.207297   -0.697033    0.000000
  H      2.143842   -1.237748    0.000000
  C      0.000000   -1.394067    0.000000
  H      0.000000   -2.475496    0.000000
  C     -1.207297   -0.697033    0.000000
  H     -2.143842   -1.237748    0.000000
  C     -1.207297    0.697033    0.000000
  H     -2.143842    1.237748    0.000000
  C      0.000000    1.394067    0.000000
  H      0.000000    2.475496    0.000000

----------------------------
CARTESIAN COORDINATES (A.U.)
----------------------------
  NO LB      ZA    FRAG     MASS         X           Y           Z
   0 C     6.0000    0    12.011    2.281461    1.317202    0.000000
   1 H     1.0000    0     1.008    4.051275    2.339005    0.000000
   2 C     6.0000    0    12.011    2.281461   -1.317202    0.000000
   3 H     1.0000    0     1.008    4.051275   -2.339005    0.000000
   4 C     6.0000    0    12.011    0.000000   -2.634404    0.000000
   5 H     1.0000    0     1.008    0.000000   -4.678009    0.000000
   6 C     6.0000    0    12.011   -2.281461   -1.317202    0.000000
   7 H     1.0000    0     1.008   -4.051275   -2.339005    0.000000
   8 C     6.0000    0    12.011   -2.281461    1.317202    0.000000
   9 H     1.0000    0     1.008   -4.051275    2.339005    0.000000
  10 C     6.0000    0    12.011    0.000000    2.634404    0.000000
  11 H     1.0000    0     1.008    0.000000    4.678009    0.000000

--------------------------------
INTERNAL COORDINATES (ANGSTROEM)
--------------------------------
 C      0   0   0     0.000000000000     0.00000000     0.00000000
 H      1   0   0     1.081429371595     0.00000000     0.00000000
 C      1   2   0     1.394066600000   120.00000087     0.00000000
 H      3   1   2     1.081429371595   120.00000087     0.00000000
 C      3   1   2     1.394066608515   119.99999980   180.00000000
 H      5   3   1     1.081429400000   119.99999980   180.00000085
 C      5   3   1     1.394066608515   120.00000040     0.00000000
 H      7   5   3     1.081429371595   119.99999933   180.00000000
 C      7   5   3     1.394066600000   119.99999980     0.00000000
 H      9   7   5     1.081429371595   120.00000087   180.00000000
 C      1   2   3     1.394066608515   119.99999933   180.00000000
 H     11   1   2     1.081429400000   119.99999980     0.00000000

---------------------------
INTERNAL COORDINATES (A.U.)
---------------------------
 C      0   0   0     0.000000000000     0.00000000     0.00000000
 H      1   0   0     2.043605345493     0.00000000     0.00000000
 C      1   2   0     2.634404086447   120.00000087     0.00000000
 H      3   1   2     2.043605345493   120.00000087     0.00000000
 C      3   1   2     2.634404102538   119.99999980   180.00000000
 H      5   3   1     2.043605399171   119.99999980   180.00000085
 C      5   3   1     2.634404102538   120.00000040     0.00000000
 H      7   5   3     2.043605345493   119.99999933   180.00000000
 C      7   5   3     2.634404086447   119.99999980     0.00000000
 H      9   7   5     2.043605345493   120.00000087   180.00000000
 C      1   2   3     2.634404102538   119.99999933   180.00000000
 H     11   1   2     2.043605399171   119.99999980     0.00000000

---------------------
BASIS SET INFORMATION
---------------------
There are 2 groups of distinct atoms

 Group   1 Type C   : 8s4p1d contracted to 4s2p1d pattern {5111/31/1}
 Group   2 Type H   : 4s contracted to 2s pattern {31}

Atom   0C    basis set group =>   1
Atom   1H    basis set group =>   2
Atom   2C    basis set group =>   1
Atom   3H    basis set group =>   2
Atom   4C    basis set group =>   1
Atom   5H    basis set group =>   2
Atom   6C    basis set group =>   1
Atom   7H    basis set group =>   2
Atom   8C    basis set group =>   1
Atom   9H    basis set group =>   2
Atom  10C    basis set group =>   1
Atom  11H    basis set group =>   2
---------------------------------
AUXILIARY/J BASIS SET INFORMATION
---------------------------------
There are 2 groups of distinct atoms

 Group   1 Type C   : 12s5p4d2f1g contracted to 6s4p3d1f1g pattern {711111/2111/211/2/1}
 Group   2 Type H   : 5s2p1d contracted to 3s1p1d pattern {311/2/1}

Atom   0C    basis set group =>   1
Atom   1H    basis set group =>   2
Atom   2C    basis set group =>   1
Atom   3H    basis set group =>   2
Atom   4C    basis set group =>   1
Atom   5H    basis set group =>   2
Atom   6C    basis set group =>   1
Atom   7H    basis set group =>   2
Atom   8C    basis set group =>   1
Atom   9H    basis set group =>   2
Atom  10C    basis set group =>   1
Atom  11H    basis set group =>   2


           ************************************************************
           *        Program running with 4 parallel MPI-processes     *
           *              working on a common directory               *
           ************************************************************
------------------------------------------------------------------------------
                           ORCA GTO INTEGRAL CALCULATION
                           -- RI-GTO INTEGRALS CHOSEN --
------------------------------------------------------------------------------
------------------------------------------------------------------------------
                   ___                                                        
                  /   \      - P O W E R E D   B Y -                         
                 /     \                                                     
                 |  |  |   _    _      __       _____    __    __             
                 |  |  |  | |  | |    /  \     |  _  \  |  |  /  |          
                  \  \/   | |  | |   /    \    | | | |  |  | /  /          
                 / \  \   | |__| |  /  /\  \   | |_| |  |  |/  /          
                |  |  |   |  __  | /  /__\  \  |    /   |      \           
                |  |  |   | |  | | |   __   |  |    \   |  |\   \          
                \     /   | |  | | |  |  |  |  | |\  \  |  | \   \       
                 \___/    |_|  |_| |__|  |__|  |_| \__\ |__|  \__/        
                                                                              
                      - O R C A' S   B I G   F R I E N D -                    
                                      &                                       
                       - I N T E G R A L  F E E D E R -                       
                                                                              
 v1 FN, 2020, v2 2021                                                         
------------------------------------------------------------------------------


Reading SHARK input file pbeh-3c.SHARKINP.tmp ... ok
----------------------
SHARK INTEGRAL PACKAGE
----------------------

Number of atoms                             ...     12
Number of basis functions                   ...    102
Number of shells                            ...     54
Maximum angular momentum                    ...      2
Integral batch strategy                     ... SHARK/LIBINT Hybrid
RI-J (if used) integral strategy            ... SPLIT-RIJ (Revised 2003 algorithm where possible)
Printlevel                                  ...      1
Contraction scheme used                     ... SEGMENTED contraction
Coulomb Range Separation                    ... NOT USED
Exchange Range Separation                   ... NOT USED
Finite Nucleus Model                        ... NOT USED
Auxiliary Coulomb fitting basis             ... AVAILABLE
   # of basis functions in Aux-J            ...    360
   # of shells in Aux-J                     ...    120
   Maximum angular momentum in Aux-J        ...      4
Auxiliary J/K fitting basis                 ... NOT available
Auxiliary Correlation fitting basis         ... NOT available
Auxiliary 'external' fitting basis          ... NOT available
Integral threshold                          ...     2.500000e-11
Primitive cut-off                           ...     2.500000e-12
Primitive pair pre-selection threshold      ...     2.500000e-12

Calculating pre-screening integrals         ... done (  0.1 sec) Dimension = 54
Organizing shell pair data                  ... done (  0.3 sec)
Shell pair information
Total number of shell pairs                 ...      1485
Shell pairs after pre-screening             ...      1428
Total number of primitive shell pairs       ...      5349
Primitive shell pairs kept                  ...      3915
          la=0 lb=0:    609 shell pairs
          la=1 lb=0:    432 shell pairs
          la=1 lb=1:     78 shell pairs
          la=2 lb=0:    216 shell pairs
          la=2 lb=1:     72 shell pairs
          la=2 lb=2:     21 shell pairs

Calculating one electron integrals          ... done (  0.0 sec)
Calculating RI/J V-Matrix + Cholesky decomp.... done (  0.5 sec)
Calculating Nuclear repulsion               ... done (  0.0 sec) ENN=    203.660323579779 Eh

SHARK setup successfully completed in   2.4 seconds

Maximum memory used throughout the entire GTOINT-calculation: 10.2 MB


           ************************************************************
           *        Program running with 4 parallel MPI-processes     *
           *              working on a common directory               *
           ************************************************************
-------------------------------------------------------------------------------
                                 ORCA SCF
-------------------------------------------------------------------------------

------------
SCF SETTINGS
------------
Hamiltonian:
 Density Functional     Method          .... DFT(GTOs)
 Exchange Functional    Exchange        .... PBE
   PBE kappa parameter   XKappa         ....  1.024500
   PBE mue parameter    XMuePBE         ....  0.123457
 Correlation Functional Correlation     .... PBE
   PBE beta parameter  CBetaPBE         ....  0.030000
 LDA part of GGA corr.  LDAOpt          .... PW91-LDA
 Gradients option       PostSCFGGA      .... off
 Hybrid DFT is turned on
   Fraction HF Exchange ScalHFX         ....  0.420000
   Scaling of DF-GGA-X  ScalDFX         ....  0.580000
   Scaling of DF-GGA-C  ScalDFC         ....  1.000000
   Scaling of DF-LDA-C  ScalLDAC        ....  1.000000
   Perturbative correction              ....  0.000000
   Density functional embedding theory  .... OFF
 RI-approximation to the Coulomb term is turned on
   Number of AuxJ basis functions       .... 360
   RIJ-ON(X) (HFX calculated with O(N)) .... on
   Number of AuxJ basis functions       .... 360
   RIJ-COSX (HFX calculated with COS-X)).... on


General Settings:
 Integral files         IntName         .... pbeh-3c
 Hartree-Fock type      HFTyp           .... RHF
 Total Charge           Charge          ....    0
 Multiplicity           Mult            ....    1
 Number of Electrons    NEL             ....   42
 Basis Dimension        Dim             ....  102
 Nuclear Repulsion      ENuc            ....    203.6603235798 Eh

Convergence Acceleration:
 DIIS                   CNVDIIS         .... on
   Start iteration      DIISMaxIt       ....    12
   Startup error        DIISStart       ....  0.200000
   # of expansion vecs  DIISMaxEq       ....     5
   Bias factor          DIISBfac        ....   1.050
   Max. coefficient     DIISMaxC        ....  10.000
 Trust-Rad. Augm. Hess. CNVTRAH         .... auto
   Auto Start mean grad. ratio tolernc. ....  1.125000
   Auto Start start iteration           ....    20
   Auto Start num. interpolation iter.  ....    10
   Max. Number of Micro iterations      ....    16
   Max. Number of Macro iterations      .... Maxiter - #DIIS iter
   Number of Davidson start vectors     ....     2
   Converg. threshold I  (grad. norm)   ....   1.000e-05
   Converg. threshold II (energy diff.) ....   1.000e-08
   Grad. Scal. Fac. for Micro threshold ....   0.100
   Minimum threshold for Micro iter.    ....   0.010
   NR start threshold (gradient norm)   ....   0.001
   Initial trust radius                 ....   0.400
   Minimum AH scaling param. (alpha)    ....   1.000
   Maximum AH scaling param. (alpha)    .... 1000.000
   Orbital update algorithm             .... Taylor
   White noise on init. David. guess    .... on
   Maximum white noise                  ....   0.010
   Quad. conv. algorithm                .... NR
   COSX micro iterations for RIJONX calc.... off
 SOSCF                  CNVSOSCF        .... on
   Start iteration      SOSCFMaxIt      ....   150
   Startup grad/error   SOSCFStart      ....  0.003300
 Level Shifting         CNVShift        .... on
   Level shift para.    LevelShift      ....    0.2500
   Turn off err/grad.   ShiftErr        ....    0.0010
 Zerner damping         CNVZerner       .... off
 Static damping         CNVDamp         .... on
   Fraction old density DampFac         ....    0.7000
   Max. Damping (<1)    DampMax         ....    0.9800
   Min. Damping (>=0)   DampMin         ....    0.0000
   Turn off err/grad.   DampErr         ....    0.1000
 Fernandez-Rico         CNVRico         .... off

SCF Procedure:
 Maximum # iterations   MaxIter         ....   125
 SCF integral mode      SCFMode         .... Direct
   Integral package                     .... SHARK and LIBINT hybrid scheme
 Reset frequency        DirectResetFreq ....    20
 Integral Threshold     Thresh          ....  2.500e-11 Eh
 Primitive CutOff       TCut            ....  2.500e-12 Eh

Convergence Tolerance:
 Convergence Check Mode ConvCheckMode   .... Total+1el-Energy
 Convergence forced     ConvForced      .... 0
 Energy Change          TolE            ....  1.000e-08 Eh
 1-El. energy change                    ....  1.000e-05 Eh
 Orbital Gradient       TolG            ....  1.000e-05
 Orbital Rotation angle TolX            ....  1.000e-05
 DIIS Error             TolErr          ....  5.000e-07


Diagonalization of the overlap matrix:
Smallest eigenvalue                        ... 4.889e-04
Time for diagonalization                   ...    0.002 sec
Threshold for overlap eigenvalues          ... 1.000e-08
Number of eigenvalues below threshold      ... 0
Time for construction of square roots      ...    0.194 sec
Total time needed                          ...    0.242 sec

--------------------------------
INITIAL GUESS: MINIMAL BASIS EHT
--------------------------------
The minimal basis has 36 functions
EHT matrix was diagonalized
Basis set overlap was calculated now projecting the orbitals
Using GuessMode=FMatrix for the initial guess
C*T matrix was formed
Effective Fockian was calculated
Effective Fockian was diagonalized
Initial density was built
                      ------------------
                      INITIAL GUESS DONE
                      ------------------
-------------------
DFT GRID GENERATION
-------------------

General Integration Accuracy     IntAcc      ... 4.959
Radial Grid Type                 RadialGrid  ... OptM3 with GC (2021)
Angular Grid (max. ang.)         AngularGrid ... 6 (Lebedev-590)
Angular grid pruning method      GridPruning ... 4 (adaptive)
Weight generation scheme         WeightScheme... Becke
Basis function cutoff            BFCut       ... 1.0000e-11
Integration weight cutoff        WCut        ... 1.0000e-14
Angular grids for H and He will be reduced by one unit
Partially contracted basis set               ... off
Rotationally invariant grid construction     ... off

Total number of grid points                  ...   138502
Total number of batches                      ...     2172
Average number of points per batch           ...       63
Average number of grid points per atom       ...    11542
Time for grid setup =    2.358 sec

--------------------
COSX GRID GENERATION
--------------------

GRIDX 1
-------
General Integration Accuracy     IntAcc      ... 4.020
Radial Grid Type                 RadialGrid  ... OptM3 with GC (2021)
Angular Grid (max. ang.)         AngularGrid ... 2 (Lebedev-110)
Angular grid pruning method      GridPruning ... 4 (adaptive)
Weight generation scheme         WeightScheme... Becke
Basis function cutoff            BFCut       ... 1.0000e-11
Integration weight cutoff        WCut        ... 1.0000e-14
Angular grids for H and He will be reduced by one unit
Partially contracted basis set               ... on
Rotationally invariant grid construction     ... off

Total number of grid points                  ...    15456
Total number of batches                      ...      246
Average number of points per batch           ...       62
Average number of grid points per atom       ...     1288
UseSFitting                                  ... on

GRIDX 2
-------
General Integration Accuracy     IntAcc      ... 4.338
Radial Grid Type                 RadialGrid  ... OptM3 with GC (2021)
Angular Grid (max. ang.)         AngularGrid ... 3 (Lebedev-194)
Angular grid pruning method      GridPruning ... 4 (adaptive)
Weight generation scheme         WeightScheme... Becke
Basis function cutoff            BFCut       ... 1.0000e-11
Integration weight cutoff        WCut        ... 1.0000e-14
Angular grids for H and He will be reduced by one unit
Partially contracted basis set               ... on
Rotationally invariant grid construction     ... off

Total number of grid points                  ...    34018
Total number of batches                      ...      536
Average number of points per batch           ...       63
Average number of grid points per atom       ...     2835
UseSFitting                                  ... on

GRIDX 3
-------
General Integration Accuracy     IntAcc      ... 4.871
Radial Grid Type                 RadialGrid  ... OptM3 with GC (2021)
Angular Grid (max. ang.)         AngularGrid ... 4 (Lebedev-302)
Angular grid pruning method      GridPruning ... 4 (adaptive)
Weight generation scheme         WeightScheme... Becke
Basis function cutoff            BFCut       ... 1.0000e-11
Integration weight cutoff        WCut        ... 1.0000e-14
Angular grids for H and He will be reduced by one unit
Partially contracted basis set               ... on
Rotationally invariant grid construction     ... off

Total number of grid points                  ...    65276
Total number of batches                      ...     1028
Average number of points per batch           ...       63
Average number of grid points per atom       ...     5440
UseSFitting                                  ... on

Time for X-Grid setup             =    3.960 sec

--------------
SCF ITERATIONS
--------------
ITER       Energy         Delta-E        Max-DP      RMS-DP      [F,P]     Damp
               ***  Starting incremental Fock matrix formation  ***
  0   -231.1707594014   0.000000000000 0.05783467  0.00412343  0.4067198 0.7000
  1   -231.3324609350  -0.161701533598 0.04163725  0.00303958  0.2870139 0.7000
  2   -231.4492425731  -0.116781638161 0.03048482  0.00224654  0.2014365 0.7000
                               ***Turning on DIIS***
  3   -231.5327494275  -0.083506854371 0.02250557  0.00166121  0.1413776 0.7000
  4   -231.5921876427  -0.059438215206 0.05894301  0.00435992  0.0992286 0.0000
  5   -231.7348648793  -0.142677236589 0.00408671  0.00026456  0.0044220 0.0000
                      *** Initiating the SOSCF procedure ***
                           *** Shutting down DIIS ***
                      *** Re-Reading the Fockian *** 
                      *** Removing any level shift *** 
ITER      Energy       Delta-E        Grad      Rot      Max-DP    RMS-DP
  6   -231.73505438  -0.0001894962  0.001622  0.001622  0.001611  0.000073
               *** Restarting incremental Fock matrix formation ***
  7   -231.73506655  -0.0000121783  0.000329  0.000373  0.000411  0.000024
  8   -231.73506796  -0.0000014102  0.000087  0.000130  0.000141  0.000006
  9   -231.73506800  -0.0000000406  0.000039  0.000029  0.000030  0.000002
 10   -231.73506802  -0.0000000194  0.000003  0.000004  0.000005  0.000000
                 **** Energy Check signals convergence ****
              ***Rediagonalizing the Fockian in SOSCF/NRSCF***

               *****************************************************
               *                     SUCCESS                       *
               *           SCF CONVERGED AFTER  11 CYCLES          *
               *****************************************************

Old exchange energy                            =    -13.944972422 Eh
New exchange energy                            =    -13.944956689 Eh
Exchange energy change after final integration =      0.000015733 Eh
Total energy after final integration           =   -231.735052285 Eh
Final COS-X integration done in                =     2.761 sec

----------------
TOTAL SCF ENERGY
----------------

Total Energy       :         -231.73505228 Eh           -6305.83135 eV

Components:
Nuclear Repulsion  :          203.66032358 Eh            5541.87915 eV
Electronic Energy  :         -435.39537586 Eh          -11847.71050 eV
One Electron Energy:         -714.30605015 Eh          -19437.25580 eV
Two Electron Energy:          278.91067429 Eh            7589.54529 eV
Max COSX asymmetry :            0.00000059 Eh               0.00002 eV

Virial components:
Potential Energy   :         -461.54936661 Eh          -12559.39677 eV
Kinetic Energy     :          229.81431432 Eh            6253.56542 eV
Virial Ratio       :            2.00835778


DFT components:
N(Alpha)           :       21.000000505460 electrons
N(Beta)            :       21.000000505460 electrons
N(Total)           :       42.000001010919 electrons
E(X)               :      -18.509006327645 Eh       
E(C)               :       -1.801012424651 Eh       
E(XC)              :      -20.310018752296 Eh       
DFET-embed. en.    :        0.000000000000 Eh       

---------------
SCF CONVERGENCE
---------------

  Last Energy change         ...    6.5363e-09  Tolerance :   1.0000e-08
  Last MAX-Density change    ...    9.9920e-16  Tolerance :   1.0000e-07
  Last RMS-Density change    ...    4.8337e-17  Tolerance :   5.0000e-09
  Last Orbital Gradient      ...    6.4009e-07  Tolerance :   1.0000e-05
  Last Orbital Rotation      ...    7.9746e-07  Tolerance :   1.0000e-05

             **** THE GBW FILE WAS UPDATED (pbeh-3c.gbw) ****
             **** DENSITY pbeh-3c.scfp WAS UPDATED ****
             **** ENERGY FILE WAS UPDATED (pbeh-3c.en.tmp) ****
             **** THE GBW FILE WAS UPDATED (pbeh-3c.gbw) ****
             **** DENSITY pbeh-3c.scfp WAS UPDATED ****
----------------
ORBITAL ENERGIES
----------------

  NO   OCC          E(Eh)            E(eV) 
   0   2.0000     -10.448790      -284.3260 
   1   2.0000     -10.448572      -284.3201 
   2   2.0000     -10.448570      -284.3200 
   3   2.0000     -10.447959      -284.3034 
   4   2.0000     -10.447957      -284.3034 
   5   2.0000     -10.447729      -284.2972 
   6   2.0000      -0.951992       -25.9050 
   7   2.0000      -0.835430       -22.7332 
   8   2.0000      -0.835430       -22.7332 
   9   2.0000      -0.678983       -18.4761 
  10   2.0000      -0.678983       -18.4761 
  11   2.0000      -0.591974       -16.1084 
  12   2.0000      -0.526020       -14.3137 
  13   2.0000      -0.508390       -13.8340 
  14   2.0000      -0.481782       -13.1100 
  15   2.0000      -0.481780       -13.1099 
  16   2.0000      -0.420792       -11.4503 
  17   2.0000      -0.398339       -10.8394 
  18   2.0000      -0.398338       -10.8393 
  19   2.0000      -0.292441        -7.9577 
  20   2.0000      -0.292438        -7.9577 
  21   0.0000       0.019134         0.5207 
  22   0.0000       0.019135         0.5207 
  23   0.0000       0.140831         3.8322 
  24   0.0000       0.196132         5.3370 
  25   0.0000       0.201834         5.4922 
  26   0.0000       0.201838         5.4923 
  27   0.0000       0.223428         6.0798 
  28   0.0000       0.223432         6.0799 
  29   0.0000       0.254191         6.9169 
  30   0.0000       0.326861         8.8943 
  31   0.0000       0.326872         8.8946 
  32   0.0000       0.328483         8.9385 
  33   0.0000       0.328488         8.9386 
  34   0.0000       0.449709        12.2372 
  35   0.0000       0.519804        14.1446 
  36   0.0000       0.565209        15.3801 
  37   0.0000       0.588359        16.0101 
  38   0.0000       0.588365        16.0102 
  39   0.0000       0.589108        16.0304 
  40   0.0000       0.618777        16.8378 
  41   0.0000       0.618777        16.8378 
  42   0.0000       0.634187        17.2571 
  43   0.0000       0.634190        17.2572 
  44   0.0000       0.640342        17.4246 
  45   0.0000       0.656813        17.8728 
  46   0.0000       0.656821        17.8730 
  47   0.0000       0.676454        18.4072 
  48   0.0000       0.732085        19.9211 
  49   0.0000       0.749666        20.3995 
  50   0.0000       0.942736        25.6532 
  51   0.0000       0.942741        25.6533 
  52   0.0000       0.968171        26.3453 
  53   0.0000       0.968659        26.3585 
  54   0.0000       0.968664        26.3587 
  55   0.0000       1.040402        28.3108 
  56   0.0000       1.040402        28.3108 
  57   0.0000       1.044366        28.4186 
  58   0.0000       1.088537        29.6206 
  59   0.0000       1.088548        29.6209 
  60   0.0000       1.096506        29.8374 
  61   0.0000       1.096521        29.8379 
  62   0.0000       1.170141        31.8411 
  63   0.0000       1.301139        35.4058 
  64   0.0000       1.301143        35.4059 
  65   0.0000       1.306242        35.5446 
  66   0.0000       1.441199        39.2170 
  67   0.0000       1.537500        41.8375 
  68   0.0000       1.537500        41.8375 
  69   0.0000       1.567196        42.6456 
  70   0.0000       1.567196        42.6456 
  71   0.0000       1.580973        43.0205 
  72   0.0000       1.815386        49.3992 
  73   0.0000       1.816800        49.4376 
  74   0.0000       1.902261        51.7631 
  75   0.0000       2.060473        56.0683 
  76   0.0000       2.060474        56.0684 
  77   0.0000       2.135499        58.1099 
  78   0.0000       2.135499        58.1099 
  79   0.0000       2.195284        59.7367 
  80   0.0000       2.195289        59.7369 
  81   0.0000       2.203574        59.9623 
  82   0.0000       2.203575        59.9623 
  83   0.0000       2.372488        64.5587 
  84   0.0000       2.373086        64.5749 
  85   0.0000       2.373086        64.5750 
  86   0.0000       2.582601        70.2761 
  87   0.0000       2.582605        70.2763 
  88   0.0000       2.729991        74.2868 
  89   0.0000       2.742539        74.6283 
  90   0.0000       2.742540        74.6283 
  91   0.0000       2.790002        75.9198 
  92   0.0000       2.790003        75.9198 
  93   0.0000       2.839337        77.2623 
  94   0.0000       3.059252        83.2465 
  95   0.0000       3.450788        93.9007 
  96   0.0000      13.215040       359.5995 
  97   0.0000      13.631954       370.9443 
  98   0.0000      13.631959       370.9445 
  99   0.0000      14.104565       383.8047 
 100   0.0000      14.104572       383.8049 
 101   0.0000      14.542768       395.7288 

                    ********************************
                    * MULLIKEN POPULATION ANALYSIS *
                    ********************************

-----------------------
MULLIKEN ATOMIC CHARGES
-----------------------
   0 C :   -0.219875
   1 H :    0.219874
   2 C :   -0.219874
   3 H :    0.219874
   4 C :   -0.219887
   5 H :    0.219887
   6 C :   -0.219874
   7 H :    0.219875
   8 C :   -0.219874
   9 H :    0.219874
  10 C :   -0.219887
  11 H :    0.219887
Sum of atomic charges:   -0.0000000

--------------------------------
MULLIKEN REDUCED ORBITAL CHARGES
--------------------------------
  0 C s       :     3.246186  s :     3.246186
      pz      :     0.990911  p :     2.934112
      px      :     1.007782
      py      :     0.935419
      dz2     :     0.003846  d :     0.039577
      dxz     :     0.003397
      dyz     :     0.005688
      dx2y2   :     0.012178
      dxy     :     0.014468
  1 H s       :     0.780126  s :     0.780126
  2 C s       :     3.246186  s :     3.246186
      pz      :     0.990911  p :     2.934112
      px      :     1.007782
      py      :     0.935419
      dz2     :     0.003846  d :     0.039577
      dxz     :     0.003397
      dyz     :     0.005688
      dx2y2   :     0.012178
      dxy     :     0.014468
  3 H s       :     0.780126  s :     0.780126
  4 C s       :     3.246180  s :     3.246180
      pz      :     0.990921  p :     2.934131
      px      :     0.899219
      py      :     1.043991
      dz2     :     0.003846  d :     0.039577
      dxz     :     0.006833
      dyz     :     0.002252
      dx2y2   :     0.015613
      dxy     :     0.011032
  5 H s       :     0.780113  s :     0.780113
  6 C s       :     3.246185  s :     3.246185
      pz      :     0.990911  p :     2.934112
      px      :     1.007782
      py      :     0.935419
      dz2     :     0.003846  d :     0.039577
      dxz     :     0.003397
      dyz     :     0.005688
      dx2y2   :     0.012178
      dxy     :     0.014468
  7 H s       :     0.780125  s :     0.780125
  8 C s       :     3.246186  s :     3.246186
      pz      :     0.990911  p :     2.934111
      px      :     1.007782
      py      :     0.935419
      dz2     :     0.003846  d :     0.039577
      dxz     :     0.003397
      dyz     :     0.005688
      dx2y2   :     0.012178
      dxy     :     0.014468
  9 H s       :     0.780126  s :     0.780126
 10 C s       :     3.246179  s :     3.246179
      pz      :     0.990921  p :     2.934131
      px      :     0.899219
      py      :     1.043991
      dz2     :     0.003846  d :     0.039577
      dxz     :     0.006833
      dyz     :     0.002252
      dx2y2   :     0.015613
      dxy     :     0.011032
 11 H s       :     0.780113  s :     0.780113


                     *******************************
                     * LOEWDIN POPULATION ANALYSIS *
                     *******************************

----------------------
LOEWDIN ATOMIC CHARGES
----------------------
   0 C :   -0.135683
   1 H :    0.135685
   2 C :   -0.135683
   3 H :    0.135685
   4 C :   -0.135689
   5 H :    0.135684
   6 C :   -0.135683
   7 H :    0.135685
   8 C :   -0.135683
   9 H :    0.135685
  10 C :   -0.135689
  11 H :    0.135684

-------------------------------
LOEWDIN REDUCED ORBITAL CHARGES
-------------------------------
  0 C s       :     2.894473  s :     2.894473
      pz      :     0.982524  p :     3.151850
      px      :     1.081899
      py      :     1.087427
      dz2     :     0.006274  d :     0.089359
      dxz     :     0.006031
      dyz     :     0.011443
      dx2y2   :     0.030832
      dxy     :     0.034779
  1 H s       :     0.864315  s :     0.864315
  2 C s       :     2.894473  s :     2.894473
      pz      :     0.982524  p :     3.151850
      px      :     1.081900
      py      :     1.087427
      dz2     :     0.006274  d :     0.089359
      dxz     :     0.006031
      dyz     :     0.011443
      dx2y2   :     0.030832
      dxy     :     0.034779
  3 H s       :     0.864315  s :     0.864315
  4 C s       :     2.894474  s :     2.894474
      pz      :     0.982528  p :     3.151856
      px      :     1.090189
      py      :     1.079139
      dz2     :     0.006274  d :     0.089359
      dxz     :     0.014149
      dyz     :     0.003325
      dx2y2   :     0.036753
      dxy     :     0.028858
  5 H s       :     0.864316  s :     0.864316
  6 C s       :     2.894473  s :     2.894473
      pz      :     0.982524  p :     3.151850
      px      :     1.081899
      py      :     1.087427
      dz2     :     0.006274  d :     0.089359
      dxz     :     0.006031
      dyz     :     0.011443
      dx2y2   :     0.030832
      dxy     :     0.034779
  7 H s       :     0.864315  s :     0.864315
  8 C s       :     2.894473  s :     2.894473
      pz      :     0.982524  p :     3.151850
      px      :     1.081899
      py      :     1.087427
      dz2     :     0.006274  d :     0.089359
      dxz     :     0.006031
      dyz     :     0.011443
      dx2y2   :     0.030832
      dxy     :     0.034779
  9 H s       :     0.864315  s :     0.864315
 10 C s       :     2.894474  s :     2.894474
      pz      :     0.982528  p :     3.151856
      px      :     1.090189
      py      :     1.079139
      dz2     :     0.006274  d :     0.089359
      dxz     :     0.014149
      dyz     :     0.003325
      dx2y2   :     0.036753
      dxy     :     0.028858
 11 H s       :     0.864316  s :     0.864316


                      *****************************
                      * MAYER POPULATION ANALYSIS *
                      *****************************

  NA   - Mulliken gross atomic population
  ZA   - Total nuclear charge
  QA   - Mulliken gross atomic charge
  VA   - Mayer's total valence
  BVA  - Mayer's bonded valence
  FA   - Mayer's free valence

  ATOM       NA         ZA         QA         VA         BVA        FA
  0 C      6.2199     6.0000    -0.2199     3.8193     3.8193    -0.0000
  1 H      0.7801     1.0000     0.2199     0.9117     0.9117    -0.0000
  2 C      6.2199     6.0000    -0.2199     3.8193     3.8193     0.0000
  3 H      0.7801     1.0000     0.2199     0.9117     0.9117     0.0000
  4 C      6.2199     6.0000    -0.2199     3.8193     3.8193     0.0000
  5 H      0.7801     1.0000     0.2199     0.9117     0.9117     0.0000
  6 C      6.2199     6.0000    -0.2199     3.8193     3.8193     0.0000
  7 H      0.7801     1.0000     0.2199     0.9117     0.9117    -0.0000
  8 C      6.2199     6.0000    -0.2199     3.8193     3.8193     0.0000
  9 H      0.7801     1.0000     0.2199     0.9117     0.9117    -0.0000
 10 C      6.2199     6.0000    -0.2199     3.8193     3.8193    -0.0000
 11 H      0.7801     1.0000     0.2199     0.9117     0.9117    -0.0000

  Mayer bond orders larger than 0.100000
B(  0-C ,  1-H ) :   0.9200 B(  0-C ,  2-C ) :   1.4265 B(  0-C , 10-C ) :   1.4265 
B(  2-C ,  3-H ) :   0.9200 B(  2-C ,  4-C ) :   1.4265 B(  4-C ,  5-H ) :   0.9200 
B(  4-C ,  6-C ) :   1.4265 B(  6-C ,  7-H ) :   0.9200 B(  6-C ,  8-C ) :   1.4265 
B(  8-C ,  9-H ) :   0.9200 B(  8-C , 10-C ) :   1.4265 B( 10-C , 11-H ) :   0.9200 


-------
TIMINGS
-------

Total SCF time: 0 days 0 hours 1 min 9 sec 

Total time                  ....      69.159 sec
Sum of individual times     ....      63.018 sec  ( 91.1%)

Fock matrix formation       ....      51.294 sec  ( 74.2%)
  Split-RI-J                ....       6.303 sec  ( 12.3% of F)
  Chain of spheres X        ....      16.826 sec  ( 32.8% of F)
  XC integration            ....      14.198 sec  ( 27.7% of F)
    Basis function eval.    ....       1.955 sec  ( 13.8% of XC)
    Density eval.           ....       1.157 sec  (  8.1% of XC)
    XC-Functional eval.     ....       1.083 sec  (  7.6% of XC)
    XC-Potential eval.      ....       0.830 sec  (  5.8% of XC)
Diagonalization             ....       0.717 sec  (  1.0%)
Density matrix formation    ....       0.098 sec  (  0.1%)
Population analysis         ....       0.831 sec  (  1.2%)
Initial guess               ....       0.007 sec  (  0.0%)
Orbital Transformation      ....       0.000 sec  (  0.0%)
Orbital Orthonormalization  ....       0.000 sec  (  0.0%)
DIIS solution               ....       2.810 sec  (  4.1%)
SOSCF solution              ....       0.944 sec  (  1.4%)
Grid generation             ....       6.318 sec  (  9.1%)

Maximum memory used throughout the entire SCF-calculation: 50.8 MB


-------------------------------------------------------------------------------
                          DFT DISPERSION CORRECTION                            
                                                                               
                              DFTD3 V3.1  Rev 1                                
                          USING Becke-Johnson damping                          
-------------------------------------------------------------------------------
The PBEh-3c composite method is recognized
Using three-body term ABC
Active option DFTDOPT                   ...         4   

molecular C6(AA) [au] = 1659.186753 


            DFT-D V3
 parameters
 s6 scaling factor         :     1.0000 
 a1 scaling factor         :     0.4860 
 s8 scaling factor         :     0.0000 
 a2 scaling factor         :     4.5000 
 Damping factor alpha9(ATM):    16.0000 
 ad hoc parameters k1-k3   :    16.0000     1.3333    -4.0000 

 Edisp/kcal,au: -3.689988719288  -0.005880370701 
 E6   /kcal   :  -3.695924242 
 E8   /kcal   :  -0.000000000 
 E6(ABC)      :   0.005935523 
 % E8         :   0.000000000 
 % E6(ABC)    :  -0.160854770 

-------------------------   ----------------
Dispersion correction           -0.005880371
-------------------------   ----------------

------------------   -----------------
gCP correction             0.015149473
------------------   -----------------

-------------------------   --------------------
FINAL SINGLE POINT ENERGY      -231.725783182720
-------------------------   --------------------


                            ***************************************
                            *     ORCA property calculations      *
                            ***************************************

                                    ---------------------
                                    Active property flags
                                    ---------------------
   (+) Dipole Moment


------------------------------------------------------------------------------
                       ORCA ELECTRIC PROPERTIES CALCULATION
------------------------------------------------------------------------------

Dipole Moment Calculation                       ... on
Quadrupole Moment Calculation                   ... off
Polarizability Calculation                      ... off
GBWName                                         ... pbeh-3c.gbw
Electron density                                ... pbeh-3c.scfp
The origin for moment calculation is the CENTER OF MASS  = (-0.000000, -0.000000  0.000000)

-------------
DIPOLE MOMENT
-------------
                                X             Y             Z
Electronic contribution:     -0.00000      -0.00000       0.00000
Nuclear contribution   :     -0.00000      -0.00000       0.00000
                        -----------------------------------------
Total Dipole Moment    :     -0.00000      -0.00000       0.00000
                        -----------------------------------------
Magnitude (a.u.)       :      0.00000
Magnitude (Debye)      :      0.00000



--------------------
Rotational spectrum 
--------------------
 
Rotational constants in cm-1:     0.190356     0.190356     0.095178 
Rotational constants in MHz :  5706.722047  5706.721999  2853.361011 

 Dipole components along the rotational axes: 
x,y,z [a.u.] :    -0.000000    -0.000000     0.000000 
x,y,z [Debye]:    -0.000000    -0.000000     0.000000 

 

Timings for individual modules:

Sum of individual times         ...       72.839 sec (=   1.214 min)
GTO integral calculation        ...        2.981 sec (=   0.050 min)   4.1 %
SCF iterations                  ...       69.858 sec (=   1.164 min)  95.9 %
                             ****ORCA TERMINATED NORMALLY****
TOTAL RUN TIME: 0 days 0 hours 1 minutes 16 seconds 499 msec
