
                                 *****************
                                 * O   R   C   A *
                                 *****************

                                            #,                                       
                                            ###                                      
                                            ####                                     
                                            #####                                    
                                            ######                                   
                                           ########,                                 
                                     ,,################,,,,,                         
                               ,,#################################,,                 
                          ,,##########################################,,             
                       ,#########################################, ''#####,          
                    ,#############################################,,   '####,        
                  ,##################################################,,,,####,       
                ,###########''''           ''''###############################       
              ,#####''   ,,,,##########,,,,          '''####'''          '####       
            ,##' ,,,,###########################,,,                        '##       
           ' ,,###''''                  '''############,,,                           
         ,,##''                                '''############,,,,        ,,,,,,###''
      ,#''                                            '''#######################'''  
     '                                                          ''''####''''         
             ,#######,   #######,   ,#######,      ##                                
            ,#'     '#,  ##    ##  ,#'     '#,    #''#        ######   ,####,        
            ##       ##  ##   ,#'  ##            #'  '#       #        #'  '#        
            ##       ##  #######   ##           ,######,      #####,   #    #        
            '#,     ,#'  ##    ##  '#,     ,#' ,#      #,         ##   #,  ,#        
             '#######'   ##     ##  '#######'  #'      '#     #####' # '####'        



                  #######################################################
                  #                        -***-                        #
                  #          Department of theory and spectroscopy      #
                  #    Directorship and core code : Frank Neese         #
                  #        Max Planck Institute fuer Kohlenforschung    #
                  #                Kaiser Wilhelm Platz 1               #
                  #                 D-45470 Muelheim/Ruhr               #
                  #                      Germany                        #
                  #                                                     #
                  #                  All rights reserved                #
                  #                        -***-                        #
                  #######################################################


                         Program Version 5.0.3 -  RELEASE  -


 With contributions from (in alphabetic order):
   Daniel Aravena         : Magnetic Suceptibility
   Michael Atanasov       : Ab Initio Ligand Field Theory (pilot matlab implementation)
   Alexander A. Auer      : GIAO ZORA, VPT2 properties, NMR spectrum
   Ute Becker             : Parallelization
   Giovanni Bistoni       : ED, misc. LED, open-shell LED, HFLD
   Martin Brehm           : Molecular dynamics
   Dmytro Bykov           : SCF Hessian
   Vijay G. Chilkuri      : MRCI spin determinant printing, contributions to CSF-ICE
   Dipayan Datta          : RHF DLPNO-CCSD density
   Achintya Kumar Dutta   : EOM-CC, STEOM-CC
   Dmitry Ganyushin       : Spin-Orbit,Spin-Spin,Magnetic field MRCI
   Miquel Garcia          : C-PCM and meta-GGA Hessian, CC/C-PCM, Gaussian charge scheme
   Yang Guo               : DLPNO-NEVPT2, F12-NEVPT2, CIM, IAO-localization
   Andreas Hansen         : Spin unrestricted coupled pair/coupled cluster methods
   Benjamin Helmich-Paris : MC-RPA, TRAH-SCF, COSX integrals
   Lee Huntington         : MR-EOM, pCC
   Robert Izsak           : Overlap fitted RIJCOSX, COSX-SCS-MP3, EOM
   Marcus Kettner         : VPT2
   Christian Kollmar      : KDIIS, OOCD, Brueckner-CCSD(T), CCSD density, CASPT2, CASPT2-K
   Simone Kossmann        : Meta GGA functionals, TD-DFT gradient, OOMP2, MP2 Hessian
   Martin Krupicka        : Initial AUTO-CI
   Lucas Lang             : DCDCAS
   Marvin Lechner         : AUTO-CI (C++ implementation), FIC-MRCC
   Dagmar Lenk            : GEPOL surface, SMD
   Dimitrios Liakos       : Extrapolation schemes; Compound Job, initial MDCI parallelization
   Dimitrios Manganas     : Further ROCIS development; embedding schemes
   Dimitrios Pantazis     : SARC Basis sets
   Anastasios Papadopoulos: AUTO-CI, single reference methods and gradients
   Taras Petrenko         : DFT Hessian,TD-DFT gradient, ASA, ECA, R-Raman, ABS, FL, XAS/XES, NRVS
   Peter Pinski           : DLPNO-MP2, DLPNO-MP2 Gradient
   Christoph Reimann      : Effective Core Potentials
   Marius Retegan         : Local ZFS, SOC
   Christoph Riplinger    : Optimizer, TS searches, QM/MM, DLPNO-CCSD(T), (RO)-DLPNO pert. Triples
   Tobias Risthaus        : Range-separated hybrids, TD-DFT gradient, RPA, STAB
   Michael Roemelt        : Original ROCIS implementation
   Masaaki Saitow         : Open-shell DLPNO-CCSD energy and density
   Barbara Sandhoefer     : DKH picture change effects
   Avijit Sen             : IP-ROCIS
   Kantharuban Sivalingam : CASSCF convergence, NEVPT2, FIC-MRCI
   Bernardo de Souza      : ESD, SOC TD-DFT
   Georgi Stoychev        : AutoAux, RI-MP2 NMR, DLPNO-MP2 response
   Willem Van den Heuvel  : Paramagnetic NMR
   Boris Wezisla          : Elementary symmetry handling
   Frank Wennmohs         : Technical directorship


 We gratefully acknowledge several colleagues who have allowed us to
 interface, adapt or use parts of their codes:
   Stefan Grimme, W. Hujo, H. Kruse, P. Pracht,  : VdW corrections, initial TS optimization,
                  C. Bannwarth, S. Ehlert          DFT functionals, gCP, sTDA/sTD-DF
   Ed Valeev, F. Pavosevic, A. Kumar             : LibInt (2-el integral package), F12 methods
   Garnet Chan, S. Sharma, J. Yang, R. Olivares  : DMRG
   Ulf Ekstrom                                   : XCFun DFT Library
   Mihaly Kallay                                 : mrcc  (arbitrary order and MRCC methods)
   Jiri Pittner, Ondrej Demel                    : Mk-CCSD
   Frank Weinhold                                : gennbo (NPA and NBO analysis)
   Christopher J. Cramer and Donald G. Truhlar   : smd solvation model
   Lars Goerigk                                  : TD-DFT with DH, B97 family of functionals
   V. Asgeirsson, H. Jonsson                     : NEB implementation
   FAccTs GmbH                                   : IRC, NEB, NEB-TS, DLPNO-Multilevel, CI-OPT
                                                   MM, QMMM, 2- and 3-layer-ONIOM, Crystal-QMMM,
                                                   LR-CPCM, SF, NACMEs, symmetry and pop. for TD-DFT,
                                                   nearIR, NL-DFT gradient (VV10), updates on ESD,
                                                   ML-optimized integration grids
   S Lehtola, MJT Oliveira, MAL Marques          : LibXC Library
   Liviu Ungur et al                             : ANISO software


 Your calculation uses the libint2 library for the computation of 2-el integrals
 For citations please refer to: http://libint.valeyev.net

 Your ORCA version has been built with support for libXC version: 5.1.0
 For citations please refer to: https://tddft.org/programs/libxc/

 This ORCA versions uses:
   CBLAS   interface :  Fast vector & matrix operations
   LAPACKE interface :  Fast linear algebra routines
   SCALAPACK package :  Parallel linear algebra routines
   Shared memory     :  Shared parallel matrices
   BLAS/LAPACK       :  OpenBLAS 0.3.15  USE64BITINT DYNAMIC_ARCH NO_AFFINITY Haswell SINGLE_THREADED
        Core in use  :  Haswell
   Copyright (c) 2011-2014, The OpenBLAS Project




***************************************
The coordinates will be read from file: P26.xyz
***************************************


Your calculation utilizes the geometrical counterpoise correction gCP
Please cite in your paper:
H.Kruse, S. Grimme J.Chem.Phys., 136, (2012), 154101 
   

Your calculation utilizes the atom-pairwise dispersion correction
with the Becke-Johnson damping scheme (D3BJ)
Cite in your paper:
S.Grimme, S.Ehrlich, L.Goerigk, J Comput Chem, (2011), 32, 1456–1465 
S.Grimme, J.Antony, S.Ehrlich and H.Krieg, J.Chem.Phys., 132, (2010), 154104 
   

Your calculation employs the composite approach PBEh-3c.
Please cite in your paper:
S. Grimme, J. G. Brandenburg, C. Bannwarth, A. Hansen J.Chem.Phys., 143, (2015), 054107 
   

================================================================================

----- Orbital basis set information -----
Your calculation utilizes the basis: def2-mSVP

----- AuxJ basis set information -----
Your calculation utilizes the auxiliary basis: def2/J
   F. Weigend, Phys. Chem. Chem. Phys. 8, 1057 (2006).

================================================================================
                                        WARNINGS
                       Please study these warnings very carefully!
================================================================================


INFO   : the flag for use of the SHARK integral package has been found!

================================================================================
                                       INPUT FILE
================================================================================
NAME = pbeh-3c.inp
|  1> ! PBEh-3c def2/J TightSCF DefGrid3
|  2> 
|  3> %maxcore 60000
|  4> 
|  5> %pal
|  6> nprocs 4
|  7> end
|  8> 
|  9> *xyzfile 0 1 P26.xyz
| 10> 
| 11>                          ****END OF INPUT****
================================================================================

                       ****************************
                       * Single Point Calculation *
                       ****************************

---------------------------------
CARTESIAN COORDINATES (ANGSTROEM)
---------------------------------
  C     -0.262860    0.402752    0.433597
  C      0.776831    1.338616   -0.144624
  C      1.174649    0.130030    0.044054
  C     -1.377859   -0.102391   -0.392630
  C      2.185895   -0.937271   -0.016300
  C     -2.571755   -0.457638    0.071705
  H      0.958769    2.343898   -0.478031
  H     -1.173100   -0.177613   -1.457589
  H      2.382725   -1.331283    0.983411
  H      1.821580   -1.771272   -0.619713
  H     -2.808297   -0.391968    1.127085
  H     -3.351201   -0.822312   -0.582553
  H      3.122844   -0.578310   -0.441880
  H     -0.502730    0.484268    1.494450

----------------------------
CARTESIAN COORDINATES (A.U.)
----------------------------
  NO LB      ZA    FRAG     MASS         X           Y           Z
   0 C     6.0000    0    12.011   -0.496733    0.761091    0.819380
   1 C     6.0000    0    12.011    1.467998    2.529617   -0.273300
   2 C     6.0000    0    12.011    2.219765    0.245721    0.083250
   3 C     6.0000    0    12.011   -2.603776   -0.193491   -0.741963
   4 C     6.0000    0    12.011    4.130743   -1.771185   -0.030803
   5 C     6.0000    0    12.011   -4.859912   -0.864810    0.135503
   6 H     1.0000    0     1.008    1.811811    4.429325   -0.903348
   7 H     1.0000    0     1.008   -2.216838   -0.335640   -2.754444
   8 H     1.0000    0     1.008    4.502697   -2.515760    1.858377
   9 H     1.0000    0     1.008    3.442287   -3.347219   -1.171088
  10 H     1.0000    0     1.008   -5.306912   -0.740712    2.129882
  11 H     1.0000    0     1.008   -6.332852   -1.553944   -1.100866
  12 H     1.0000    0     1.008    5.901320   -1.092848   -0.835032
  13 H     1.0000    0     1.008   -0.950022    0.915134    2.824101

--------------------------------
INTERNAL COORDINATES (ANGSTROEM)
--------------------------------
 C      0   0   0     0.000000000000     0.00000000     0.00000000
 C      1   0   0     1.513650531565     0.00000000     0.00000000
 C      2   1   0     1.286288624877    64.87890508     0.00000000
 C      1   2   3     1.476835486092   121.08779638   254.02550662
 C      3   2   1     1.471527127417   152.62398959   178.79623430
 C      4   1   2     1.329358809077   125.03301145   208.00203419
 H      2   1   3     1.074641038655   144.40813103   178.98084893
 H      4   1   2     1.087070400689   115.43820168    28.03250833
 H      5   3   2     1.092432784487   110.35784441   120.67273839
 H      5   3   2     1.091966237084   110.32509990   238.55676427
 H      6   4   1     1.083554982448   121.33699836     0.20172183
 H      6   4   1     1.081007239023   121.75646732   180.05827071
 H      5   3   2     1.089882880281   111.58680997   359.65538668
 H      1   2   3     1.090683891233   118.45112135   104.38873456

---------------------------
INTERNAL COORDINATES (A.U.)
---------------------------
 C      0   0   0     0.000000000000     0.00000000     0.00000000
 C      1   0   0     2.860384967122     0.00000000     0.00000000
 C      2   1   0     2.430733230195    64.87890508     0.00000000
 C      1   2   3     2.790814613569   121.08779638   254.02550662
 C      3   2   1     2.780783269454   152.62398959   178.79623430
 C      4   1   2     2.512124082871   125.03301145   208.00203419
 H      2   1   3     2.030777255330   144.40813103   178.98084893
 H      4   1   2     2.054265345594   115.43820168    28.03250833
 H      5   3   2     2.064398782398   110.35784441   120.67273839
 H      5   3   2     2.063517135578   110.32509990   238.55676427
 H      6   4   1     2.047622167873   121.33699836     0.20172183
 H      6   4   1     2.042807630541   121.75646732   180.05827071
 H      5   3   2     2.059580161781   111.58680997   359.65538668
 H      1   2   3     2.061093853109   118.45112135   104.38873456

---------------------
BASIS SET INFORMATION
---------------------
There are 2 groups of distinct atoms

 Group   1 Type C   : 8s4p1d contracted to 4s2p1d pattern {5111/31/1}
 Group   2 Type H   : 4s contracted to 2s pattern {31}

Atom   0C    basis set group =>   1
Atom   1C    basis set group =>   1
Atom   2C    basis set group =>   1
Atom   3C    basis set group =>   1
Atom   4C    basis set group =>   1
Atom   5C    basis set group =>   1
Atom   6H    basis set group =>   2
Atom   7H    basis set group =>   2
Atom   8H    basis set group =>   2
Atom   9H    basis set group =>   2
Atom  10H    basis set group =>   2
Atom  11H    basis set group =>   2
Atom  12H    basis set group =>   2
Atom  13H    basis set group =>   2
---------------------------------
AUXILIARY/J BASIS SET INFORMATION
---------------------------------
There are 2 groups of distinct atoms

 Group   1 Type C   : 12s5p4d2f1g contracted to 6s4p3d1f1g pattern {711111/2111/211/2/1}
 Group   2 Type H   : 5s2p1d contracted to 3s1p1d pattern {311/2/1}

Atom   0C    basis set group =>   1
Atom   1C    basis set group =>   1
Atom   2C    basis set group =>   1
Atom   3C    basis set group =>   1
Atom   4C    basis set group =>   1
Atom   5C    basis set group =>   1
Atom   6H    basis set group =>   2
Atom   7H    basis set group =>   2
Atom   8H    basis set group =>   2
Atom   9H    basis set group =>   2
Atom  10H    basis set group =>   2
Atom  11H    basis set group =>   2
Atom  12H    basis set group =>   2
Atom  13H    basis set group =>   2


           ************************************************************
           *        Program running with 4 parallel MPI-processes     *
           *              working on a common directory               *
           ************************************************************
------------------------------------------------------------------------------
                           ORCA GTO INTEGRAL CALCULATION
                           -- RI-GTO INTEGRALS CHOSEN --
------------------------------------------------------------------------------
------------------------------------------------------------------------------
                   ___                                                        
                  /   \      - P O W E R E D   B Y -                         
                 /     \                                                     
                 |  |  |   _    _      __       _____    __    __             
                 |  |  |  | |  | |    /  \     |  _  \  |  |  /  |          
                  \  \/   | |  | |   /    \    | | | |  |  | /  /          
                 / \  \   | |__| |  /  /\  \   | |_| |  |  |/  /          
                |  |  |   |  __  | /  /__\  \  |    /   |      \           
                |  |  |   | |  | | |   __   |  |    \   |  |\   \          
                \     /   | |  | | |  |  |  |  | |\  \  |  | \   \       
                 \___/    |_|  |_| |__|  |__|  |_| \__\ |__|  \__/        
                                                                              
                      - O R C A' S   B I G   F R I E N D -                    
                                      &                                       
                       - I N T E G R A L  F E E D E R -                       
                                                                              
 v1 FN, 2020, v2 2021                                                         
------------------------------------------------------------------------------


Reading SHARK input file pbeh-3c.SHARKINP.tmp ... ok
----------------------
SHARK INTEGRAL PACKAGE
----------------------

Number of atoms                             ...     14
Number of basis functions                   ...    106
Number of shells                            ...     58
Maximum angular momentum                    ...      2
Integral batch strategy                     ... SHARK/LIBINT Hybrid
RI-J (if used) integral strategy            ... SPLIT-RIJ (Revised 2003 algorithm where possible)
Printlevel                                  ...      1
Contraction scheme used                     ... SEGMENTED contraction
Coulomb Range Separation                    ... NOT USED
Exchange Range Separation                   ... NOT USED
Finite Nucleus Model                        ... NOT USED
Auxiliary Coulomb fitting basis             ... AVAILABLE
   # of basis functions in Aux-J            ...    382
   # of shells in Aux-J                     ...    130
   Maximum angular momentum in Aux-J        ...      4
Auxiliary J/K fitting basis                 ... NOT available
Auxiliary Correlation fitting basis         ... NOT available
Auxiliary 'external' fitting basis          ... NOT available
Integral threshold                          ...     2.500000e-11
Primitive cut-off                           ...     2.500000e-12
Primitive pair pre-selection threshold      ...     2.500000e-12

Calculating pre-screening integrals         ... done (  0.1 sec) Dimension = 58
Organizing shell pair data                  ... done (  0.1 sec)
Shell pair information
Total number of shell pairs                 ...      1711
Shell pairs after pre-screening             ...      1591
Total number of primitive shell pairs       ...      6207
Primitive shell pairs kept                  ...      4246
          la=0 lb=0:    726 shell pairs
          la=1 lb=0:    474 shell pairs
          la=1 lb=1:     78 shell pairs
          la=2 lb=0:    220 shell pairs
          la=2 lb=1:     72 shell pairs
          la=2 lb=2:     21 shell pairs

Calculating one electron integrals          ... done (  0.0 sec)
Calculating RI/J V-Matrix + Cholesky decomp.... done (  0.4 sec)
Calculating Nuclear repulsion               ... done (  0.1 sec) ENN=    204.631443378118 Eh

SHARK setup successfully completed in   1.5 seconds

Maximum memory used throughout the entire GTOINT-calculation: 10.3 MB


           ************************************************************
           *        Program running with 4 parallel MPI-processes     *
           *              working on a common directory               *
           ************************************************************
-------------------------------------------------------------------------------
                                 ORCA SCF
-------------------------------------------------------------------------------

------------
SCF SETTINGS
------------
Hamiltonian:
 Density Functional     Method          .... DFT(GTOs)
 Exchange Functional    Exchange        .... PBE
   PBE kappa parameter   XKappa         ....  1.024500
   PBE mue parameter    XMuePBE         ....  0.123457
 Correlation Functional Correlation     .... PBE
   PBE beta parameter  CBetaPBE         ....  0.030000
 LDA part of GGA corr.  LDAOpt          .... PW91-LDA
 Gradients option       PostSCFGGA      .... off
 Hybrid DFT is turned on
   Fraction HF Exchange ScalHFX         ....  0.420000
   Scaling of DF-GGA-X  ScalDFX         ....  0.580000
   Scaling of DF-GGA-C  ScalDFC         ....  1.000000
   Scaling of DF-LDA-C  ScalLDAC        ....  1.000000
   Perturbative correction              ....  0.000000
   Density functional embedding theory  .... OFF
 RI-approximation to the Coulomb term is turned on
   Number of AuxJ basis functions       .... 382
   RIJ-ON(X) (HFX calculated with O(N)) .... on
   Number of AuxJ basis functions       .... 382
   RIJ-COSX (HFX calculated with COS-X)).... on


General Settings:
 Integral files         IntName         .... pbeh-3c
 Hartree-Fock type      HFTyp           .... RHF
 Total Charge           Charge          ....    0
 Multiplicity           Mult            ....    1
 Number of Electrons    NEL             ....   44
 Basis Dimension        Dim             ....  106
 Nuclear Repulsion      ENuc            ....    204.6314433781 Eh

Convergence Acceleration:
 DIIS                   CNVDIIS         .... on
   Start iteration      DIISMaxIt       ....    12
   Startup error        DIISStart       ....  0.200000
   # of expansion vecs  DIISMaxEq       ....     5
   Bias factor          DIISBfac        ....   1.050
   Max. coefficient     DIISMaxC        ....  10.000
 Trust-Rad. Augm. Hess. CNVTRAH         .... auto
   Auto Start mean grad. ratio tolernc. ....  1.125000
   Auto Start start iteration           ....    20
   Auto Start num. interpolation iter.  ....    10
   Max. Number of Micro iterations      ....    16
   Max. Number of Macro iterations      .... Maxiter - #DIIS iter
   Number of Davidson start vectors     ....     2
   Converg. threshold I  (grad. norm)   ....   1.000e-05
   Converg. threshold II (energy diff.) ....   1.000e-08
   Grad. Scal. Fac. for Micro threshold ....   0.100
   Minimum threshold for Micro iter.    ....   0.010
   NR start threshold (gradient norm)   ....   0.001
   Initial trust radius                 ....   0.400
   Minimum AH scaling param. (alpha)    ....   1.000
   Maximum AH scaling param. (alpha)    .... 1000.000
   Orbital update algorithm             .... Taylor
   White noise on init. David. guess    .... on
   Maximum white noise                  ....   0.010
   Quad. conv. algorithm                .... NR
   COSX micro iterations for RIJONX calc.... off
 SOSCF                  CNVSOSCF        .... on
   Start iteration      SOSCFMaxIt      ....   150
   Startup grad/error   SOSCFStart      ....  0.003300
 Level Shifting         CNVShift        .... on
   Level shift para.    LevelShift      ....    0.2500
   Turn off err/grad.   ShiftErr        ....    0.0010
 Zerner damping         CNVZerner       .... off
 Static damping         CNVDamp         .... on
   Fraction old density DampFac         ....    0.7000
   Max. Damping (<1)    DampMax         ....    0.9800
   Min. Damping (>=0)   DampMin         ....    0.0000
   Turn off err/grad.   DampErr         ....    0.1000
 Fernandez-Rico         CNVRico         .... off

SCF Procedure:
 Maximum # iterations   MaxIter         ....   125
 SCF integral mode      SCFMode         .... Direct
   Integral package                     .... SHARK and LIBINT hybrid scheme
 Reset frequency        DirectResetFreq ....    20
 Integral Threshold     Thresh          ....  2.500e-11 Eh
 Primitive CutOff       TCut            ....  2.500e-12 Eh

Convergence Tolerance:
 Convergence Check Mode ConvCheckMode   .... Total+1el-Energy
 Convergence forced     ConvForced      .... 0
 Energy Change          TolE            ....  1.000e-08 Eh
 1-El. energy change                    ....  1.000e-05 Eh
 Orbital Gradient       TolG            ....  1.000e-05
 Orbital Rotation angle TolX            ....  1.000e-05
 DIIS Error             TolErr          ....  5.000e-07


Diagonalization of the overlap matrix:
Smallest eigenvalue                        ... 1.660e-03
Time for diagonalization                   ...    0.004 sec
Threshold for overlap eigenvalues          ... 1.000e-08
Number of eigenvalues below threshold      ... 0
Time for construction of square roots      ...    0.432 sec
Total time needed                          ...    0.437 sec

--------------------------------
INITIAL GUESS: MINIMAL BASIS EHT
--------------------------------
The minimal basis has 38 functions
EHT matrix was diagonalized
Basis set overlap was calculated now projecting the orbitals
Using GuessMode=FMatrix for the initial guess
C*T matrix was formed
Effective Fockian was calculated
Effective Fockian was diagonalized
Initial density was built
                      ------------------
                      INITIAL GUESS DONE
                      ------------------
-------------------
DFT GRID GENERATION
-------------------

General Integration Accuracy     IntAcc      ... 4.959
Radial Grid Type                 RadialGrid  ... OptM3 with GC (2021)
Angular Grid (max. ang.)         AngularGrid ... 6 (Lebedev-590)
Angular grid pruning method      GridPruning ... 4 (adaptive)
Weight generation scheme         WeightScheme... Becke
Basis function cutoff            BFCut       ... 1.0000e-11
Integration weight cutoff        WCut        ... 1.0000e-14
Angular grids for H and He will be reduced by one unit
Partially contracted basis set               ... off
Rotationally invariant grid construction     ... off

Total number of grid points                  ...   156578
Total number of batches                      ...     2454
Average number of points per batch           ...       63
Average number of grid points per atom       ...    11184
Time for grid setup =    3.427 sec

--------------------
COSX GRID GENERATION
--------------------

GRIDX 1
-------
General Integration Accuracy     IntAcc      ... 4.020
Radial Grid Type                 RadialGrid  ... OptM3 with GC (2021)
Angular Grid (max. ang.)         AngularGrid ... 2 (Lebedev-110)
Angular grid pruning method      GridPruning ... 4 (adaptive)
Weight generation scheme         WeightScheme... Becke
Basis function cutoff            BFCut       ... 1.0000e-11
Integration weight cutoff        WCut        ... 1.0000e-14
Angular grids for H and He will be reduced by one unit
Partially contracted basis set               ... on
Rotationally invariant grid construction     ... off

Total number of grid points                  ...    17085
Total number of batches                      ...      275
Average number of points per batch           ...       62
Average number of grid points per atom       ...     1220
UseSFitting                                  ... on

GRIDX 2
-------
General Integration Accuracy     IntAcc      ... 4.338
Radial Grid Type                 RadialGrid  ... OptM3 with GC (2021)
Angular Grid (max. ang.)         AngularGrid ... 3 (Lebedev-194)
Angular grid pruning method      GridPruning ... 4 (adaptive)
Weight generation scheme         WeightScheme... Becke
Basis function cutoff            BFCut       ... 1.0000e-11
Integration weight cutoff        WCut        ... 1.0000e-14
Angular grids for H and He will be reduced by one unit
Partially contracted basis set               ... on
Rotationally invariant grid construction     ... off

Total number of grid points                  ...    37499
Total number of batches                      ...      593
Average number of points per batch           ...       63
Average number of grid points per atom       ...     2678
UseSFitting                                  ... on

GRIDX 3
-------
General Integration Accuracy     IntAcc      ... 4.871
Radial Grid Type                 RadialGrid  ... OptM3 with GC (2021)
Angular Grid (max. ang.)         AngularGrid ... 4 (Lebedev-302)
Angular grid pruning method      GridPruning ... 4 (adaptive)
Weight generation scheme         WeightScheme... Becke
Basis function cutoff            BFCut       ... 1.0000e-11
Integration weight cutoff        WCut        ... 1.0000e-14
Angular grids for H and He will be reduced by one unit
Partially contracted basis set               ... on
Rotationally invariant grid construction     ... off

Total number of grid points                  ...    73053
Total number of batches                      ...     1146
Average number of points per batch           ...       63
Average number of grid points per atom       ...     5218
UseSFitting                                  ... on

Time for X-Grid setup             =    3.654 sec

--------------
SCF ITERATIONS
--------------
ITER       Energy         Delta-E        Max-DP      RMS-DP      [F,P]     Damp
               ***  Starting incremental Fock matrix formation  ***
  0   -232.2019371091   0.000000000000 0.08269230  0.00457989  0.4168878 0.7000
  1   -232.3837384644  -0.181801355259 0.05779241  0.00338766  0.2962920 0.7000
  2   -232.5128639320  -0.129125467609 0.04638193  0.00255877  0.2095720 0.7000
                               ***Turning on DIIS***
  3   -232.6046985645  -0.091834632502 0.03809978  0.00194904  0.1480450 0.7000
  4   -232.6700944888  -0.065395924289 0.03318436  0.00158246  0.1044271 0.7000
  5   -232.7165596013  -0.046465112537 0.08486551  0.00402507  0.0731772 0.0000
                      *** Initiating the SOSCF procedure ***
                           *** Shutting down DIIS ***
                      *** Re-Reading the Fockian *** 
                      *** Removing any level shift *** 
ITER      Energy       Delta-E        Grad      Rot      Max-DP    RMS-DP
  6   -232.82775356  -0.1111939614  0.002018  0.002018  0.003263  0.000183
               *** Restarting incremental Fock matrix formation ***
  7   -232.82782099  -0.0000674291  0.000709  0.000878  0.002190  0.000118
  8   -232.82783245  -0.0000114611  0.000248  0.000919  0.001269  0.000049
  9   -232.82783294  -0.0000004872  0.000218  0.000394  0.000601  0.000023
 10   -232.82783399  -0.0000010531  0.000024  0.000054  0.000111  0.000004
 11   -232.82783399  -0.0000000003  0.000026  0.000030  0.000061  0.000002
                  ***Gradient check signals convergence***
              ***Rediagonalizing the Fockian in SOSCF/NRSCF***

               *****************************************************
               *                     SUCCESS                       *
               *           SCF CONVERGED AFTER  12 CYCLES          *
               *****************************************************

Old exchange energy                            =    -14.228957362 Eh
New exchange energy                            =    -14.228959328 Eh
Exchange energy change after final integration =     -0.000001965 Eh
Total energy after final integration           =   -232.827835982 Eh
Final COS-X integration done in                =     2.263 sec

----------------
TOTAL SCF ENERGY
----------------

Total Energy       :         -232.82783598 Eh           -6335.56751 eV

Components:
Nuclear Repulsion  :          204.63144338 Eh            5568.30466 eV
Electronic Energy  :         -437.45927936 Eh          -11903.87217 eV
One Electron Energy:         -717.33397712 Eh          -19519.64988 eV
Two Electron Energy:          279.87469776 Eh            7615.77770 eV
Max COSX asymmetry :            0.00000107 Eh               0.00003 eV

Virial components:
Potential Energy   :         -463.76435314 Eh          -12619.66962 eV
Kinetic Energy     :          230.93651716 Eh            6284.10211 eV
Virial Ratio       :            2.00818978


DFT components:
N(Alpha)           :       21.999999690445 electrons
N(Beta)            :       21.999999690445 electrons
N(Total)           :       43.999999380889 electrons
E(X)               :      -18.879292257591 Eh       
E(C)               :       -1.868907408119 Eh       
E(XC)              :      -20.748199665709 Eh       
DFET-embed. en.    :        0.000000000000 Eh       

---------------
SCF CONVERGENCE
---------------

  Last Energy change         ...   -2.2989e-08  Tolerance :   1.0000e-08
  Last MAX-Density change    ...    9.9920e-16  Tolerance :   1.0000e-07
  Last RMS-Density change    ...    3.8878e-17  Tolerance :   5.0000e-09
  Last Orbital Gradient      ...    2.4832e-06  Tolerance :   1.0000e-05
  Last Orbital Rotation      ...    6.6279e-06  Tolerance :   1.0000e-05

             **** THE GBW FILE WAS UPDATED (pbeh-3c.gbw) ****
             **** DENSITY pbeh-3c.scfp WAS UPDATED ****
             **** ENERGY FILE WAS UPDATED (pbeh-3c.en.tmp) ****
             **** THE GBW FILE WAS UPDATED (pbeh-3c.gbw) ****
             **** DENSITY pbeh-3c.scfp WAS UPDATED ****
----------------
ORBITAL ENERGIES
----------------

  NO   OCC          E(Eh)            E(eV) 
   0   2.0000     -10.466527      -284.8087 
   1   2.0000     -10.455854      -284.5183 
   2   2.0000     -10.452500      -284.4270 
   3   2.0000     -10.449589      -284.3478 
   4   2.0000     -10.434765      -283.9444 
   5   2.0000     -10.421239      -283.5763 
   6   2.0000      -0.978247       -26.6194 
   7   2.0000      -0.851337       -23.1661 
   8   2.0000      -0.819685       -22.3048 
   9   2.0000      -0.690260       -18.7829 
  10   2.0000      -0.620029       -16.8719 
  11   2.0000      -0.599840       -16.3225 
  12   2.0000      -0.539155       -14.6711 
  13   2.0000      -0.505179       -13.7466 
  14   2.0000      -0.500390       -13.6163 
  15   2.0000      -0.475853       -12.9486 
  16   2.0000      -0.471732       -12.8365 
  17   2.0000      -0.403078       -10.9683 
  18   2.0000      -0.384801       -10.4710 
  19   2.0000      -0.371759       -10.1161 
  20   2.0000      -0.293145        -7.9769 
  21   2.0000      -0.271982        -7.4010 
  22   0.0000       0.031468         0.8563 
  23   0.0000       0.069812         1.8997 
  24   0.0000       0.161796         4.4027 
  25   0.0000       0.175113         4.7651 
  26   0.0000       0.184735         5.0269 
  27   0.0000       0.188716         5.1352 
  28   0.0000       0.193558         5.2670 
  29   0.0000       0.213759         5.8167 
  30   0.0000       0.222793         6.0625 
  31   0.0000       0.236130         6.4254 
  32   0.0000       0.253272         6.8919 
  33   0.0000       0.270523         7.3613 
  34   0.0000       0.301605         8.2071 
  35   0.0000       0.340233         9.2582 
  36   0.0000       0.349150         9.5009 
  37   0.0000       0.385049        10.4777 
  38   0.0000       0.478002        13.0071 
  39   0.0000       0.512360        13.9420 
  40   0.0000       0.513700        13.9785 
  41   0.0000       0.541908        14.7461 
  42   0.0000       0.559987        15.2380 
  43   0.0000       0.577026        15.7017 
  44   0.0000       0.589187        16.0326 
  45   0.0000       0.609750        16.5921 
  46   0.0000       0.636974        17.3329 
  47   0.0000       0.643031        17.4978 
  48   0.0000       0.677569        18.4376 
  49   0.0000       0.718584        19.5537 
  50   0.0000       0.740700        20.1555 
  51   0.0000       0.753480        20.5032 
  52   0.0000       0.785135        21.3646 
  53   0.0000       0.803792        21.8723 
  54   0.0000       0.899145        24.4670 
  55   0.0000       0.939658        25.5694 
  56   0.0000       0.976562        26.5736 
  57   0.0000       0.989156        26.9163 
  58   0.0000       1.003672        27.3113 
  59   0.0000       1.015684        27.6382 
  60   0.0000       1.025659        27.9096 
  61   0.0000       1.049791        28.5663 
  62   0.0000       1.093623        29.7590 
  63   0.0000       1.104548        30.0563 
  64   0.0000       1.130798        30.7706 
  65   0.0000       1.172406        31.9028 
  66   0.0000       1.248911        33.9846 
  67   0.0000       1.263389        34.3786 
  68   0.0000       1.307139        35.5691 
  69   0.0000       1.426477        38.8164 
  70   0.0000       1.449064        39.4310 
  71   0.0000       1.461530        39.7703 
  72   0.0000       1.585346        43.1395 
  73   0.0000       1.682339        45.7788 
  74   0.0000       1.734908        47.2093 
  75   0.0000       1.766704        48.0745 
  76   0.0000       1.800350        48.9900 
  77   0.0000       1.854023        50.4505 
  78   0.0000       1.910303        51.9820 
  79   0.0000       1.941143        52.8212 
  80   0.0000       1.994314        54.2680 
  81   0.0000       2.029705        55.2311 
  82   0.0000       2.066717        56.2382 
  83   0.0000       2.152243        58.5655 
  84   0.0000       2.184000        59.4297 
  85   0.0000       2.212636        60.2089 
  86   0.0000       2.240029        60.9543 
  87   0.0000       2.306057        62.7510 
  88   0.0000       2.338059        63.6218 
  89   0.0000       2.417211        65.7756 
  90   0.0000       2.457315        66.8669 
  91   0.0000       2.524539        68.6962 
  92   0.0000       2.554523        69.5121 
  93   0.0000       2.608127        70.9707 
  94   0.0000       2.673398        72.7468 
  95   0.0000       2.734590        74.4120 
  96   0.0000       2.902990        78.9944 
  97   0.0000       2.986249        81.2600 
  98   0.0000       3.025605        82.3309 
  99   0.0000       3.249681        88.4283 
 100   0.0000      13.325930       362.6170 
 101   0.0000      13.566757       369.1702 
 102   0.0000      13.814655       375.9159 
 103   0.0000      14.006051       381.1240 
 104   0.0000      14.183097       385.9417 
 105   0.0000      14.323350       389.7582 

                    ********************************
                    * MULLIKEN POPULATION ANALYSIS *
                    ********************************

-----------------------
MULLIKEN ATOMIC CHARGES
-----------------------
   0 C :   -0.292933
   1 C :   -0.263154
   2 C :    0.170334
   3 C :   -0.101899
   4 C :   -0.760937
   5 C :   -0.508737
   6 H :    0.210938
   7 H :    0.204902
   8 H :    0.240798
   9 H :    0.242532
  10 H :    0.205436
  11 H :    0.210902
  12 H :    0.236353
  13 H :    0.205466
Sum of atomic charges:   -0.0000000

--------------------------------
MULLIKEN REDUCED ORBITAL CHARGES
--------------------------------
  0 C s       :     3.276774  s :     3.276774
      pz      :     1.085052  p :     2.957826
      px      :     0.829920
      py      :     1.042854
      dz2     :     0.015782  d :     0.058333
      dxz     :     0.016657
      dyz     :     0.004033
      dx2y2   :     0.009726
      dxy     :     0.012135
  1 C s       :     3.323407  s :     3.323407
      pz      :     0.985008  p :     2.894634
      px      :     0.991431
      py      :     0.918195
      dz2     :     0.003568  d :     0.045113
      dxz     :     0.003316
      dyz     :     0.010994
      dx2y2   :     0.015057
      dxy     :     0.012178
  2 C s       :     3.178621  s :     3.178621
      pz      :     0.934232  p :     2.596280
      px      :     0.846177
      py      :     0.815871
      dz2     :     0.003999  d :     0.054765
      dxz     :     0.006522
      dyz     :     0.010863
      dx2y2   :     0.016752
      dxy     :     0.016629
  3 C s       :     3.213649  s :     3.213649
      pz      :     1.014357  p :     2.847163
      px      :     0.888097
      py      :     0.944709
      dz2     :     0.012126  d :     0.041087
      dxz     :     0.010744
      dyz     :     0.002583
      dx2y2   :     0.007138
      dxy     :     0.008496
  4 C s       :     3.439414  s :     3.439414
      pz      :     1.150843  p :     3.283537
      px      :     1.068646
      py      :     1.064049
      dz2     :     0.007038  d :     0.037987
      dxz     :     0.005613
      dyz     :     0.008734
      dx2y2   :     0.007030
      dxy     :     0.009571
  5 C s       :     3.322395  s :     3.322395
      pz      :     1.082414  p :     3.153949
      px      :     1.017105
      py      :     1.054430
      dz2     :     0.009304  d :     0.032393
      dxz     :     0.010550
      dyz     :     0.002090
      dx2y2   :     0.004817
      dxy     :     0.005631
  6 H s       :     0.789062  s :     0.789062
  7 H s       :     0.795098  s :     0.795098
  8 H s       :     0.759202  s :     0.759202
  9 H s       :     0.757468  s :     0.757468
 10 H s       :     0.794564  s :     0.794564
 11 H s       :     0.789098  s :     0.789098
 12 H s       :     0.763647  s :     0.763647
 13 H s       :     0.794534  s :     0.794534


                     *******************************
                     * LOEWDIN POPULATION ANALYSIS *
                     *******************************

----------------------
LOEWDIN ATOMIC CHARGES
----------------------
   0 C :   -0.142564
   1 C :   -0.137213
   2 C :   -0.019412
   3 C :   -0.139110
   4 C :   -0.356187
   5 C :   -0.290007
   6 H :    0.144121
   7 H :    0.127460
   8 H :    0.148974
   9 H :    0.149699
  10 H :    0.126542
  11 H :    0.130309
  12 H :    0.143602
  13 H :    0.113786

-------------------------------
LOEWDIN REDUCED ORBITAL CHARGES
-------------------------------
  0 C s       :     2.851546  s :     2.851546
      pz      :     1.083995  p :     3.165772
      px      :     0.967492
      py      :     1.114286
      dz2     :     0.030931  d :     0.125246
      dxz     :     0.037581
      dyz     :     0.008136
      dx2y2   :     0.021992
      dxy     :     0.026606
  1 C s       :     2.904812  s :     2.904812
      pz      :     0.999214  p :     3.137368
      px      :     1.053984
      py      :     1.084170
      dz2     :     0.007306  d :     0.095034
      dxz     :     0.007137
      dyz     :     0.019681
      dx2y2   :     0.033600
      dxy     :     0.027309
  2 C s       :     2.844327  s :     2.844327
      pz      :     0.942541  p :     3.050901
      px      :     0.996877
      py      :     1.111483
      dz2     :     0.010766  d :     0.124185
      dxz     :     0.012603
      dyz     :     0.020521
      dx2y2   :     0.038018
      dxy     :     0.042276
  3 C s       :     2.917031  s :     2.917031
      pz      :     1.082262  p :     3.129335
      px      :     1.084459
      py      :     0.962614
      dz2     :     0.024726  d :     0.092744
      dxz     :     0.027518
      dyz     :     0.005416
      dx2y2   :     0.016714
      dxy     :     0.018370
  4 C s       :     2.940815  s :     2.940815
      pz      :     1.137458  p :     3.342763
      px      :     1.102599
      py      :     1.102706
      dz2     :     0.012465  d :     0.072609
      dxz     :     0.010070
      dyz     :     0.015822
      dx2y2   :     0.014593
      dxy     :     0.019658
  5 C s       :     2.958832  s :     2.958832
      pz      :     1.099946  p :     3.264893
      px      :     1.105287
      py      :     1.059660
      dz2     :     0.018351  d :     0.066283
      dxz     :     0.023572
      dyz     :     0.003798
      dx2y2   :     0.010072
      dxy     :     0.010490
  6 H s       :     0.855879  s :     0.855879
  7 H s       :     0.872540  s :     0.872540
  8 H s       :     0.851026  s :     0.851026
  9 H s       :     0.850301  s :     0.850301
 10 H s       :     0.873458  s :     0.873458
 11 H s       :     0.869691  s :     0.869691
 12 H s       :     0.856398  s :     0.856398
 13 H s       :     0.886214  s :     0.886214


                      *****************************
                      * MAYER POPULATION ANALYSIS *
                      *****************************

  NA   - Mulliken gross atomic population
  ZA   - Total nuclear charge
  QA   - Mulliken gross atomic charge
  VA   - Mayer's total valence
  BVA  - Mayer's bonded valence
  FA   - Mayer's free valence

  ATOM       NA         ZA         QA         VA         BVA        FA
  0 C      6.2929     6.0000    -0.2929     3.7740     3.7740    -0.0000
  1 C      6.2632     6.0000    -0.2632     3.6914     3.6914     0.0000
  2 C      5.8297     6.0000     0.1703     3.6357     3.6357     0.0000
  3 C      6.1019     6.0000    -0.1019     3.7598     3.7598    -0.0000
  4 C      6.7609     6.0000    -0.7609     3.7084     3.7084    -0.0000
  5 C      6.5087     6.0000    -0.5087     3.8117     3.8117    -0.0000
  6 H      0.7891     1.0000     0.2109     0.9389     0.9389    -0.0000
  7 H      0.7951     1.0000     0.2049     0.9192     0.9192    -0.0000
  8 H      0.7592     1.0000     0.2408     0.9024     0.9024    -0.0000
  9 H      0.7575     1.0000     0.2425     0.9021     0.9021    -0.0000
 10 H      0.7946     1.0000     0.2054     0.9258     0.9258    -0.0000
 11 H      0.7891     1.0000     0.2109     0.9251     0.9251    -0.0000
 12 H      0.7636     1.0000     0.2364     0.9053     0.9053    -0.0000
 13 H      0.7945     1.0000     0.2055     0.9155     0.9155    -0.0000

  Mayer bond orders larger than 0.100000
B(  0-C ,  1-C ) :   0.9336 B(  0-C ,  2-C ) :   0.9062 B(  0-C ,  3-C ) :   1.0099 
B(  0-C , 13-H ) :   0.9097 B(  1-C ,  2-C ) :   1.7884 B(  1-C ,  6-H ) :   0.9298 
B(  2-C ,  4-C ) :   0.9787 B(  3-C ,  5-C ) :   1.9005 B(  3-C ,  7-H ) :   0.9216 
B(  4-C ,  8-H ) :   0.9131 B(  4-C ,  9-H ) :   0.9131 B(  4-C , 12-H ) :   0.9204 
B(  5-C , 10-H ) :   0.9313 B(  5-C , 11-H ) :   0.9302 

-------
TIMINGS
-------

Total SCF time: 0 days 0 hours 0 min 50 sec 

Total time                  ....      50.843 sec
Sum of individual times     ....      47.681 sec  ( 93.8%)

Fock matrix formation       ....      39.574 sec  ( 77.8%)
  Split-RI-J                ....       5.165 sec  ( 13.1% of F)
  Chain of spheres X        ....      16.316 sec  ( 41.2% of F)
  XC integration            ....      10.110 sec  ( 25.5% of F)
    Basis function eval.    ....       2.258 sec  ( 22.3% of XC)
    Density eval.           ....       1.303 sec  ( 12.9% of XC)
    XC-Functional eval.     ....       0.971 sec  (  9.6% of XC)
    XC-Potential eval.      ....       0.868 sec  (  8.6% of XC)
Diagonalization             ....       0.206 sec  (  0.4%)
Density matrix formation    ....       0.087 sec  (  0.2%)
Population analysis         ....       0.026 sec  (  0.1%)
Initial guess               ....       0.009 sec  (  0.0%)
Orbital Transformation      ....       0.000 sec  (  0.0%)
Orbital Orthonormalization  ....       0.000 sec  (  0.0%)
DIIS solution               ....       0.350 sec  (  0.7%)
SOSCF solution              ....       0.348 sec  (  0.7%)
Grid generation             ....       7.081 sec  ( 13.9%)

Maximum memory used throughout the entire SCF-calculation: 51.7 MB


-------------------------------------------------------------------------------
                          DFT DISPERSION CORRECTION                            
                                                                               
                              DFTD3 V3.1  Rev 1                                
                          USING Becke-Johnson damping                          
-------------------------------------------------------------------------------
The PBEh-3c composite method is recognized
Using three-body term ABC
Active option DFTDOPT                   ...         4   

molecular C6(AA) [au] = 1832.118636 


            DFT-D V3
 parameters
 s6 scaling factor         :     1.0000 
 a1 scaling factor         :     0.4860 
 s8 scaling factor         :     0.0000 
 a2 scaling factor         :     4.5000 
 Damping factor alpha9(ATM):    16.0000 
 ad hoc parameters k1-k3   :    16.0000     1.3333    -4.0000 

 Edisp/kcal,au: -3.670217279997  -0.005848862910 
 E6   /kcal   :  -3.679890235 
 E8   /kcal   :  -0.000000000 
 E6(ABC)      :   0.009672955 
 % E8         :   0.000000000 
 % E6(ABC)    :  -0.263552663 

-------------------------   ----------------
Dispersion correction           -0.005848863
-------------------------   ----------------

------------------   -----------------
gCP correction             0.014958870
------------------   -----------------

-------------------------   --------------------
FINAL SINGLE POINT ENERGY      -232.818725974640
-------------------------   --------------------


                            ***************************************
                            *     ORCA property calculations      *
                            ***************************************

                                    ---------------------
                                    Active property flags
                                    ---------------------
   (+) Dipole Moment


------------------------------------------------------------------------------
                       ORCA ELECTRIC PROPERTIES CALCULATION
------------------------------------------------------------------------------

Dipole Moment Calculation                       ... on
Quadrupole Moment Calculation                   ... off
Polarizability Calculation                      ... off
GBWName                                         ... pbeh-3c.gbw
Electron density                                ... pbeh-3c.scfp
The origin for moment calculation is the CENTER OF MASS  = (-0.010561,  0.052608 -0.000591)

-------------
DIPOLE MOMENT
-------------
                                X             Y             Z
Electronic contribution:      0.05749       2.22483      -0.10280
Nuclear contribution   :      0.46468      -2.31477       0.02597
                        -----------------------------------------
Total Dipole Moment    :      0.52217      -0.08994      -0.07683
                        -----------------------------------------
Magnitude (a.u.)       :      0.53540
Magnitude (Debye)      :      1.36089



--------------------
Rotational spectrum 
--------------------
 
Rotational constants in cm-1:     0.276548     0.071040     0.061579 
Rotational constants in MHz :  8290.707893  2129.734308  1846.106865 

 Dipole components along the rotational axes: 
x,y,z [a.u.] :     0.520725     0.096358    -0.078850 
x,y,z [Debye]:     1.323577     0.244923    -0.200421 

 

Timings for individual modules:

Sum of individual times         ...       53.326 sec (=   0.889 min)
GTO integral calculation        ...        1.880 sec (=   0.031 min)   3.5 %
SCF iterations                  ...       51.446 sec (=   0.857 min)  96.5 %
                             ****ORCA TERMINATED NORMALLY****
TOTAL RUN TIME: 0 days 0 hours 0 minutes 54 seconds 709 msec
