
                                 *****************
                                 * O   R   C   A *
                                 *****************

                                            #,                                       
                                            ###                                      
                                            ####                                     
                                            #####                                    
                                            ######                                   
                                           ########,                                 
                                     ,,################,,,,,                         
                               ,,#################################,,                 
                          ,,##########################################,,             
                       ,#########################################, ''#####,          
                    ,#############################################,,   '####,        
                  ,##################################################,,,,####,       
                ,###########''''           ''''###############################       
              ,#####''   ,,,,##########,,,,          '''####'''          '####       
            ,##' ,,,,###########################,,,                        '##       
           ' ,,###''''                  '''############,,,                           
         ,,##''                                '''############,,,,        ,,,,,,###''
      ,#''                                            '''#######################'''  
     '                                                          ''''####''''         
             ,#######,   #######,   ,#######,      ##                                
            ,#'     '#,  ##    ##  ,#'     '#,    #''#        ######   ,####,        
            ##       ##  ##   ,#'  ##            #'  '#       #        #'  '#        
            ##       ##  #######   ##           ,######,      #####,   #    #        
            '#,     ,#'  ##    ##  '#,     ,#' ,#      #,         ##   #,  ,#        
             '#######'   ##     ##  '#######'  #'      '#     #####' # '####'        



                  #######################################################
                  #                        -***-                        #
                  #          Department of theory and spectroscopy      #
                  #    Directorship and core code : Frank Neese         #
                  #        Max Planck Institute fuer Kohlenforschung    #
                  #                Kaiser Wilhelm Platz 1               #
                  #                 D-45470 Muelheim/Ruhr               #
                  #                      Germany                        #
                  #                                                     #
                  #                  All rights reserved                #
                  #                        -***-                        #
                  #######################################################


                         Program Version 5.0.3 -  RELEASE  -


 With contributions from (in alphabetic order):
   Daniel Aravena         : Magnetic Suceptibility
   Michael Atanasov       : Ab Initio Ligand Field Theory (pilot matlab implementation)
   Alexander A. Auer      : GIAO ZORA, VPT2 properties, NMR spectrum
   Ute Becker             : Parallelization
   Giovanni Bistoni       : ED, misc. LED, open-shell LED, HFLD
   Martin Brehm           : Molecular dynamics
   Dmytro Bykov           : SCF Hessian
   Vijay G. Chilkuri      : MRCI spin determinant printing, contributions to CSF-ICE
   Dipayan Datta          : RHF DLPNO-CCSD density
   Achintya Kumar Dutta   : EOM-CC, STEOM-CC
   Dmitry Ganyushin       : Spin-Orbit,Spin-Spin,Magnetic field MRCI
   Miquel Garcia          : C-PCM and meta-GGA Hessian, CC/C-PCM, Gaussian charge scheme
   Yang Guo               : DLPNO-NEVPT2, F12-NEVPT2, CIM, IAO-localization
   Andreas Hansen         : Spin unrestricted coupled pair/coupled cluster methods
   Benjamin Helmich-Paris : MC-RPA, TRAH-SCF, COSX integrals
   Lee Huntington         : MR-EOM, pCC
   Robert Izsak           : Overlap fitted RIJCOSX, COSX-SCS-MP3, EOM
   Marcus Kettner         : VPT2
   Christian Kollmar      : KDIIS, OOCD, Brueckner-CCSD(T), CCSD density, CASPT2, CASPT2-K
   Simone Kossmann        : Meta GGA functionals, TD-DFT gradient, OOMP2, MP2 Hessian
   Martin Krupicka        : Initial AUTO-CI
   Lucas Lang             : DCDCAS
   Marvin Lechner         : AUTO-CI (C++ implementation), FIC-MRCC
   Dagmar Lenk            : GEPOL surface, SMD
   Dimitrios Liakos       : Extrapolation schemes; Compound Job, initial MDCI parallelization
   Dimitrios Manganas     : Further ROCIS development; embedding schemes
   Dimitrios Pantazis     : SARC Basis sets
   Anastasios Papadopoulos: AUTO-CI, single reference methods and gradients
   Taras Petrenko         : DFT Hessian,TD-DFT gradient, ASA, ECA, R-Raman, ABS, FL, XAS/XES, NRVS
   Peter Pinski           : DLPNO-MP2, DLPNO-MP2 Gradient
   Christoph Reimann      : Effective Core Potentials
   Marius Retegan         : Local ZFS, SOC
   Christoph Riplinger    : Optimizer, TS searches, QM/MM, DLPNO-CCSD(T), (RO)-DLPNO pert. Triples
   Tobias Risthaus        : Range-separated hybrids, TD-DFT gradient, RPA, STAB
   Michael Roemelt        : Original ROCIS implementation
   Masaaki Saitow         : Open-shell DLPNO-CCSD energy and density
   Barbara Sandhoefer     : DKH picture change effects
   Avijit Sen             : IP-ROCIS
   Kantharuban Sivalingam : CASSCF convergence, NEVPT2, FIC-MRCI
   Bernardo de Souza      : ESD, SOC TD-DFT
   Georgi Stoychev        : AutoAux, RI-MP2 NMR, DLPNO-MP2 response
   Willem Van den Heuvel  : Paramagnetic NMR
   Boris Wezisla          : Elementary symmetry handling
   Frank Wennmohs         : Technical directorship


 We gratefully acknowledge several colleagues who have allowed us to
 interface, adapt or use parts of their codes:
   Stefan Grimme, W. Hujo, H. Kruse, P. Pracht,  : VdW corrections, initial TS optimization,
                  C. Bannwarth, S. Ehlert          DFT functionals, gCP, sTDA/sTD-DF
   Ed Valeev, F. Pavosevic, A. Kumar             : LibInt (2-el integral package), F12 methods
   Garnet Chan, S. Sharma, J. Yang, R. Olivares  : DMRG
   Ulf Ekstrom                                   : XCFun DFT Library
   Mihaly Kallay                                 : mrcc  (arbitrary order and MRCC methods)
   Jiri Pittner, Ondrej Demel                    : Mk-CCSD
   Frank Weinhold                                : gennbo (NPA and NBO analysis)
   Christopher J. Cramer and Donald G. Truhlar   : smd solvation model
   Lars Goerigk                                  : TD-DFT with DH, B97 family of functionals
   V. Asgeirsson, H. Jonsson                     : NEB implementation
   FAccTs GmbH                                   : IRC, NEB, NEB-TS, DLPNO-Multilevel, CI-OPT
                                                   MM, QMMM, 2- and 3-layer-ONIOM, Crystal-QMMM,
                                                   LR-CPCM, SF, NACMEs, symmetry and pop. for TD-DFT,
                                                   nearIR, NL-DFT gradient (VV10), updates on ESD,
                                                   ML-optimized integration grids
   S Lehtola, MJT Oliveira, MAL Marques          : LibXC Library
   Liviu Ungur et al                             : ANISO software


 Your calculation uses the libint2 library for the computation of 2-el integrals
 For citations please refer to: http://libint.valeyev.net

 Your ORCA version has been built with support for libXC version: 5.1.0
 For citations please refer to: https://tddft.org/programs/libxc/

 This ORCA versions uses:
   CBLAS   interface :  Fast vector & matrix operations
   LAPACKE interface :  Fast linear algebra routines
   SCALAPACK package :  Parallel linear algebra routines
   Shared memory     :  Shared parallel matrices
   BLAS/LAPACK       :  OpenBLAS 0.3.15  USE64BITINT DYNAMIC_ARCH NO_AFFINITY Haswell SINGLE_THREADED
        Core in use  :  Haswell
   Copyright (c) 2011-2014, The OpenBLAS Project




***************************************
The coordinates will be read from file: P45.xyz
***************************************


Your calculation utilizes the geometrical counterpoise correction gCP
Please cite in your paper:
H.Kruse, S. Grimme J.Chem.Phys., 136, (2012), 154101 
   

Your calculation utilizes the atom-pairwise dispersion correction
with the Becke-Johnson damping scheme (D3BJ)
Cite in your paper:
S.Grimme, S.Ehrlich, L.Goerigk, J Comput Chem, (2011), 32, 1456–1465 
S.Grimme, J.Antony, S.Ehrlich and H.Krieg, J.Chem.Phys., 132, (2010), 154104 
   

Your calculation employs the composite approach PBEh-3c.
Please cite in your paper:
S. Grimme, J. G. Brandenburg, C. Bannwarth, A. Hansen J.Chem.Phys., 143, (2015), 054107 
   

================================================================================

----- Orbital basis set information -----
Your calculation utilizes the basis: def2-mSVP

----- AuxJ basis set information -----
Your calculation utilizes the auxiliary basis: def2/J
   F. Weigend, Phys. Chem. Chem. Phys. 8, 1057 (2006).

================================================================================
                                        WARNINGS
                       Please study these warnings very carefully!
================================================================================


INFO   : the flag for use of the SHARK integral package has been found!

================================================================================
                                       INPUT FILE
================================================================================
NAME = pbeh-3c.inp
|  1> ! PBEh-3c def2/J TightSCF DefGrid3
|  2> 
|  3> %maxcore 60000
|  4> 
|  5> %pal
|  6> nprocs 4
|  7> end
|  8> 
|  9> *xyzfile 0 1 P45.xyz
| 10> 
| 11>                          ****END OF INPUT****
================================================================================

                       ****************************
                       * Single Point Calculation *
                       ****************************

---------------------------------
CARTESIAN COORDINATES (ANGSTROEM)
---------------------------------
  C     -0.618803   -0.006859    0.498850
  C     -1.678624    1.051362   -0.007396
  C     -1.647534   -1.042477    0.056498
  C     -2.537244   -0.142667   -0.363785
  H     -2.065763    1.712263    0.770219
  C      0.695731   -0.015194   -0.201444
  H      0.650263   -0.041780   -1.288097
  C      1.881539   -0.000387    0.397695
  H      1.913372    0.021181    1.484047
  H     -1.628031   -2.123784    0.081358
  H     -3.524531   -0.221021   -0.798246
  H     -1.333551    1.659019   -0.845174
  C      3.202890   -0.010480   -0.303612
  H      3.078775   -0.032146   -1.386377
  H      3.793568    0.872871   -0.046611
  H      3.798665   -0.879601   -0.012197
  H     -0.470503    0.033215    1.580245

----------------------------
CARTESIAN COORDINATES (A.U.)
----------------------------
  NO LB      ZA    FRAG     MASS         X           Y           Z
   0 C     6.0000    0    12.011   -1.169368   -0.012962    0.942690
   1 C     6.0000    0    12.011   -3.172139    1.986786   -0.013976
   2 C     6.0000    0    12.011   -3.113388   -1.969996    0.106766
   3 C     6.0000    0    12.011   -4.794696   -0.269602   -0.687454
   4 H     1.0000    0     1.008   -3.903726    3.235708    1.455503
   5 C     6.0000    0    12.011    1.314741   -0.028712   -0.380674
   6 H     1.0000    0     1.008    1.228819   -0.078953   -2.434150
   7 C     6.0000    0    12.011    3.555593   -0.000731    0.751535
   8 H     1.0000    0     1.008    3.615749    0.040026    2.804442
   9 H     1.0000    0     1.008   -3.076533   -4.013370    0.153744
  10 H     1.0000    0     1.008   -6.660398   -0.417669   -1.508466
  11 H     1.0000    0     1.008   -2.520046    3.135091   -1.597147
  12 C     6.0000    0    12.011    6.052585   -0.019804   -0.573744
  13 H     1.0000    0     1.008    5.818041   -0.060747   -2.619873
  14 H     1.0000    0     1.008    7.168804    1.649487   -0.088082
  15 H     1.0000    0     1.008    7.178436   -1.662205   -0.023049
  16 H     1.0000    0     1.008   -0.889122    0.062767    2.986230

--------------------------------
INTERNAL COORDINATES (ANGSTROEM)
--------------------------------
 C      0   0   0     0.000000000000     0.00000000     0.00000000
 C      1   0   0     1.580929102076     0.00000000     0.00000000
 C      1   2   0     1.525276037745    84.80597037     0.00000000
 C      3   1   2     1.333371427017    94.77583522   359.80459038
 H      2   1   3     1.091490572485   114.51572540   117.33488810
 C      1   2   3     1.489456543783   116.41293635   117.71548079
 H      6   1   2     1.087928618751   115.64970350   310.47436366
 C      6   1   2     1.328656149751   125.14129266   130.86717541
 H      8   6   1     1.087032184044   118.49035805   359.89461654
 H      3   1   2     1.081768458866   131.28894392   179.37745291
 H      4   3   1     1.081494820078   133.38294089   180.61778306
 H      2   1   3     1.090960225997   113.99746426   243.52356018
 C      8   6   1     1.495961756807   125.22860800   179.91738561
 H     13   8   6     1.090070537834   111.42127938     0.00000000
 H     13   8   6     1.093278879372   111.19632901   120.68334587
 H     13   8   6     1.093271042565   111.20730439   239.27975766
 H      1   2   3     1.092251685841   112.55061017   246.35388251

---------------------------
INTERNAL COORDINATES (A.U.)
---------------------------
 C      0   0   0     0.000000000000     0.00000000     0.00000000
 C      1   0   0     2.987523040069     0.00000000     0.00000000
 C      1   2   0     2.882353989971    84.80597037     0.00000000
 C      3   1   2     2.519706831858    94.77583522   359.80459038
 H      2   1   3     2.062618259754   114.51572540   117.33488810
 C      1   2   3     2.814664956126   116.41293635   117.71548079
 H      6   1   2     2.055887142695   115.64970350   310.47436366
 C      6   1   2     2.510796249181   125.14129266   130.86717541
 H      8   6   1     2.054193126601   118.49035805   359.89461654
 H      3   1   2     2.044246127570   131.28894392   179.37745291
 H      4   3   1     2.043729025203   133.38294089   180.61778306
 H      2   1   3     2.061616050134   113.99746426   243.52356018
 C      8   6   1     2.826958027185   125.22860800   179.91738561
 H     13   8   6     2.059934783162   111.42127938     0.00000000
 H     13   8   6     2.065997670013   111.19632901   120.68334587
 H     13   8   6     2.065982860595   111.20730439   239.27975766
 H      1   2   3     2.064056555553   112.55061017   246.35388251

---------------------
BASIS SET INFORMATION
---------------------
There are 2 groups of distinct atoms

 Group   1 Type C   : 8s4p1d contracted to 4s2p1d pattern {5111/31/1}
 Group   2 Type H   : 4s contracted to 2s pattern {31}

Atom   0C    basis set group =>   1
Atom   1C    basis set group =>   1
Atom   2C    basis set group =>   1
Atom   3C    basis set group =>   1
Atom   4H    basis set group =>   2
Atom   5C    basis set group =>   1
Atom   6H    basis set group =>   2
Atom   7C    basis set group =>   1
Atom   8H    basis set group =>   2
Atom   9H    basis set group =>   2
Atom  10H    basis set group =>   2
Atom  11H    basis set group =>   2
Atom  12C    basis set group =>   1
Atom  13H    basis set group =>   2
Atom  14H    basis set group =>   2
Atom  15H    basis set group =>   2
Atom  16H    basis set group =>   2
---------------------------------
AUXILIARY/J BASIS SET INFORMATION
---------------------------------
There are 2 groups of distinct atoms

 Group   1 Type C   : 12s5p4d2f1g contracted to 6s4p3d1f1g pattern {711111/2111/211/2/1}
 Group   2 Type H   : 5s2p1d contracted to 3s1p1d pattern {311/2/1}

Atom   0C    basis set group =>   1
Atom   1C    basis set group =>   1
Atom   2C    basis set group =>   1
Atom   3C    basis set group =>   1
Atom   4H    basis set group =>   2
Atom   5C    basis set group =>   1
Atom   6H    basis set group =>   2
Atom   7C    basis set group =>   1
Atom   8H    basis set group =>   2
Atom   9H    basis set group =>   2
Atom  10H    basis set group =>   2
Atom  11H    basis set group =>   2
Atom  12C    basis set group =>   1
Atom  13H    basis set group =>   2
Atom  14H    basis set group =>   2
Atom  15H    basis set group =>   2
Atom  16H    basis set group =>   2


           ************************************************************
           *        Program running with 4 parallel MPI-processes     *
           *              working on a common directory               *
           ************************************************************
------------------------------------------------------------------------------
                           ORCA GTO INTEGRAL CALCULATION
                           -- RI-GTO INTEGRALS CHOSEN --
------------------------------------------------------------------------------
------------------------------------------------------------------------------
                   ___                                                        
                  /   \      - P O W E R E D   B Y -                         
                 /     \                                                     
                 |  |  |   _    _      __       _____    __    __             
                 |  |  |  | |  | |    /  \     |  _  \  |  |  /  |          
                  \  \/   | |  | |   /    \    | | | |  |  | /  /          
                 / \  \   | |__| |  /  /\  \   | |_| |  |  |/  /          
                |  |  |   |  __  | /  /__\  \  |    /   |      \           
                |  |  |   | |  | | |   __   |  |    \   |  |\   \          
                \     /   | |  | | |  |  |  |  | |\  \  |  | \   \       
                 \___/    |_|  |_| |__|  |__|  |_| \__\ |__|  \__/        
                                                                              
                      - O R C A' S   B I G   F R I E N D -                    
                                      &                                       
                       - I N T E G R A L  F E E D E R -                       
                                                                              
 v1 FN, 2020, v2 2021                                                         
------------------------------------------------------------------------------


Reading SHARK input file pbeh-3c.SHARKINP.tmp ... ok
----------------------
SHARK INTEGRAL PACKAGE
----------------------

Number of atoms                             ...     17
Number of basis functions                   ...    125
Number of shells                            ...     69
Maximum angular momentum                    ...      2
Integral batch strategy                     ... SHARK/LIBINT Hybrid
RI-J (if used) integral strategy            ... SPLIT-RIJ (Revised 2003 algorithm where possible)
Printlevel                                  ...      1
Contraction scheme used                     ... SEGMENTED contraction
Coulomb Range Separation                    ... NOT USED
Exchange Range Separation                   ... NOT USED
Finite Nucleus Model                        ... NOT USED
Auxiliary Coulomb fitting basis             ... AVAILABLE
   # of basis functions in Aux-J            ...    453
   # of shells in Aux-J                     ...    155
   Maximum angular momentum in Aux-J        ...      4
Auxiliary J/K fitting basis                 ... NOT available
Auxiliary Correlation fitting basis         ... NOT available
Auxiliary 'external' fitting basis          ... NOT available
Integral threshold                          ...     2.500000e-11
Primitive cut-off                           ...     2.500000e-12
Primitive pair pre-selection threshold      ...     2.500000e-12

Calculating pre-screening integrals         ... done (  0.1 sec) Dimension = 69
Organizing shell pair data                  ... done (  0.1 sec)
Shell pair information
Total number of shell pairs                 ...      2415
Shell pairs after pre-screening             ...      2161
Total number of primitive shell pairs       ...      8767
Primitive shell pairs kept                  ...      5659
          la=0 lb=0:   1005 shell pairs
          la=1 lb=0:    641 shell pairs
          la=1 lb=1:    104 shell pairs
          la=2 lb=0:    290 shell pairs
          la=2 lb=1:     96 shell pairs
          la=2 lb=2:     25 shell pairs

Calculating one electron integrals          ... done (  0.1 sec)
Calculating RI/J V-Matrix + Cholesky decomp.... done (  0.2 sec)
Calculating Nuclear repulsion               ... done (  0.0 sec) ENN=    271.988498303227 Eh

SHARK setup successfully completed in   1.2 seconds

Maximum memory used throughout the entire GTOINT-calculation: 10.8 MB


           ************************************************************
           *        Program running with 4 parallel MPI-processes     *
           *              working on a common directory               *
           ************************************************************
-------------------------------------------------------------------------------
                                 ORCA SCF
-------------------------------------------------------------------------------

------------
SCF SETTINGS
------------
Hamiltonian:
 Density Functional     Method          .... DFT(GTOs)
 Exchange Functional    Exchange        .... PBE
   PBE kappa parameter   XKappa         ....  1.024500
   PBE mue parameter    XMuePBE         ....  0.123457
 Correlation Functional Correlation     .... PBE
   PBE beta parameter  CBetaPBE         ....  0.030000
 LDA part of GGA corr.  LDAOpt          .... PW91-LDA
 Gradients option       PostSCFGGA      .... off
 Hybrid DFT is turned on
   Fraction HF Exchange ScalHFX         ....  0.420000
   Scaling of DF-GGA-X  ScalDFX         ....  0.580000
   Scaling of DF-GGA-C  ScalDFC         ....  1.000000
   Scaling of DF-LDA-C  ScalLDAC        ....  1.000000
   Perturbative correction              ....  0.000000
   Density functional embedding theory  .... OFF
 RI-approximation to the Coulomb term is turned on
   Number of AuxJ basis functions       .... 453
   RIJ-ON(X) (HFX calculated with O(N)) .... on
   Number of AuxJ basis functions       .... 453
   RIJ-COSX (HFX calculated with COS-X)).... on


General Settings:
 Integral files         IntName         .... pbeh-3c
 Hartree-Fock type      HFTyp           .... RHF
 Total Charge           Charge          ....    0
 Multiplicity           Mult            ....    1
 Number of Electrons    NEL             ....   52
 Basis Dimension        Dim             ....  125
 Nuclear Repulsion      ENuc            ....    271.9884983032 Eh

Convergence Acceleration:
 DIIS                   CNVDIIS         .... on
   Start iteration      DIISMaxIt       ....    12
   Startup error        DIISStart       ....  0.200000
   # of expansion vecs  DIISMaxEq       ....     5
   Bias factor          DIISBfac        ....   1.050
   Max. coefficient     DIISMaxC        ....  10.000
 Trust-Rad. Augm. Hess. CNVTRAH         .... auto
   Auto Start mean grad. ratio tolernc. ....  1.125000
   Auto Start start iteration           ....    20
   Auto Start num. interpolation iter.  ....    10
   Max. Number of Micro iterations      ....    16
   Max. Number of Macro iterations      .... Maxiter - #DIIS iter
   Number of Davidson start vectors     ....     2
   Converg. threshold I  (grad. norm)   ....   1.000e-05
   Converg. threshold II (energy diff.) ....   1.000e-08
   Grad. Scal. Fac. for Micro threshold ....   0.100
   Minimum threshold for Micro iter.    ....   0.010
   NR start threshold (gradient norm)   ....   0.001
   Initial trust radius                 ....   0.400
   Minimum AH scaling param. (alpha)    ....   1.000
   Maximum AH scaling param. (alpha)    .... 1000.000
   Orbital update algorithm             .... Taylor
   White noise on init. David. guess    .... on
   Maximum white noise                  ....   0.010
   Quad. conv. algorithm                .... NR
   COSX micro iterations for RIJONX calc.... off
 SOSCF                  CNVSOSCF        .... on
   Start iteration      SOSCFMaxIt      ....   150
   Startup grad/error   SOSCFStart      ....  0.003300
 Level Shifting         CNVShift        .... on
   Level shift para.    LevelShift      ....    0.2500
   Turn off err/grad.   ShiftErr        ....    0.0010
 Zerner damping         CNVZerner       .... off
 Static damping         CNVDamp         .... on
   Fraction old density DampFac         ....    0.7000
   Max. Damping (<1)    DampMax         ....    0.9800
   Min. Damping (>=0)   DampMin         ....    0.0000
   Turn off err/grad.   DampErr         ....    0.1000
 Fernandez-Rico         CNVRico         .... off

SCF Procedure:
 Maximum # iterations   MaxIter         ....   125
 SCF integral mode      SCFMode         .... Direct
   Integral package                     .... SHARK and LIBINT hybrid scheme
 Reset frequency        DirectResetFreq ....    20
 Integral Threshold     Thresh          ....  2.500e-11 Eh
 Primitive CutOff       TCut            ....  2.500e-12 Eh

Convergence Tolerance:
 Convergence Check Mode ConvCheckMode   .... Total+1el-Energy
 Convergence forced     ConvForced      .... 0
 Energy Change          TolE            ....  1.000e-08 Eh
 1-El. energy change                    ....  1.000e-05 Eh
 Orbital Gradient       TolG            ....  1.000e-05
 Orbital Rotation angle TolX            ....  1.000e-05
 DIIS Error             TolErr          ....  5.000e-07


Diagonalization of the overlap matrix:
Smallest eigenvalue                        ... 1.314e-03
Time for diagonalization                   ...    0.004 sec
Threshold for overlap eigenvalues          ... 1.000e-08
Number of eigenvalues below threshold      ... 0
Time for construction of square roots      ...    0.005 sec
Total time needed                          ...    0.009 sec

--------------------------------
INITIAL GUESS: MINIMAL BASIS EHT
--------------------------------
The minimal basis has 45 functions
EHT matrix was diagonalized
Basis set overlap was calculated now projecting the orbitals
Using GuessMode=FMatrix for the initial guess
C*T matrix was formed
Effective Fockian was calculated
Effective Fockian was diagonalized
Initial density was built
                      ------------------
                      INITIAL GUESS DONE
                      ------------------
-------------------
DFT GRID GENERATION
-------------------

General Integration Accuracy     IntAcc      ... 4.959
Radial Grid Type                 RadialGrid  ... OptM3 with GC (2021)
Angular Grid (max. ang.)         AngularGrid ... 6 (Lebedev-590)
Angular grid pruning method      GridPruning ... 4 (adaptive)
Weight generation scheme         WeightScheme... Becke
Basis function cutoff            BFCut       ... 1.0000e-11
Integration weight cutoff        WCut        ... 1.0000e-14
Angular grids for H and He will be reduced by one unit
Partially contracted basis set               ... off
Rotationally invariant grid construction     ... off

Total number of grid points                  ...   187358
Total number of batches                      ...     2936
Average number of points per batch           ...       63
Average number of grid points per atom       ...    11021
Time for grid setup =    2.556 sec

--------------------
COSX GRID GENERATION
--------------------

GRIDX 1
-------
General Integration Accuracy     IntAcc      ... 4.020
Radial Grid Type                 RadialGrid  ... OptM3 with GC (2021)
Angular Grid (max. ang.)         AngularGrid ... 2 (Lebedev-110)
Angular grid pruning method      GridPruning ... 4 (adaptive)
Weight generation scheme         WeightScheme... Becke
Basis function cutoff            BFCut       ... 1.0000e-11
Integration weight cutoff        WCut        ... 1.0000e-14
Angular grids for H and He will be reduced by one unit
Partially contracted basis set               ... on
Rotationally invariant grid construction     ... off

Total number of grid points                  ...    20224
Total number of batches                      ...      324
Average number of points per batch           ...       62
Average number of grid points per atom       ...     1190
UseSFitting                                  ... on

GRIDX 2
-------
General Integration Accuracy     IntAcc      ... 4.338
Radial Grid Type                 RadialGrid  ... OptM3 with GC (2021)
Angular Grid (max. ang.)         AngularGrid ... 3 (Lebedev-194)
Angular grid pruning method      GridPruning ... 4 (adaptive)
Weight generation scheme         WeightScheme... Becke
Basis function cutoff            BFCut       ... 1.0000e-11
Integration weight cutoff        WCut        ... 1.0000e-14
Angular grids for H and He will be reduced by one unit
Partially contracted basis set               ... on
Rotationally invariant grid construction     ... off

Total number of grid points                  ...    44351
Total number of batches                      ...      703
Average number of points per batch           ...       63
Average number of grid points per atom       ...     2609
UseSFitting                                  ... on

GRIDX 3
-------
General Integration Accuracy     IntAcc      ... 4.871
Radial Grid Type                 RadialGrid  ... OptM3 with GC (2021)
Angular Grid (max. ang.)         AngularGrid ... 4 (Lebedev-302)
Angular grid pruning method      GridPruning ... 4 (adaptive)
Weight generation scheme         WeightScheme... Becke
Basis function cutoff            BFCut       ... 1.0000e-11
Integration weight cutoff        WCut        ... 1.0000e-14
Angular grids for H and He will be reduced by one unit
Partially contracted basis set               ... on
Rotationally invariant grid construction     ... off

Total number of grid points                  ...    86562
Total number of batches                      ...     1363
Average number of points per batch           ...       63
Average number of grid points per atom       ...     5092
UseSFitting                                  ... on

Time for X-Grid setup             =    1.268 sec

--------------
SCF ITERATIONS
--------------
ITER       Energy         Delta-E        Max-DP      RMS-DP      [F,P]     Damp
               ***  Starting incremental Fock matrix formation  ***
  0   -271.4441373644   0.000000000000 0.07336567  0.00377073  0.4079660 0.7000
  1   -271.6306502606  -0.186512896200 0.05205531  0.00282619  0.2894947 0.7000
  2   -271.7647379465  -0.134087685866 0.03773174  0.00211281  0.2044567 0.7000
                               ***Turning on DIIS***
  3   -271.8603723555  -0.095634408982 0.02759091  0.00157658  0.1442528 0.7000
  4   -271.9284032157  -0.068030860224 0.02137093  0.00124748  0.1016608 0.7000
  5   -271.9766851685  -0.048281952842 0.05144259  0.00312618  0.0712403 0.0000
                      *** Initiating the SOSCF procedure ***
                           *** Shutting down DIIS ***
                      *** Re-Reading the Fockian *** 
                      *** Removing any level shift *** 
ITER      Energy       Delta-E        Grad      Rot      Max-DP    RMS-DP
  6   -272.09201271  -0.1153275379  0.001243  0.001243  0.002737  0.000134
               *** Restarting incremental Fock matrix formation ***
  7   -272.09207999  -0.0000672850  0.000480  0.000756  0.001651  0.000082
  8   -272.09209137  -0.0000113795  0.000099  0.000259  0.000571  0.000028
  9   -272.09209177  -0.0000004034  0.000080  0.000086  0.000205  0.000009
 10   -272.09209216  -0.0000003808  0.000016  0.000040  0.000064  0.000002
 11   -272.09209215   0.0000000008  0.000018  0.000022  0.000034  0.000001
                  ***Gradient check signals convergence***
              ***Rediagonalizing the Fockian in SOSCF/NRSCF***

               *****************************************************
               *                     SUCCESS                       *
               *           SCF CONVERGED AFTER  12 CYCLES          *
               *****************************************************

Old exchange energy                            =    -16.712772913 Eh
New exchange energy                            =    -16.712775193 Eh
Exchange energy change after final integration =     -0.000002280 Eh
Total energy after final integration           =   -272.092094439 Eh
Final COS-X integration done in                =     3.367 sec

----------------
TOTAL SCF ENERGY
----------------

Total Energy       :         -272.09209444 Eh           -7404.00230 eV

Components:
Nuclear Repulsion  :          271.98849830 Eh            7401.18331 eV
Electronic Energy  :         -544.08059274 Eh          -14805.18561 eV
One Electron Energy:         -904.13284062 Eh          -24602.70537 eV
Two Electron Energy:          360.05224787 Eh            9797.51976 eV
Max COSX asymmetry :            0.00000116 Eh               0.00003 eV

Virial components:
Potential Energy   :         -541.94821671 Eh          -14747.16071 eV
Kinetic Energy     :          269.85612227 Eh            7343.15841 eV
Virial Ratio       :            2.00828579


DFT components:
N(Alpha)           :       25.999998950094 electrons
N(Beta)            :       25.999998950094 electrons
N(Total)           :       51.999997900188 electrons
E(X)               :      -22.166459882106 Eh       
E(C)               :       -2.214303687092 Eh       
E(XC)              :      -24.380763569198 Eh       
DFET-embed. en.    :        0.000000000000 Eh       

---------------
SCF CONVERGENCE
---------------

  Last Energy change         ...   -5.4616e-09  Tolerance :   1.0000e-08
  Last MAX-Density change    ...    2.2204e-15  Tolerance :   1.0000e-07
  Last RMS-Density change    ...    4.4408e-17  Tolerance :   5.0000e-09
  Last Orbital Gradient      ...    1.2297e-06  Tolerance :   1.0000e-05
  Last Orbital Rotation      ...    3.5961e-06  Tolerance :   1.0000e-05

             **** THE GBW FILE WAS UPDATED (pbeh-3c.gbw) ****
             **** DENSITY pbeh-3c.scfp WAS UPDATED ****
             **** ENERGY FILE WAS UPDATED (pbeh-3c.en.tmp) ****
             **** THE GBW FILE WAS UPDATED (pbeh-3c.gbw) ****
             **** DENSITY pbeh-3c.scfp WAS UPDATED ****
----------------
ORBITAL ENERGIES
----------------

  NO   OCC          E(Eh)            E(eV) 
   0   2.0000     -10.448671      -284.3228 
   1   2.0000     -10.442040      -284.1424 
   2   2.0000     -10.440062      -284.0885 
   3   2.0000     -10.439006      -284.0598 
   4   2.0000     -10.438588      -284.0484 
   5   2.0000     -10.434256      -283.9305 
   6   2.0000     -10.428971      -283.7867 
   7   2.0000      -0.959674       -26.1141 
   8   2.0000      -0.879060       -23.9204 
   9   2.0000      -0.789533       -21.4843 
  10   2.0000      -0.731872       -19.9153 
  11   2.0000      -0.701503       -19.0889 
  12   2.0000      -0.620246       -16.8778 
  13   2.0000      -0.582585       -15.8530 
  14   2.0000      -0.563168       -15.3246 
  15   2.0000      -0.525971       -14.3124 
  16   2.0000      -0.473466       -12.8837 
  17   2.0000      -0.466196       -12.6858 
  18   2.0000      -0.459695       -12.5089 
  19   2.0000      -0.441689       -12.0190 
  20   2.0000      -0.415274       -11.3002 
  21   2.0000      -0.388924       -10.5832 
  22   2.0000      -0.384467       -10.4619 
  23   2.0000      -0.363721        -9.8974 
  24   2.0000      -0.297994        -8.1088 
  25   2.0000      -0.278105        -7.5676 
  26   0.0000       0.039788         1.0827 
  27   0.0000       0.063179         1.7192 
  28   0.0000       0.165072         4.4918 
  29   0.0000       0.167459         4.5568 
  30   0.0000       0.171448         4.6653 
  31   0.0000       0.183855         5.0029 
  32   0.0000       0.190304         5.1784 
  33   0.0000       0.208874         5.6838 
  34   0.0000       0.219627         5.9764 
  35   0.0000       0.222865         6.0645 
  36   0.0000       0.224601         6.1117 
  37   0.0000       0.234985         6.3943 
  38   0.0000       0.241576         6.5736 
  39   0.0000       0.272905         7.4261 
  40   0.0000       0.294170         8.0048 
  41   0.0000       0.324283         8.8242 
  42   0.0000       0.362123         9.8539 
  43   0.0000       0.409962        11.1556 
  44   0.0000       0.447399        12.1744 
  45   0.0000       0.483073        13.1451 
  46   0.0000       0.491689        13.3795 
  47   0.0000       0.519495        14.1362 
  48   0.0000       0.531686        14.4679 
  49   0.0000       0.558717        15.2035 
  50   0.0000       0.570406        15.5215 
  51   0.0000       0.599889        16.3238 
  52   0.0000       0.606373        16.5002 
  53   0.0000       0.622526        16.9398 
  54   0.0000       0.642046        17.4710 
  55   0.0000       0.650919        17.7124 
  56   0.0000       0.671339        18.2681 
  57   0.0000       0.687779        18.7154 
  58   0.0000       0.708097        19.2683 
  59   0.0000       0.725279        19.7358 
  60   0.0000       0.771733        20.9999 
  61   0.0000       0.819503        22.2998 
  62   0.0000       0.820990        22.3403 
  63   0.0000       0.852647        23.2017 
  64   0.0000       0.878759        23.9123 
  65   0.0000       0.943801        25.6821 
  66   0.0000       0.961741        26.1703 
  67   0.0000       0.983853        26.7720 
  68   0.0000       1.009585        27.4722 
  69   0.0000       1.013367        27.5751 
  70   0.0000       1.031465        28.0676 
  71   0.0000       1.037275        28.2257 
  72   0.0000       1.049583        28.5606 
  73   0.0000       1.061774        28.8923 
  74   0.0000       1.079811        29.3832 
  75   0.0000       1.105627        30.0856 
  76   0.0000       1.140733        31.0409 
  77   0.0000       1.179848        32.1053 
  78   0.0000       1.195168        32.5222 
  79   0.0000       1.251170        34.0461 
  80   0.0000       1.342592        36.5338 
  81   0.0000       1.366477        37.1837 
  82   0.0000       1.389967        37.8229 
  83   0.0000       1.480746        40.2931 
  84   0.0000       1.547731        42.1159 
  85   0.0000       1.571296        42.7571 
  86   0.0000       1.609365        43.7930 
  87   0.0000       1.654614        45.0243 
  88   0.0000       1.722415        46.8693 
  89   0.0000       1.815755        49.4092 
  90   0.0000       1.835907        49.9576 
  91   0.0000       1.873373        50.9771 
  92   0.0000       1.963506        53.4297 
  93   0.0000       1.980953        53.9045 
  94   0.0000       2.011628        54.7392 
  95   0.0000       2.048691        55.7477 
  96   0.0000       2.076730        56.5107 
  97   0.0000       2.111223        57.4493 
  98   0.0000       2.146891        58.4199 
  99   0.0000       2.184975        59.4562 
 100   0.0000       2.209604        60.1264 
 101   0.0000       2.285435        62.1898 
 102   0.0000       2.315421        63.0058 
 103   0.0000       2.335973        63.5650 
 104   0.0000       2.392019        65.0901 
 105   0.0000       2.414419        65.6997 
 106   0.0000       2.424546        65.9753 
 107   0.0000       2.455683        66.8225 
 108   0.0000       2.503571        68.1256 
 109   0.0000       2.549159        69.3661 
 110   0.0000       2.599688        70.7411 
 111   0.0000       2.621693        71.3399 
 112   0.0000       2.678114        72.8752 
 113   0.0000       2.743178        74.6457 
 114   0.0000       2.941905        80.0533 
 115   0.0000       2.963666        80.6454 
 116   0.0000       3.029286        82.4311 
 117   0.0000       3.061962        83.3202 
 118   0.0000      13.359884       363.5409 
 119   0.0000      13.523633       367.9968 
 120   0.0000      13.804111       375.6290 
 121   0.0000      13.859593       377.1387 
 122   0.0000      14.012772       381.3069 
 123   0.0000      14.229228       387.1970 
 124   0.0000      14.342900       390.2902 

                    ********************************
                    * MULLIKEN POPULATION ANALYSIS *
                    ********************************

-----------------------
MULLIKEN ATOMIC CHARGES
-----------------------
   0 C :   -0.352070
   1 C :   -0.429694
   2 C :   -0.151984
   3 C :   -0.210655
   4 H :    0.226589
   5 C :   -0.127062
   6 H :    0.205075
   7 C :   -0.207174
   8 H :    0.203798
   9 H :    0.203879
  10 H :    0.201960
  11 H :    0.225966
  12 C :   -0.684933
  13 H :    0.222625
  14 H :    0.223481
  15 H :    0.223598
  16 H :    0.226599
Sum of atomic charges:    0.0000000

--------------------------------
MULLIKEN REDUCED ORBITAL CHARGES
--------------------------------
  0 C s       :     3.331272  s :     3.331272
      pz      :     1.130281  p :     2.968371
      px      :     0.908954
      py      :     0.929135
      dz2     :     0.014123  d :     0.052427
      dxz     :     0.009798
      dyz     :     0.004955
      dx2y2   :     0.009222
      dxy     :     0.014328
  1 C s       :     3.328347  s :     3.328347
      pz      :     1.114784  p :     3.056413
      px      :     0.964188
      py      :     0.977442
      dz2     :     0.005024  d :     0.044934
      dxz     :     0.006349
      dyz     :     0.015104
      dx2y2   :     0.006096
      dxy     :     0.012361
  2 C s       :     3.262872  s :     3.262872
      pz      :     0.964468  p :     2.846450
      px      :     0.921286
      py      :     0.960696
      dz2     :     0.005573  d :     0.042662
      dxz     :     0.004392
      dyz     :     0.005627
      dx2y2   :     0.015611
      dxy     :     0.011459
  3 C s       :     3.282827  s :     3.282827
      pz      :     0.975889  p :     2.884645
      px      :     0.988916
      py      :     0.919840
      dz2     :     0.003844  d :     0.043183
      dxz     :     0.007582
      dyz     :     0.006229
      dx2y2   :     0.013913
      dxy     :     0.011615
  4 H s       :     0.773411  s :     0.773411
  5 C s       :     3.205336  s :     3.205336
      pz      :     1.019384  p :     2.881713
      px      :     0.862271
      py      :     1.000058
      dz2     :     0.013805  d :     0.040014
      dxz     :     0.010448
      dyz     :     0.001556
      dx2y2   :     0.006097
      dxy     :     0.008107
  6 H s       :     0.794925  s :     0.794925
  7 C s       :     3.241497  s :     3.241497
      pz      :     1.023919  p :     2.925290
      px      :     0.909333
      py      :     0.992038
      dz2     :     0.013996  d :     0.040387
      dxz     :     0.010257
      dyz     :     0.001374
      dx2y2   :     0.006334
      dxy     :     0.008426
  8 H s       :     0.796202  s :     0.796202
  9 H s       :     0.796121  s :     0.796121
 10 H s       :     0.798040  s :     0.798040
 11 H s       :     0.774034  s :     0.774034
 12 C s       :     3.393998  s :     3.393998
      pz      :     1.107880  p :     3.253620
      px      :     1.017137
      py      :     1.128604
      dz2     :     0.012007  d :     0.037315
      dxz     :     0.005631
      dyz     :     0.002392
      dx2y2   :     0.004788
      dxy     :     0.012497
 13 H s       :     0.777375  s :     0.777375
 14 H s       :     0.776519  s :     0.776519
 15 H s       :     0.776402  s :     0.776402
 16 H s       :     0.773401  s :     0.773401


                     *******************************
                     * LOEWDIN POPULATION ANALYSIS *
                     *******************************

----------------------
LOEWDIN ATOMIC CHARGES
----------------------
   0 C :   -0.127997
   1 C :   -0.218260
   2 C :   -0.135686
   3 C :   -0.138834
   4 H :    0.128386
   5 C :   -0.149485
   6 H :    0.127072
   7 C :   -0.156842
   8 H :    0.124735
   9 H :    0.125150
  10 H :    0.122934
  11 H :    0.128372
  12 C :   -0.357807
  13 H :    0.131736
  14 H :    0.133660
  15 H :    0.133672
  16 H :    0.129195

-------------------------------
LOEWDIN REDUCED ORBITAL CHARGES
-------------------------------
  0 C s       :     2.875843  s :     2.875843
      pz      :     1.090347  p :     3.141342
      px      :     1.016041
      py      :     1.034954
      dz2     :     0.026773  d :     0.110812
      dxz     :     0.021152
      dyz     :     0.010096
      dx2y2   :     0.018825
      dxy     :     0.033966
  1 C s       :     2.925609  s :     2.925609
      pz      :     1.108987  p :     3.204261
      px      :     1.048329
      py      :     1.046945
      dz2     :     0.009339  d :     0.088391
      dxz     :     0.011604
      dyz     :     0.028106
      dx2y2   :     0.011940
      dxy     :     0.027402
  2 C s       :     2.930143  s :     2.930143
      pz      :     0.996681  p :     3.113678
      px      :     1.044246
      py      :     1.072751
      dz2     :     0.010644  d :     0.091865
      dxz     :     0.009239
      dyz     :     0.010925
      dx2y2   :     0.032006
      dxy     :     0.029050
  3 C s       :     2.925639  s :     2.925639
      pz      :     0.990277  p :     3.119709
      px      :     1.061108
      py      :     1.068323
      dz2     :     0.006326  d :     0.093487
      dxz     :     0.013531
      dyz     :     0.014007
      dx2y2   :     0.029744
      dxy     :     0.029879
  4 H s       :     0.871614  s :     0.871614
  5 C s       :     2.905510  s :     2.905510
      pz      :     1.089283  p :     3.153448
      px      :     1.073391
      py      :     0.990774
      dz2     :     0.028474  d :     0.090526
      dxz     :     0.027334
      dyz     :     0.002691
      dx2y2   :     0.015773
      dxy     :     0.016256
  6 H s       :     0.872928  s :     0.872928
  7 C s       :     2.907218  s :     2.907218
      pz      :     1.089025  p :     3.159909
      px      :     1.082871
      py      :     0.988013
      dz2     :     0.028428  d :     0.089715
      dxz     :     0.026854
      dyz     :     0.002408
      dx2y2   :     0.015609
      dxy     :     0.016416
  8 H s       :     0.875265  s :     0.875265
  9 H s       :     0.874850  s :     0.874850
 10 H s       :     0.877066  s :     0.877066
 11 H s       :     0.871628  s :     0.871628
 12 C s       :     2.945186  s :     2.945186
      pz      :     1.124962  p :     3.342393
      px      :     1.086907
      py      :     1.130524
      dz2     :     0.021751  d :     0.070228
      dxz     :     0.012384
      dyz     :     0.003576
      dx2y2   :     0.009628
      dxy     :     0.022888
 13 H s       :     0.868264  s :     0.868264
 14 H s       :     0.866340  s :     0.866340
 15 H s       :     0.866328  s :     0.866328
 16 H s       :     0.870805  s :     0.870805


                      *****************************
                      * MAYER POPULATION ANALYSIS *
                      *****************************

  NA   - Mulliken gross atomic population
  ZA   - Total nuclear charge
  QA   - Mulliken gross atomic charge
  VA   - Mayer's total valence
  BVA  - Mayer's bonded valence
  FA   - Mayer's free valence

  ATOM       NA         ZA         QA         VA         BVA        FA
  0 C      6.3521     6.0000    -0.3521     3.7827     3.7827     0.0000
  1 C      6.4297     6.0000    -0.4297     3.7049     3.7049    -0.0000
  2 C      6.1520     6.0000    -0.1520     3.7204     3.7204     0.0000
  3 C      6.2107     6.0000    -0.2107     3.7689     3.7689     0.0000
  4 H      0.7734     1.0000     0.2266     0.9080     0.9080    -0.0000
  5 C      6.1271     6.0000    -0.1271     3.7447     3.7447     0.0000
  6 H      0.7949     1.0000     0.2051     0.9212     0.9212    -0.0000
  7 C      6.2072     6.0000    -0.2072     3.7935     3.7935     0.0000
  8 H      0.7962     1.0000     0.2038     0.9211     0.9211     0.0000
  9 H      0.7961     1.0000     0.2039     0.9269     0.9269     0.0000
 10 H      0.7980     1.0000     0.2020     0.9289     0.9289     0.0000
 11 H      0.7740     1.0000     0.2260     0.9091     0.9091    -0.0000
 12 C      6.6849     6.0000    -0.6849     3.7481     3.7481     0.0000
 13 H      0.7774     1.0000     0.2226     0.9150     0.9150     0.0000
 14 H      0.7765     1.0000     0.2235     0.9051     0.9051    -0.0000
 15 H      0.7764     1.0000     0.2236     0.9051     0.9051    -0.0000
 16 H      0.7734     1.0000     0.2266     0.9110     0.9110     0.0000

  Mayer bond orders larger than 0.100000
B(  0-C ,  1-C ) :   0.9413 B(  0-C ,  2-C ) :   0.9999 B(  0-C ,  5-C ) :   0.9809 
B(  0-C , 16-H ) :   0.9067 B(  1-C ,  3-C ) :   1.0103 B(  1-C ,  4-H ) :   0.9105 
B(  1-C , 11-H ) :   0.9123 B(  2-C ,  3-C ) :   1.8579 B(  2-C ,  9-H ) :   0.9279 
B(  3-C , 10-H ) :   0.9288 B(  5-C ,  6-H ) :   0.9170 B(  5-C ,  7-C ) :   1.8872 
B(  7-C ,  8-H ) :   0.9220 B(  7-C , 12-C ) :   0.9950 B( 12-C , 13-H ) :   0.9309 
B( 12-C , 14-H ) :   0.9172 B( 12-C , 15-H ) :   0.9174 

-------
TIMINGS
-------

Total SCF time: 0 days 0 hours 0 min 52 sec 

Total time                  ....      52.563 sec
Sum of individual times     ....      50.522 sec  ( 96.1%)

Fock matrix formation       ....      45.171 sec  ( 85.9%)
  Split-RI-J                ....       4.086 sec  (  9.0% of F)
  Chain of spheres X        ....      22.480 sec  ( 49.8% of F)
  XC integration            ....      12.514 sec  ( 27.7% of F)
    Basis function eval.    ....       3.177 sec  ( 25.4% of XC)
    Density eval.           ....       1.736 sec  ( 13.9% of XC)
    XC-Functional eval.     ....       1.283 sec  ( 10.2% of XC)
    XC-Potential eval.      ....       1.172 sec  (  9.4% of XC)
Diagonalization             ....       0.180 sec  (  0.3%)
Density matrix formation    ....       0.003 sec  (  0.0%)
Population analysis         ....       0.765 sec  (  1.5%)
Initial guess               ....       0.011 sec  (  0.0%)
Orbital Transformation      ....       0.000 sec  (  0.0%)
Orbital Orthonormalization  ....       0.000 sec  (  0.0%)
DIIS solution               ....       0.274 sec  (  0.5%)
SOSCF solution              ....       0.295 sec  (  0.6%)
Grid generation             ....       3.824 sec  (  7.3%)

Maximum memory used throughout the entire SCF-calculation: 54.4 MB


-------------------------------------------------------------------------------
                          DFT DISPERSION CORRECTION                            
                                                                               
                              DFTD3 V3.1  Rev 1                                
                          USING Becke-Johnson damping                          
-------------------------------------------------------------------------------
The PBEh-3c composite method is recognized
Using three-body term ABC
Active option DFTDOPT                   ...         4   

molecular C6(AA) [au] = 2522.190002 


            DFT-D V3
 parameters
 s6 scaling factor         :     1.0000 
 a1 scaling factor         :     0.4860 
 s8 scaling factor         :     0.0000 
 a2 scaling factor         :     4.5000 
 Damping factor alpha9(ATM):    16.0000 
 ad hoc parameters k1-k3   :    16.0000     1.3333    -4.0000 

 Edisp/kcal,au: -4.892144060547  -0.007796126976 
 E6   /kcal   :  -4.899794798 
 E8   /kcal   :  -0.000000000 
 E6(ABC)      :   0.007650738 
 % E8         :   0.000000000 
 % E6(ABC)    :  -0.156388232 

-------------------------   ----------------
Dispersion correction           -0.007796127
-------------------------   ----------------

------------------   -----------------
gCP correction             0.021878692
------------------   -----------------

-------------------------   --------------------
FINAL SINGLE POINT ENERGY      -272.078011874641
-------------------------   --------------------


                            ***************************************
                            *     ORCA property calculations      *
                            ***************************************

                                    ---------------------
                                    Active property flags
                                    ---------------------
   (+) Dipole Moment


------------------------------------------------------------------------------
                       ORCA ELECTRIC PROPERTIES CALCULATION
------------------------------------------------------------------------------

Dipole Moment Calculation                       ... on
Quadrupole Moment Calculation                   ... off
Polarizability Calculation                      ... off
GBWName                                         ... pbeh-3c.gbw
Electron density                                ... pbeh-3c.scfp
The origin for moment calculation is the CENTER OF MASS  = (-0.084019, -0.019950  0.009192)

-------------
DIPOLE MOMENT
-------------
                                X             Y             Z
Electronic contribution:     -4.29668      -0.99387       0.48865
Nuclear contribution   :      4.36897       1.03743      -0.47798
                        -----------------------------------------
Total Dipole Moment    :      0.07229       0.04356       0.01068
                        -----------------------------------------
Magnitude (a.u.)       :      0.08507
Magnitude (Debye)      :      0.21624



--------------------
Rotational spectrum 
--------------------
 
Rotational constants in cm-1:     0.296468     0.041893     0.039908 
Rotational constants in MHz :  8887.895580  1255.919378  1196.407596 

 Dipole components along the rotational axes: 
x,y,z [a.u.] :    -0.072521     0.043189     0.010628 
x,y,z [Debye]:    -0.184334     0.109779     0.027013 

 

Timings for individual modules:

Sum of individual times         ...       54.741 sec (=   0.912 min)
GTO integral calculation        ...        1.628 sec (=   0.027 min)   3.0 %
SCF iterations                  ...       53.113 sec (=   0.885 min)  97.0 %
                             ****ORCA TERMINATED NORMALLY****
TOTAL RUN TIME: 0 days 0 hours 0 minutes 55 seconds 983 msec
