
                                 *****************
                                 * O   R   C   A *
                                 *****************

                                            #,                                       
                                            ###                                      
                                            ####                                     
                                            #####                                    
                                            ######                                   
                                           ########,                                 
                                     ,,################,,,,,                         
                               ,,#################################,,                 
                          ,,##########################################,,             
                       ,#########################################, ''#####,          
                    ,#############################################,,   '####,        
                  ,##################################################,,,,####,       
                ,###########''''           ''''###############################       
              ,#####''   ,,,,##########,,,,          '''####'''          '####       
            ,##' ,,,,###########################,,,                        '##       
           ' ,,###''''                  '''############,,,                           
         ,,##''                                '''############,,,,        ,,,,,,###''
      ,#''                                            '''#######################'''  
     '                                                          ''''####''''         
             ,#######,   #######,   ,#######,      ##                                
            ,#'     '#,  ##    ##  ,#'     '#,    #''#        ######   ,####,        
            ##       ##  ##   ,#'  ##            #'  '#       #        #'  '#        
            ##       ##  #######   ##           ,######,      #####,   #    #        
            '#,     ,#'  ##    ##  '#,     ,#' ,#      #,         ##   #,  ,#        
             '#######'   ##     ##  '#######'  #'      '#     #####' # '####'        



                  #######################################################
                  #                        -***-                        #
                  #          Department of theory and spectroscopy      #
                  #    Directorship and core code : Frank Neese         #
                  #        Max Planck Institute fuer Kohlenforschung    #
                  #                Kaiser Wilhelm Platz 1               #
                  #                 D-45470 Muelheim/Ruhr               #
                  #                      Germany                        #
                  #                                                     #
                  #                  All rights reserved                #
                  #                        -***-                        #
                  #######################################################


                         Program Version 5.0.3 -  RELEASE  -


 With contributions from (in alphabetic order):
   Daniel Aravena         : Magnetic Suceptibility
   Michael Atanasov       : Ab Initio Ligand Field Theory (pilot matlab implementation)
   Alexander A. Auer      : GIAO ZORA, VPT2 properties, NMR spectrum
   Ute Becker             : Parallelization
   Giovanni Bistoni       : ED, misc. LED, open-shell LED, HFLD
   Martin Brehm           : Molecular dynamics
   Dmytro Bykov           : SCF Hessian
   Vijay G. Chilkuri      : MRCI spin determinant printing, contributions to CSF-ICE
   Dipayan Datta          : RHF DLPNO-CCSD density
   Achintya Kumar Dutta   : EOM-CC, STEOM-CC
   Dmitry Ganyushin       : Spin-Orbit,Spin-Spin,Magnetic field MRCI
   Miquel Garcia          : C-PCM and meta-GGA Hessian, CC/C-PCM, Gaussian charge scheme
   Yang Guo               : DLPNO-NEVPT2, F12-NEVPT2, CIM, IAO-localization
   Andreas Hansen         : Spin unrestricted coupled pair/coupled cluster methods
   Benjamin Helmich-Paris : MC-RPA, TRAH-SCF, COSX integrals
   Lee Huntington         : MR-EOM, pCC
   Robert Izsak           : Overlap fitted RIJCOSX, COSX-SCS-MP3, EOM
   Marcus Kettner         : VPT2
   Christian Kollmar      : KDIIS, OOCD, Brueckner-CCSD(T), CCSD density, CASPT2, CASPT2-K
   Simone Kossmann        : Meta GGA functionals, TD-DFT gradient, OOMP2, MP2 Hessian
   Martin Krupicka        : Initial AUTO-CI
   Lucas Lang             : DCDCAS
   Marvin Lechner         : AUTO-CI (C++ implementation), FIC-MRCC
   Dagmar Lenk            : GEPOL surface, SMD
   Dimitrios Liakos       : Extrapolation schemes; Compound Job, initial MDCI parallelization
   Dimitrios Manganas     : Further ROCIS development; embedding schemes
   Dimitrios Pantazis     : SARC Basis sets
   Anastasios Papadopoulos: AUTO-CI, single reference methods and gradients
   Taras Petrenko         : DFT Hessian,TD-DFT gradient, ASA, ECA, R-Raman, ABS, FL, XAS/XES, NRVS
   Peter Pinski           : DLPNO-MP2, DLPNO-MP2 Gradient
   Christoph Reimann      : Effective Core Potentials
   Marius Retegan         : Local ZFS, SOC
   Christoph Riplinger    : Optimizer, TS searches, QM/MM, DLPNO-CCSD(T), (RO)-DLPNO pert. Triples
   Tobias Risthaus        : Range-separated hybrids, TD-DFT gradient, RPA, STAB
   Michael Roemelt        : Original ROCIS implementation
   Masaaki Saitow         : Open-shell DLPNO-CCSD energy and density
   Barbara Sandhoefer     : DKH picture change effects
   Avijit Sen             : IP-ROCIS
   Kantharuban Sivalingam : CASSCF convergence, NEVPT2, FIC-MRCI
   Bernardo de Souza      : ESD, SOC TD-DFT
   Georgi Stoychev        : AutoAux, RI-MP2 NMR, DLPNO-MP2 response
   Willem Van den Heuvel  : Paramagnetic NMR
   Boris Wezisla          : Elementary symmetry handling
   Frank Wennmohs         : Technical directorship


 We gratefully acknowledge several colleagues who have allowed us to
 interface, adapt or use parts of their codes:
   Stefan Grimme, W. Hujo, H. Kruse, P. Pracht,  : VdW corrections, initial TS optimization,
                  C. Bannwarth, S. Ehlert          DFT functionals, gCP, sTDA/sTD-DF
   Ed Valeev, F. Pavosevic, A. Kumar             : LibInt (2-el integral package), F12 methods
   Garnet Chan, S. Sharma, J. Yang, R. Olivares  : DMRG
   Ulf Ekstrom                                   : XCFun DFT Library
   Mihaly Kallay                                 : mrcc  (arbitrary order and MRCC methods)
   Jiri Pittner, Ondrej Demel                    : Mk-CCSD
   Frank Weinhold                                : gennbo (NPA and NBO analysis)
   Christopher J. Cramer and Donald G. Truhlar   : smd solvation model
   Lars Goerigk                                  : TD-DFT with DH, B97 family of functionals
   V. Asgeirsson, H. Jonsson                     : NEB implementation
   FAccTs GmbH                                   : IRC, NEB, NEB-TS, DLPNO-Multilevel, CI-OPT
                                                   MM, QMMM, 2- and 3-layer-ONIOM, Crystal-QMMM,
                                                   LR-CPCM, SF, NACMEs, symmetry and pop. for TD-DFT,
                                                   nearIR, NL-DFT gradient (VV10), updates on ESD,
                                                   ML-optimized integration grids
   S Lehtola, MJT Oliveira, MAL Marques          : LibXC Library
   Liviu Ungur et al                             : ANISO software


 Your calculation uses the libint2 library for the computation of 2-el integrals
 For citations please refer to: http://libint.valeyev.net

 Your ORCA version has been built with support for libXC version: 5.1.0
 For citations please refer to: https://tddft.org/programs/libxc/

 This ORCA versions uses:
   CBLAS   interface :  Fast vector & matrix operations
   LAPACKE interface :  Fast linear algebra routines
   SCALAPACK package :  Parallel linear algebra routines
   Shared memory     :  Shared parallel matrices
   BLAS/LAPACK       :  OpenBLAS 0.3.15  USE64BITINT DYNAMIC_ARCH NO_AFFINITY Haswell SINGLE_THREADED
        Core in use  :  Haswell
   Copyright (c) 2011-2014, The OpenBLAS Project




***************************************
The coordinates will be read from file: E8.xyz
***************************************


Your calculation utilizes the geometrical counterpoise correction gCP
Please cite in your paper:
H.Kruse, S. Grimme J.Chem.Phys., 136, (2012), 154101 
   

Your calculation utilizes the atom-pairwise dispersion correction
with the Becke-Johnson damping scheme (D3BJ)
Cite in your paper:
S.Grimme, S.Ehrlich, L.Goerigk, J Comput Chem, (2011), 32, 1456–1465 
S.Grimme, J.Antony, S.Ehrlich and H.Krieg, J.Chem.Phys., 132, (2010), 154104 
   

Your calculation employs the composite approach PBEh-3c.
Please cite in your paper:
S. Grimme, J. G. Brandenburg, C. Bannwarth, A. Hansen J.Chem.Phys., 143, (2015), 054107 
   

================================================================================

----- Orbital basis set information -----
Your calculation utilizes the basis: def2-mSVP

----- AuxJ basis set information -----
Your calculation utilizes the auxiliary basis: def2/J
   F. Weigend, Phys. Chem. Chem. Phys. 8, 1057 (2006).

================================================================================
                                        WARNINGS
                       Please study these warnings very carefully!
================================================================================


INFO   : the flag for use of the SHARK integral package has been found!

================================================================================
                                       INPUT FILE
================================================================================
NAME = pbeh-3c.inp
|  1> ! PBEh-3c def2/J TightSCF DefGrid3
|  2> 
|  3> %maxcore 60000
|  4> 
|  5> %pal
|  6> nprocs 4
|  7> end
|  8> 
|  9> *xyzfile 0 1 E8.xyz
| 10> 
| 11>                          ****END OF INPUT****
================================================================================

                       ****************************
                       * Single Point Calculation *
                       ****************************

---------------------------------
CARTESIAN COORDINATES (ANGSTROEM)
---------------------------------
  C     -1.184554    0.054120    0.665255
  C     -1.184554    0.054120   -0.665255
  C      0.207008   -0.091638   -1.234056
  C      1.116864    0.140017    0.000000
  C      0.207008   -0.091638    1.234056
  H     -2.070353    0.110362    1.286795
  H     -2.070353    0.110362   -1.286795
  H      0.412617    0.615496   -2.042473
  H      0.343201   -1.094257   -1.658628
  H      1.998562   -0.502291    0.000000
  H      1.468735    1.174106    0.000000
  H      0.412617    0.615496    2.042473
  H      0.343201   -1.094257    1.658628

----------------------------
CARTESIAN COORDINATES (A.U.)
----------------------------
  NO LB      ZA    FRAG     MASS         X           Y           Z
   0 C     6.0000    0    12.011   -2.238483    0.102272    1.257149
   1 C     6.0000    0    12.011   -2.238483    0.102272   -1.257149
   2 C     6.0000    0    12.011    0.391189   -0.173171   -2.332028
   3 C     6.0000    0    12.011    2.110567    0.264594    0.000000
   4 C     6.0000    0    12.011    0.391189   -0.173171    2.332028
   5 H     1.0000    0     1.008   -3.912400    0.208555    2.431690
   6 H     1.0000    0     1.008   -3.912400    0.208555   -2.431690
   7 H     1.0000    0     1.008    0.779733    1.163119   -3.859714
   8 H     1.0000    0     1.008    0.648557   -2.067846   -3.134353
   9 H     1.0000    0     1.008    3.776734   -0.949192    0.000000
  10 H     1.0000    0     1.008    2.775507    2.218739    0.000000
  11 H     1.0000    0     1.008    0.779733    1.163119    3.859714
  12 H     1.0000    0     1.008    0.648557   -2.067846    3.134353

--------------------------------
INTERNAL COORDINATES (ANGSTROEM)
--------------------------------
 C      0   0   0     0.000000000000     0.00000000     0.00000000
 C      1   0   0     1.330509400000     0.00000000     0.00000000
 C      2   1   0     1.510373086447   112.12301997     0.00000000
 C      3   2   1     1.550611239544   103.09008960   347.56662976
 C      1   2   3     1.510373086447   112.12301997     0.00000000
 H      1   2   3     1.083565447287   125.00210389   182.34653556
 H      2   1   3     1.083565447287   125.00210389   177.65346444
 H      3   2   1     1.093549943061   112.90647708   226.00857240
 H      3   2   1     1.097294361138   110.38012645   107.13013134
 H      4   3   2     1.090848521475   112.72463376   142.63297837
 H      4   3   2     1.092315582117   109.29615678   261.83318065
 H      5   1   2     1.093549943061   112.90647708   133.99142760
 H      5   1   2     1.097294361138   110.38012645   252.86986866

---------------------------
INTERNAL COORDINATES (A.U.)
---------------------------
 C      0   0   0     0.000000000000     0.00000000     0.00000000
 C      1   0   0     2.514298384608     0.00000000     0.00000000
 C      2   1   0     2.854191493429   112.12301997     0.00000000
 C      3   2   1     2.930230582919   103.09008960   347.56662976
 C      1   2   3     2.854191493429   112.12301997     0.00000000
 H      1   2   3     2.047641943552   125.00210389   182.34653556
 H      2   1   3     2.047641943552   125.00210389   177.65346444
 H      3   2   1     2.066509906151   112.90647708   226.00857240
 H      3   2   1     2.073585830847   110.38012645   107.13013134
 H      4   3   2     2.061404959182   112.72463376   142.63297837
 H      4   3   2     2.064177302016   109.29615678   261.83318065
 H      5   1   2     2.066509906151   112.90647708   133.99142760
 H      5   1   2     2.073585830847   110.38012645   252.86986866

---------------------
BASIS SET INFORMATION
---------------------
There are 2 groups of distinct atoms

 Group   1 Type C   : 8s4p1d contracted to 4s2p1d pattern {5111/31/1}
 Group   2 Type H   : 4s contracted to 2s pattern {31}

Atom   0C    basis set group =>   1
Atom   1C    basis set group =>   1
Atom   2C    basis set group =>   1
Atom   3C    basis set group =>   1
Atom   4C    basis set group =>   1
Atom   5H    basis set group =>   2
Atom   6H    basis set group =>   2
Atom   7H    basis set group =>   2
Atom   8H    basis set group =>   2
Atom   9H    basis set group =>   2
Atom  10H    basis set group =>   2
Atom  11H    basis set group =>   2
Atom  12H    basis set group =>   2
---------------------------------
AUXILIARY/J BASIS SET INFORMATION
---------------------------------
There are 2 groups of distinct atoms

 Group   1 Type C   : 12s5p4d2f1g contracted to 6s4p3d1f1g pattern {711111/2111/211/2/1}
 Group   2 Type H   : 5s2p1d contracted to 3s1p1d pattern {311/2/1}

Atom   0C    basis set group =>   1
Atom   1C    basis set group =>   1
Atom   2C    basis set group =>   1
Atom   3C    basis set group =>   1
Atom   4C    basis set group =>   1
Atom   5H    basis set group =>   2
Atom   6H    basis set group =>   2
Atom   7H    basis set group =>   2
Atom   8H    basis set group =>   2
Atom   9H    basis set group =>   2
Atom  10H    basis set group =>   2
Atom  11H    basis set group =>   2
Atom  12H    basis set group =>   2


           ************************************************************
           *        Program running with 4 parallel MPI-processes     *
           *              working on a common directory               *
           ************************************************************
------------------------------------------------------------------------------
                           ORCA GTO INTEGRAL CALCULATION
                           -- RI-GTO INTEGRALS CHOSEN --
------------------------------------------------------------------------------
------------------------------------------------------------------------------
                   ___                                                        
                  /   \      - P O W E R E D   B Y -                         
                 /     \                                                     
                 |  |  |   _    _      __       _____    __    __             
                 |  |  |  | |  | |    /  \     |  _  \  |  |  /  |          
                  \  \/   | |  | |   /    \    | | | |  |  | /  /          
                 / \  \   | |__| |  /  /\  \   | |_| |  |  |/  /          
                |  |  |   |  __  | /  /__\  \  |    /   |      \           
                |  |  |   | |  | | |   __   |  |    \   |  |\   \          
                \     /   | |  | | |  |  |  |  | |\  \  |  | \   \       
                 \___/    |_|  |_| |__|  |__|  |_| \__\ |__|  \__/        
                                                                              
                      - O R C A' S   B I G   F R I E N D -                    
                                      &                                       
                       - I N T E G R A L  F E E D E R -                       
                                                                              
 v1 FN, 2020, v2 2021                                                         
------------------------------------------------------------------------------


Reading SHARK input file pbeh-3c.SHARKINP.tmp ... ok
----------------------
SHARK INTEGRAL PACKAGE
----------------------

Number of atoms                             ...     13
Number of basis functions                   ...     91
Number of shells                            ...     51
Maximum angular momentum                    ...      2
Integral batch strategy                     ... SHARK/LIBINT Hybrid
RI-J (if used) integral strategy            ... SPLIT-RIJ (Revised 2003 algorithm where possible)
Printlevel                                  ...      1
Contraction scheme used                     ... SEGMENTED contraction
Coulomb Range Separation                    ... NOT USED
Exchange Range Separation                   ... NOT USED
Finite Nucleus Model                        ... NOT USED
Auxiliary Coulomb fitting basis             ... AVAILABLE
   # of basis functions in Aux-J            ...    333
   # of shells in Aux-J                     ...    115
   Maximum angular momentum in Aux-J        ...      4
Auxiliary J/K fitting basis                 ... NOT available
Auxiliary Correlation fitting basis         ... NOT available
Auxiliary 'external' fitting basis          ... NOT available
Integral threshold                          ...     2.500000e-11
Primitive cut-off                           ...     2.500000e-12
Primitive pair pre-selection threshold      ...     2.500000e-12

Calculating pre-screening integrals         ... done (  0.1 sec) Dimension = 51
Organizing shell pair data                  ... done (  0.5 sec)
Shell pair information
Total number of shell pairs                 ...      1326
Shell pairs after pre-screening             ...      1301
Total number of primitive shell pairs       ...      4842
Primitive shell pairs kept                  ...      3666
          la=0 lb=0:    641 shell pairs
          la=1 lb=0:    360 shell pairs
          la=1 lb=1:     55 shell pairs
          la=2 lb=0:    180 shell pairs
          la=2 lb=1:     50 shell pairs
          la=2 lb=2:     15 shell pairs

Calculating one electron integrals          ... done (  0.0 sec)
Calculating RI/J V-Matrix + Cholesky decomp.... done (  0.2 sec)
Calculating Nuclear repulsion               ... done (  0.0 sec) ENN=    171.226576402738 Eh

SHARK setup successfully completed in   1.5 seconds

Maximum memory used throughout the entire GTOINT-calculation: 10.0 MB


           ************************************************************
           *        Program running with 4 parallel MPI-processes     *
           *              working on a common directory               *
           ************************************************************
-------------------------------------------------------------------------------
                                 ORCA SCF
-------------------------------------------------------------------------------

------------
SCF SETTINGS
------------
Hamiltonian:
 Density Functional     Method          .... DFT(GTOs)
 Exchange Functional    Exchange        .... PBE
   PBE kappa parameter   XKappa         ....  1.024500
   PBE mue parameter    XMuePBE         ....  0.123457
 Correlation Functional Correlation     .... PBE
   PBE beta parameter  CBetaPBE         ....  0.030000
 LDA part of GGA corr.  LDAOpt          .... PW91-LDA
 Gradients option       PostSCFGGA      .... off
 Hybrid DFT is turned on
   Fraction HF Exchange ScalHFX         ....  0.420000
   Scaling of DF-GGA-X  ScalDFX         ....  0.580000
   Scaling of DF-GGA-C  ScalDFC         ....  1.000000
   Scaling of DF-LDA-C  ScalLDAC        ....  1.000000
   Perturbative correction              ....  0.000000
   Density functional embedding theory  .... OFF
 RI-approximation to the Coulomb term is turned on
   Number of AuxJ basis functions       .... 333
   RIJ-ON(X) (HFX calculated with O(N)) .... on
   Number of AuxJ basis functions       .... 333
   RIJ-COSX (HFX calculated with COS-X)).... on


General Settings:
 Integral files         IntName         .... pbeh-3c
 Hartree-Fock type      HFTyp           .... RHF
 Total Charge           Charge          ....    0
 Multiplicity           Mult            ....    1
 Number of Electrons    NEL             ....   38
 Basis Dimension        Dim             ....   91
 Nuclear Repulsion      ENuc            ....    171.2265764027 Eh

Convergence Acceleration:
 DIIS                   CNVDIIS         .... on
   Start iteration      DIISMaxIt       ....    12
   Startup error        DIISStart       ....  0.200000
   # of expansion vecs  DIISMaxEq       ....     5
   Bias factor          DIISBfac        ....   1.050
   Max. coefficient     DIISMaxC        ....  10.000
 Trust-Rad. Augm. Hess. CNVTRAH         .... auto
   Auto Start mean grad. ratio tolernc. ....  1.125000
   Auto Start start iteration           ....    20
   Auto Start num. interpolation iter.  ....    10
   Max. Number of Micro iterations      ....    16
   Max. Number of Macro iterations      .... Maxiter - #DIIS iter
   Number of Davidson start vectors     ....     2
   Converg. threshold I  (grad. norm)   ....   1.000e-05
   Converg. threshold II (energy diff.) ....   1.000e-08
   Grad. Scal. Fac. for Micro threshold ....   0.100
   Minimum threshold for Micro iter.    ....   0.010
   NR start threshold (gradient norm)   ....   0.001
   Initial trust radius                 ....   0.400
   Minimum AH scaling param. (alpha)    ....   1.000
   Maximum AH scaling param. (alpha)    .... 1000.000
   Orbital update algorithm             .... Taylor
   White noise on init. David. guess    .... on
   Maximum white noise                  ....   0.010
   Quad. conv. algorithm                .... NR
   COSX micro iterations for RIJONX calc.... off
 SOSCF                  CNVSOSCF        .... on
   Start iteration      SOSCFMaxIt      ....   150
   Startup grad/error   SOSCFStart      ....  0.003300
 Level Shifting         CNVShift        .... on
   Level shift para.    LevelShift      ....    0.2500
   Turn off err/grad.   ShiftErr        ....    0.0010
 Zerner damping         CNVZerner       .... off
 Static damping         CNVDamp         .... on
   Fraction old density DampFac         ....    0.7000
   Max. Damping (<1)    DampMax         ....    0.9800
   Min. Damping (>=0)   DampMin         ....    0.0000
   Turn off err/grad.   DampErr         ....    0.1000
 Fernandez-Rico         CNVRico         .... off

SCF Procedure:
 Maximum # iterations   MaxIter         ....   125
 SCF integral mode      SCFMode         .... Direct
   Integral package                     .... SHARK and LIBINT hybrid scheme
 Reset frequency        DirectResetFreq ....    20
 Integral Threshold     Thresh          ....  2.500e-11 Eh
 Primitive CutOff       TCut            ....  2.500e-12 Eh

Convergence Tolerance:
 Convergence Check Mode ConvCheckMode   .... Total+1el-Energy
 Convergence forced     ConvForced      .... 0
 Energy Change          TolE            ....  1.000e-08 Eh
 1-El. energy change                    ....  1.000e-05 Eh
 Orbital Gradient       TolG            ....  1.000e-05
 Orbital Rotation angle TolX            ....  1.000e-05
 DIIS Error             TolErr          ....  5.000e-07


Diagonalization of the overlap matrix:
Smallest eigenvalue                        ... 2.640e-03
Time for diagonalization                   ...    0.004 sec
Threshold for overlap eigenvalues          ... 1.000e-08
Number of eigenvalues below threshold      ... 0
Time for construction of square roots      ...    0.259 sec
Total time needed                          ...    0.263 sec

--------------------------------
INITIAL GUESS: MINIMAL BASIS EHT
--------------------------------
The minimal basis has 33 functions
EHT matrix was diagonalized
Basis set overlap was calculated now projecting the orbitals
Using GuessMode=FMatrix for the initial guess
C*T matrix was formed
Effective Fockian was calculated
Effective Fockian was diagonalized
Initial density was built
                      ------------------
                      INITIAL GUESS DONE
                      ------------------
-------------------
DFT GRID GENERATION
-------------------

General Integration Accuracy     IntAcc      ... 4.959
Radial Grid Type                 RadialGrid  ... OptM3 with GC (2021)
Angular Grid (max. ang.)         AngularGrid ... 6 (Lebedev-590)
Angular grid pruning method      GridPruning ... 4 (adaptive)
Weight generation scheme         WeightScheme... Becke
Basis function cutoff            BFCut       ... 1.0000e-11
Integration weight cutoff        WCut        ... 1.0000e-14
Angular grids for H and He will be reduced by one unit
Partially contracted basis set               ... off
Rotationally invariant grid construction     ... off

Total number of grid points                  ...   141397
Total number of batches                      ...     2216
Average number of points per batch           ...       63
Average number of grid points per atom       ...    10877
Time for grid setup =    3.052 sec

--------------------
COSX GRID GENERATION
--------------------

GRIDX 1
-------
General Integration Accuracy     IntAcc      ... 4.020
Radial Grid Type                 RadialGrid  ... OptM3 with GC (2021)
Angular Grid (max. ang.)         AngularGrid ... 2 (Lebedev-110)
Angular grid pruning method      GridPruning ... 4 (adaptive)
Weight generation scheme         WeightScheme... Becke
Basis function cutoff            BFCut       ... 1.0000e-11
Integration weight cutoff        WCut        ... 1.0000e-14
Angular grids for H and He will be reduced by one unit
Partially contracted basis set               ... on
Rotationally invariant grid construction     ... off

Total number of grid points                  ...    15172
Total number of batches                      ...      245
Average number of points per batch           ...       61
Average number of grid points per atom       ...     1167
UseSFitting                                  ... on

GRIDX 2
-------
General Integration Accuracy     IntAcc      ... 4.338
Radial Grid Type                 RadialGrid  ... OptM3 with GC (2021)
Angular Grid (max. ang.)         AngularGrid ... 3 (Lebedev-194)
Angular grid pruning method      GridPruning ... 4 (adaptive)
Weight generation scheme         WeightScheme... Becke
Basis function cutoff            BFCut       ... 1.0000e-11
Integration weight cutoff        WCut        ... 1.0000e-14
Angular grids for H and He will be reduced by one unit
Partially contracted basis set               ... on
Rotationally invariant grid construction     ... off

Total number of grid points                  ...    33220
Total number of batches                      ...      526
Average number of points per batch           ...       63
Average number of grid points per atom       ...     2555
UseSFitting                                  ... on

GRIDX 3
-------
General Integration Accuracy     IntAcc      ... 4.871
Radial Grid Type                 RadialGrid  ... OptM3 with GC (2021)
Angular Grid (max. ang.)         AngularGrid ... 4 (Lebedev-302)
Angular grid pruning method      GridPruning ... 4 (adaptive)
Weight generation scheme         WeightScheme... Becke
Basis function cutoff            BFCut       ... 1.0000e-11
Integration weight cutoff        WCut        ... 1.0000e-14
Angular grids for H and He will be reduced by one unit
Partially contracted basis set               ... on
Rotationally invariant grid construction     ... off

Total number of grid points                  ...    65410
Total number of batches                      ...     1029
Average number of points per batch           ...       63
Average number of grid points per atom       ...     5032
UseSFitting                                  ... on

Time for X-Grid setup             =    3.521 sec

--------------
SCF ITERATIONS
--------------
ITER       Energy         Delta-E        Max-DP      RMS-DP      [F,P]     Damp
               ***  Starting incremental Fock matrix formation  ***
  0   -194.4959691693   0.000000000000 0.06320631  0.00394680  0.4032246 0.7000
  1   -194.6143776928  -0.118408523481 0.04730425  0.00292935  0.2837860 0.7000
                               ***Turning on DIIS***
  2   -194.6995175383  -0.085139845448 0.03488681  0.00216950  0.1986975 0.7000
  3   -194.7601672011  -0.060649662822 0.02747532  0.00169872  0.1391866 0.7000
  4   -194.8032472109  -0.043080009815 0.06744354  0.00423252  0.0975729 0.0000
  5   -194.9062578969  -0.103010685964 0.00339450  0.00015853  0.0033117 0.0000
                      *** Initiating the SOSCF procedure ***
                           *** Shutting down DIIS ***
                      *** Re-Reading the Fockian *** 
                      *** Removing any level shift *** 
ITER      Energy       Delta-E        Grad      Rot      Max-DP    RMS-DP
  6   -194.90630826  -0.0000503603  0.000633  0.000633  0.001178  0.000065
               *** Restarting incremental Fock matrix formation ***
  7   -194.90630263   0.0000056238  0.000268  0.000368  0.000568  0.000037
  8   -194.90630366  -0.0000010289  0.000124  0.000112  0.000228  0.000016
  9   -194.90630404  -0.0000003789  0.000018  0.000036  0.000053  0.000004
 10   -194.90630405  -0.0000000101  0.000003  0.000003  0.000009  0.000000
                  ***Gradient check signals convergence***
              ***Rediagonalizing the Fockian in SOSCF/NRSCF***

               *****************************************************
               *                     SUCCESS                       *
               *           SCF CONVERGED AFTER  11 CYCLES          *
               *****************************************************

Old exchange energy                            =    -12.074680158 Eh
New exchange energy                            =    -12.074683346 Eh
Exchange energy change after final integration =     -0.000003188 Eh
Total energy after final integration           =   -194.906307240 Eh
Final COS-X integration done in                =     2.427 sec

----------------
TOTAL SCF ENERGY
----------------

Total Energy       :         -194.90630724 Eh           -5303.67025 eV

Components:
Nuclear Repulsion  :          171.22657640 Eh            4659.31202 eV
Electronic Energy  :         -366.13288364 Eh           -9962.98227 eV
One Electron Energy:         -600.35548248 Eh          -16336.50321 eV
Two Electron Energy:          234.22259884 Eh            6373.52094 eV
Max COSX asymmetry :            0.00000075 Eh               0.00002 eV

Virial components:
Potential Energy   :         -388.13754816 Eh          -10561.75964 eV
Kinetic Energy     :          193.23124092 Eh            5258.08938 eV
Virial Ratio       :            2.00866871


DFT components:
N(Alpha)           :       19.000002418269 electrons
N(Beta)            :       19.000002418269 electrons
N(Total)           :       38.000004836537 electrons
E(X)               :      -16.007052771046 Eh       
E(C)               :       -1.616745034568 Eh       
E(XC)              :      -17.623797805613 Eh       
DFET-embed. en.    :        0.000000000000 Eh       

---------------
SCF CONVERGENCE
---------------

  Last Energy change         ...   -9.4997e-10  Tolerance :   1.0000e-08
  Last MAX-Density change    ...    6.6613e-16  Tolerance :   1.0000e-07
  Last RMS-Density change    ...    3.6058e-17  Tolerance :   5.0000e-09
  Last Orbital Gradient      ...    2.1501e-06  Tolerance :   1.0000e-05
  Last Orbital Rotation      ...    1.9822e-06  Tolerance :   1.0000e-05

             **** THE GBW FILE WAS UPDATED (pbeh-3c.gbw) ****
             **** DENSITY pbeh-3c.scfp WAS UPDATED ****
             **** ENERGY FILE WAS UPDATED (pbeh-3c.en.tmp) ****
             **** THE GBW FILE WAS UPDATED (pbeh-3c.gbw) ****
             **** DENSITY pbeh-3c.scfp WAS UPDATED ****
----------------
ORBITAL ENERGIES
----------------

  NO   OCC          E(Eh)            E(eV) 
   0   2.0000     -10.434431      -283.9353 
   1   2.0000     -10.433944      -283.9221 
   2   2.0000     -10.433856      -283.9197 
   3   2.0000     -10.433406      -283.9074 
   4   2.0000     -10.432387      -283.8797 
   5   2.0000      -0.932103       -25.3638 
   6   2.0000      -0.789223       -21.4759 
   7   2.0000      -0.785066       -21.3627 
   8   2.0000      -0.643095       -17.4995 
   9   2.0000      -0.592528       -16.1235 
  10   2.0000      -0.557505       -15.1705 
  11   2.0000      -0.524252       -14.2656 
  12   2.0000      -0.449721       -12.2375 
  13   2.0000      -0.431143       -11.7320 
  14   2.0000      -0.398068       -10.8320 
  15   2.0000      -0.396186       -10.7808 
  16   2.0000      -0.390908       -10.6371 
  17   2.0000      -0.387352       -10.5404 
  18   2.0000      -0.279266        -7.5992 
  19   0.0000       0.056488         1.5371 
  20   0.0000       0.147810         4.0221 
  21   0.0000       0.172072         4.6823 
  22   0.0000       0.198376         5.3981 
  23   0.0000       0.199957         5.4411 
  24   0.0000       0.204749         5.5715 
  25   0.0000       0.224215         6.1012 
  26   0.0000       0.229494         6.2449 
  27   0.0000       0.238471         6.4891 
  28   0.0000       0.250445         6.8149 
  29   0.0000       0.295233         8.0337 
  30   0.0000       0.298341         8.1183 
  31   0.0000       0.337926         9.1954 
  32   0.0000       0.420041        11.4299 
  33   0.0000       0.520131        14.1535 
  34   0.0000       0.531381        14.4596 
  35   0.0000       0.542919        14.7736 
  36   0.0000       0.550713        14.9857 
  37   0.0000       0.596288        16.2258 
  38   0.0000       0.604548        16.4506 
  39   0.0000       0.650680        17.7059 
  40   0.0000       0.666167        18.1273 
  41   0.0000       0.673119        18.3165 
  42   0.0000       0.674468        18.3532 
  43   0.0000       0.708988        19.2926 
  44   0.0000       0.745345        20.2819 
  45   0.0000       0.810290        22.0491 
  46   0.0000       0.849743        23.1227 
  47   0.0000       0.892301        24.2807 
  48   0.0000       0.944090        25.6900 
  49   0.0000       0.985710        26.8225 
  50   0.0000       1.000723        27.2310 
  51   0.0000       1.023385        27.8477 
  52   0.0000       1.036405        28.2020 
  53   0.0000       1.055123        28.7114 
  54   0.0000       1.066931        29.0327 
  55   0.0000       1.077165        29.3111 
  56   0.0000       1.133492        30.8439 
  57   0.0000       1.150749        31.3135 
  58   0.0000       1.236166        33.6378 
  59   0.0000       1.418420        38.5972 
  60   0.0000       1.492522        40.6136 
  61   0.0000       1.508670        41.0530 
  62   0.0000       1.552860        42.2555 
  63   0.0000       1.620460        44.0950 
  64   0.0000       1.764381        48.0113 
  65   0.0000       1.823397        49.6172 
  66   0.0000       1.872776        50.9608 
  67   0.0000       1.901440        51.7408 
  68   0.0000       1.984583        54.0033 
  69   0.0000       2.020962        54.9932 
  70   0.0000       2.053360        55.8748 
  71   0.0000       2.106426        57.3188 
  72   0.0000       2.153725        58.6058 
  73   0.0000       2.186753        59.5046 
  74   0.0000       2.246301        61.1250 
  75   0.0000       2.249634        61.2156 
  76   0.0000       2.402165        65.3662 
  77   0.0000       2.446005        66.5592 
  78   0.0000       2.508693        68.2650 
  79   0.0000       2.560411        69.6723 
  80   0.0000       2.568566        69.8942 
  81   0.0000       2.595937        70.6390 
  82   0.0000       2.674996        72.7903 
  83   0.0000       2.705738        73.6269 
  84   0.0000       2.939305        79.9825 
  85   0.0000       3.015572        82.0579 
  86   0.0000      13.395272       364.5039 
  87   0.0000      13.761011       374.4562 
  88   0.0000      13.883852       377.7988 
  89   0.0000      14.045127       382.1873 
  90   0.0000      14.226482       387.1223 

                    ********************************
                    * MULLIKEN POPULATION ANALYSIS *
                    ********************************

-----------------------
MULLIKEN ATOMIC CHARGES
-----------------------
   0 C :   -0.199935
   1 C :   -0.199935
   2 C :   -0.456412
   3 C :   -0.445364
   4 C :   -0.456412
   5 H :    0.212623
   6 H :    0.212624
   7 H :    0.221570
   8 H :    0.221918
   9 H :    0.220898
  10 H :    0.224934
  11 H :    0.221570
  12 H :    0.221919
Sum of atomic charges:   -0.0000000

--------------------------------
MULLIKEN REDUCED ORBITAL CHARGES
--------------------------------
  0 C s       :     3.247424  s :     3.247424
      pz      :     0.951174  p :     2.912663
      px      :     0.974884
      py      :     0.986605
      dz2     :     0.008964  d :     0.039848
      dxz     :     0.015103
      dyz     :     0.007480
      dx2y2   :     0.006116
      dxy     :     0.002185
  1 C s       :     3.247424  s :     3.247424
      pz      :     0.951174  p :     2.912663
      px      :     0.974884
      py      :     0.986605
      dz2     :     0.008964  d :     0.039848
      dxz     :     0.015103
      dyz     :     0.007480
      dx2y2   :     0.006115
      dxy     :     0.002185
  2 C s       :     3.339271  s :     3.339271
      pz      :     1.022437  p :     3.073793
      px      :     0.918503
      py      :     1.132852
      dz2     :     0.006525  d :     0.043348
      dxz     :     0.009094
      dyz     :     0.012166
      dx2y2   :     0.010987
      dxy     :     0.004576
  3 C s       :     3.333313  s :     3.333313
      pz      :     0.896782  p :     3.070434
      px      :     1.036168
      py      :     1.137484
      dz2     :     0.010897  d :     0.041617
      dxz     :     0.009702
      dyz     :     0.003590
      dx2y2   :     0.007412
      dxy     :     0.010016
  4 C s       :     3.339271  s :     3.339271
      pz      :     1.022437  p :     3.073793
      px      :     0.918503
      py      :     1.132852
      dz2     :     0.006525  d :     0.043348
      dxz     :     0.009094
      dyz     :     0.012166
      dx2y2   :     0.010987
      dxy     :     0.004576
  5 H s       :     0.787377  s :     0.787377
  6 H s       :     0.787376  s :     0.787376
  7 H s       :     0.778430  s :     0.778430
  8 H s       :     0.778082  s :     0.778082
  9 H s       :     0.779102  s :     0.779102
 10 H s       :     0.775066  s :     0.775066
 11 H s       :     0.778430  s :     0.778430
 12 H s       :     0.778081  s :     0.778081


                     *******************************
                     * LOEWDIN POPULATION ANALYSIS *
                     *******************************

----------------------
LOEWDIN ATOMIC CHARGES
----------------------
   0 C :   -0.152385
   1 C :   -0.152385
   2 C :   -0.240926
   3 C :   -0.234245
   4 C :   -0.240926
   5 H :    0.129440
   6 H :    0.129440
   7 H :    0.126676
   8 H :    0.127871
   9 H :    0.124760
  10 H :    0.128133
  11 H :    0.126676
  12 H :    0.127871

-------------------------------
LOEWDIN REDUCED ORBITAL CHARGES
-------------------------------
  0 C s       :     2.916883  s :     2.916883
      pz      :     1.104762  p :     3.147117
      px      :     1.055115
      py      :     0.987240
      dz2     :     0.024535  d :     0.088385
      dxz     :     0.034522
      dyz     :     0.013432
      dx2y2   :     0.011114
      dxy     :     0.004782
  1 C s       :     2.916883  s :     2.916883
      pz      :     1.104762  p :     3.147117
      px      :     1.055115
      py      :     0.987240
      dz2     :     0.024535  d :     0.088385
      dxz     :     0.034522
      dyz     :     0.013432
      dx2y2   :     0.011114
      dxy     :     0.004782
  2 C s       :     2.915370  s :     2.915370
      pz      :     1.074243  p :     3.238240
      px      :     1.049861
      py      :     1.114136
      dz2     :     0.013065  d :     0.087315
      dxz     :     0.021549
      dyz     :     0.022179
      dx2y2   :     0.021500
      dxy     :     0.009022
  3 C s       :     2.921334  s :     2.921334
      pz      :     1.035857  p :     3.229998
      px      :     1.073570
      py      :     1.120572
      dz2     :     0.021739  d :     0.082912
      dxz     :     0.023625
      dyz     :     0.007433
      dx2y2   :     0.012306
      dxy     :     0.017810
  4 C s       :     2.915370  s :     2.915370
      pz      :     1.074243  p :     3.238240
      px      :     1.049861
      py      :     1.114136
      dz2     :     0.013065  d :     0.087315
      dxz     :     0.021549
      dyz     :     0.022179
      dx2y2   :     0.021500
      dxy     :     0.009022
  5 H s       :     0.870560  s :     0.870560
  6 H s       :     0.870560  s :     0.870560
  7 H s       :     0.873324  s :     0.873324
  8 H s       :     0.872129  s :     0.872129
  9 H s       :     0.875240  s :     0.875240
 10 H s       :     0.871867  s :     0.871867
 11 H s       :     0.873324  s :     0.873324
 12 H s       :     0.872129  s :     0.872129


                      *****************************
                      * MAYER POPULATION ANALYSIS *
                      *****************************

  NA   - Mulliken gross atomic population
  ZA   - Total nuclear charge
  QA   - Mulliken gross atomic charge
  VA   - Mayer's total valence
  BVA  - Mayer's bonded valence
  FA   - Mayer's free valence

  ATOM       NA         ZA         QA         VA         BVA        FA
  0 C      6.1999     6.0000    -0.1999     3.7803     3.7803     0.0000
  1 C      6.1999     6.0000    -0.1999     3.7803     3.7803    -0.0000
  2 C      6.4564     6.0000    -0.4564     3.7325     3.7325    -0.0000
  3 C      6.4454     6.0000    -0.4454     3.7255     3.7255    -0.0000
  4 C      6.4564     6.0000    -0.4564     3.7325     3.7325    -0.0000
  5 H      0.7874     1.0000     0.2126     0.9232     0.9232     0.0000
  6 H      0.7874     1.0000     0.2126     0.9232     0.9232     0.0000
  7 H      0.7784     1.0000     0.2216     0.9070     0.9070    -0.0000
  8 H      0.7781     1.0000     0.2219     0.9016     0.9016    -0.0000
  9 H      0.7791     1.0000     0.2209     0.9138     0.9138    -0.0000
 10 H      0.7751     1.0000     0.2249     0.9054     0.9054    -0.0000
 11 H      0.7784     1.0000     0.2216     0.9070     0.9070     0.0000
 12 H      0.7781     1.0000     0.2219     0.9016     0.9016    -0.0000

  Mayer bond orders larger than 0.100000
B(  0-C ,  1-C ) :   1.9013 B(  0-C ,  4-C ) :   0.9969 B(  0-C ,  5-H ) :   0.9253 
B(  1-C ,  2-C ) :   0.9969 B(  1-C ,  6-H ) :   0.9253 B(  2-C ,  3-C ) :   0.9701 
B(  2-C ,  7-H ) :   0.9211 B(  2-C ,  8-H ) :   0.9110 B(  3-C ,  4-C ) :   0.9701 
B(  3-C ,  9-H ) :   0.9302 B(  3-C , 10-H ) :   0.9265 B(  4-C , 11-H ) :   0.9211 
B(  4-C , 12-H ) :   0.9110 

-------
TIMINGS
-------

Total SCF time: 0 days 0 hours 1 min 8 sec 

Total time                  ....      68.462 sec
Sum of individual times     ....      62.349 sec  ( 91.1%)

Fock matrix formation       ....      50.158 sec  ( 73.3%)
  Split-RI-J                ....       7.823 sec  ( 15.6% of F)
  Chain of spheres X        ....      14.689 sec  ( 29.3% of F)
  XC integration            ....      14.713 sec  ( 29.3% of F)
    Basis function eval.    ....       2.484 sec  ( 16.9% of XC)
    Density eval.           ....       1.308 sec  (  8.9% of XC)
    XC-Functional eval.     ....       1.208 sec  (  8.2% of XC)
    XC-Potential eval.      ....       0.830 sec  (  5.6% of XC)
Diagonalization             ....       0.911 sec  (  1.3%)
Density matrix formation    ....       0.050 sec  (  0.1%)
Population analysis         ....       0.931 sec  (  1.4%)
Initial guess               ....       0.006 sec  (  0.0%)
Orbital Transformation      ....       0.000 sec  (  0.0%)
Orbital Orthonormalization  ....       0.000 sec  (  0.0%)
DIIS solution               ....       1.682 sec  (  2.5%)
SOSCF solution              ....       2.038 sec  (  3.0%)
Grid generation             ....       6.573 sec  (  9.6%)

Maximum memory used throughout the entire SCF-calculation: 50.3 MB


-------------------------------------------------------------------------------
                          DFT DISPERSION CORRECTION                            
                                                                               
                              DFTD3 V3.1  Rev 1                                
                          USING Becke-Johnson damping                          
-------------------------------------------------------------------------------
The PBEh-3c composite method is recognized
Using three-body term ABC
Active option DFTDOPT                   ...         4   

molecular C6(AA) [au] = 1359.644897 


            DFT-D V3
 parameters
 s6 scaling factor         :     1.0000 
 a1 scaling factor         :     0.4860 
 s8 scaling factor         :     0.0000 
 a2 scaling factor         :     4.5000 
 Damping factor alpha9(ATM):    16.0000 
 ad hoc parameters k1-k3   :    16.0000     1.3333    -4.0000 

 Edisp/kcal,au: -3.505683092524  -0.005586661020 
 E6   /kcal   :  -3.516617023 
 E8   /kcal   :  -0.000000000 
 E6(ABC)      :   0.010933930 
 % E8         :   0.000000000 
 % E6(ABC)    :  -0.311891577 

-------------------------   ----------------
Dispersion correction           -0.005586661
-------------------------   ----------------

------------------   -----------------
gCP correction             0.018110356
------------------   -----------------

-------------------------   --------------------
FINAL SINGLE POINT ENERGY      -194.893783545330
-------------------------   --------------------


                            ***************************************
                            *     ORCA property calculations      *
                            ***************************************

                                    ---------------------
                                    Active property flags
                                    ---------------------
   (+) Dipole Moment


------------------------------------------------------------------------------
                       ORCA ELECTRIC PROPERTIES CALCULATION
------------------------------------------------------------------------------

Dipole Moment Calculation                       ... on
Quadrupole Moment Calculation                   ... off
Polarizability Calculation                      ... off
GBWName                                         ... pbeh-3c.gbw
Electron density                                ... pbeh-3c.scfp
The origin for moment calculation is the CENTER OF MASS  = (-0.255861,  0.019835  0.000000)

-------------
DIPOLE MOMENT
-------------
                                X             Y             Z
Electronic contribution:     -1.73379       0.11173       0.00000
Nuclear contribution   :      1.80261      -0.13974       0.00000
                        -----------------------------------------
Total Dipole Moment    :      0.06882      -0.02801       0.00000
                        -----------------------------------------
Magnitude (a.u.)       :      0.07430
Magnitude (Debye)      :      0.18885



--------------------
Rotational spectrum 
--------------------
 
Rotational constants in cm-1:     0.243471     0.241324     0.131289 
Rotational constants in MHz :  7299.088720  7234.712482  3935.940593 

 Dipole components along the rotational axes: 
x,y,z [a.u.] :     0.000000    -0.068817    -0.028007 
x,y,z [Debye]:     0.000000    -0.174918    -0.071189 

 

Timings for individual modules:

Sum of individual times         ...       71.787 sec (=   1.196 min)
GTO integral calculation        ...        2.231 sec (=   0.037 min)   3.1 %
SCF iterations                  ...       69.556 sec (=   1.159 min)  96.9 %
                             ****ORCA TERMINATED NORMALLY****
TOTAL RUN TIME: 0 days 0 hours 1 minutes 15 seconds 511 msec
