
                                 *****************
                                 * O   R   C   A *
                                 *****************

                                            #,                                       
                                            ###                                      
                                            ####                                     
                                            #####                                    
                                            ######                                   
                                           ########,                                 
                                     ,,################,,,,,                         
                               ,,#################################,,                 
                          ,,##########################################,,             
                       ,#########################################, ''#####,          
                    ,#############################################,,   '####,        
                  ,##################################################,,,,####,       
                ,###########''''           ''''###############################       
              ,#####''   ,,,,##########,,,,          '''####'''          '####       
            ,##' ,,,,###########################,,,                        '##       
           ' ,,###''''                  '''############,,,                           
         ,,##''                                '''############,,,,        ,,,,,,###''
      ,#''                                            '''#######################'''  
     '                                                          ''''####''''         
             ,#######,   #######,   ,#######,      ##                                
            ,#'     '#,  ##    ##  ,#'     '#,    #''#        ######   ,####,        
            ##       ##  ##   ,#'  ##            #'  '#       #        #'  '#        
            ##       ##  #######   ##           ,######,      #####,   #    #        
            '#,     ,#'  ##    ##  '#,     ,#' ,#      #,         ##   #,  ,#        
             '#######'   ##     ##  '#######'  #'      '#     #####' # '####'        



                  #######################################################
                  #                        -***-                        #
                  #          Department of theory and spectroscopy      #
                  #    Directorship and core code : Frank Neese         #
                  #        Max Planck Institute fuer Kohlenforschung    #
                  #                Kaiser Wilhelm Platz 1               #
                  #                 D-45470 Muelheim/Ruhr               #
                  #                      Germany                        #
                  #                                                     #
                  #                  All rights reserved                #
                  #                        -***-                        #
                  #######################################################


                         Program Version 5.0.3 -  RELEASE  -


 With contributions from (in alphabetic order):
   Daniel Aravena         : Magnetic Suceptibility
   Michael Atanasov       : Ab Initio Ligand Field Theory (pilot matlab implementation)
   Alexander A. Auer      : GIAO ZORA, VPT2 properties, NMR spectrum
   Ute Becker             : Parallelization
   Giovanni Bistoni       : ED, misc. LED, open-shell LED, HFLD
   Martin Brehm           : Molecular dynamics
   Dmytro Bykov           : SCF Hessian
   Vijay G. Chilkuri      : MRCI spin determinant printing, contributions to CSF-ICE
   Dipayan Datta          : RHF DLPNO-CCSD density
   Achintya Kumar Dutta   : EOM-CC, STEOM-CC
   Dmitry Ganyushin       : Spin-Orbit,Spin-Spin,Magnetic field MRCI
   Miquel Garcia          : C-PCM and meta-GGA Hessian, CC/C-PCM, Gaussian charge scheme
   Yang Guo               : DLPNO-NEVPT2, F12-NEVPT2, CIM, IAO-localization
   Andreas Hansen         : Spin unrestricted coupled pair/coupled cluster methods
   Benjamin Helmich-Paris : MC-RPA, TRAH-SCF, COSX integrals
   Lee Huntington         : MR-EOM, pCC
   Robert Izsak           : Overlap fitted RIJCOSX, COSX-SCS-MP3, EOM
   Marcus Kettner         : VPT2
   Christian Kollmar      : KDIIS, OOCD, Brueckner-CCSD(T), CCSD density, CASPT2, CASPT2-K
   Simone Kossmann        : Meta GGA functionals, TD-DFT gradient, OOMP2, MP2 Hessian
   Martin Krupicka        : Initial AUTO-CI
   Lucas Lang             : DCDCAS
   Marvin Lechner         : AUTO-CI (C++ implementation), FIC-MRCC
   Dagmar Lenk            : GEPOL surface, SMD
   Dimitrios Liakos       : Extrapolation schemes; Compound Job, initial MDCI parallelization
   Dimitrios Manganas     : Further ROCIS development; embedding schemes
   Dimitrios Pantazis     : SARC Basis sets
   Anastasios Papadopoulos: AUTO-CI, single reference methods and gradients
   Taras Petrenko         : DFT Hessian,TD-DFT gradient, ASA, ECA, R-Raman, ABS, FL, XAS/XES, NRVS
   Peter Pinski           : DLPNO-MP2, DLPNO-MP2 Gradient
   Christoph Reimann      : Effective Core Potentials
   Marius Retegan         : Local ZFS, SOC
   Christoph Riplinger    : Optimizer, TS searches, QM/MM, DLPNO-CCSD(T), (RO)-DLPNO pert. Triples
   Tobias Risthaus        : Range-separated hybrids, TD-DFT gradient, RPA, STAB
   Michael Roemelt        : Original ROCIS implementation
   Masaaki Saitow         : Open-shell DLPNO-CCSD energy and density
   Barbara Sandhoefer     : DKH picture change effects
   Avijit Sen             : IP-ROCIS
   Kantharuban Sivalingam : CASSCF convergence, NEVPT2, FIC-MRCI
   Bernardo de Souza      : ESD, SOC TD-DFT
   Georgi Stoychev        : AutoAux, RI-MP2 NMR, DLPNO-MP2 response
   Willem Van den Heuvel  : Paramagnetic NMR
   Boris Wezisla          : Elementary symmetry handling
   Frank Wennmohs         : Technical directorship


 We gratefully acknowledge several colleagues who have allowed us to
 interface, adapt or use parts of their codes:
   Stefan Grimme, W. Hujo, H. Kruse, P. Pracht,  : VdW corrections, initial TS optimization,
                  C. Bannwarth, S. Ehlert          DFT functionals, gCP, sTDA/sTD-DF
   Ed Valeev, F. Pavosevic, A. Kumar             : LibInt (2-el integral package), F12 methods
   Garnet Chan, S. Sharma, J. Yang, R. Olivares  : DMRG
   Ulf Ekstrom                                   : XCFun DFT Library
   Mihaly Kallay                                 : mrcc  (arbitrary order and MRCC methods)
   Jiri Pittner, Ondrej Demel                    : Mk-CCSD
   Frank Weinhold                                : gennbo (NPA and NBO analysis)
   Christopher J. Cramer and Donald G. Truhlar   : smd solvation model
   Lars Goerigk                                  : TD-DFT with DH, B97 family of functionals
   V. Asgeirsson, H. Jonsson                     : NEB implementation
   FAccTs GmbH                                   : IRC, NEB, NEB-TS, DLPNO-Multilevel, CI-OPT
                                                   MM, QMMM, 2- and 3-layer-ONIOM, Crystal-QMMM,
                                                   LR-CPCM, SF, NACMEs, symmetry and pop. for TD-DFT,
                                                   nearIR, NL-DFT gradient (VV10), updates on ESD,
                                                   ML-optimized integration grids
   S Lehtola, MJT Oliveira, MAL Marques          : LibXC Library
   Liviu Ungur et al                             : ANISO software


 Your calculation uses the libint2 library for the computation of 2-el integrals
 For citations please refer to: http://libint.valeyev.net

 Your ORCA version has been built with support for libXC version: 5.1.0
 For citations please refer to: https://tddft.org/programs/libxc/

 This ORCA versions uses:
   CBLAS   interface :  Fast vector & matrix operations
   LAPACKE interface :  Fast linear algebra routines
   SCALAPACK package :  Parallel linear algebra routines
   Shared memory     :  Shared parallel matrices
   BLAS/LAPACK       :  OpenBLAS 0.3.15  USE64BITINT DYNAMIC_ARCH NO_AFFINITY Haswell SINGLE_THREADED
        Core in use  :  Haswell
   Copyright (c) 2011-2014, The OpenBLAS Project




***************************************
The coordinates will be read from file: 47A.xyz
***************************************


Your calculation utilizes the geometrical counterpoise correction gCP
Please cite in your paper:
H.Kruse, S. Grimme J.Chem.Phys., 136, (2012), 154101 
   

Your calculation utilizes the atom-pairwise dispersion correction
with the Becke-Johnson damping scheme (D3BJ)
Cite in your paper:
S.Grimme, S.Ehrlich, L.Goerigk, J Comput Chem, (2011), 32, 1456–1465 
S.Grimme, J.Antony, S.Ehrlich and H.Krieg, J.Chem.Phys., 132, (2010), 154104 
   

Your calculation employs the composite approach PBEh-3c.
Please cite in your paper:
S. Grimme, J. G. Brandenburg, C. Bannwarth, A. Hansen J.Chem.Phys., 143, (2015), 054107 
   

================================================================================

----- Orbital basis set information -----
Your calculation utilizes the basis: def2-mSVP

----- AuxJ basis set information -----
Your calculation utilizes the auxiliary basis: def2/J
   F. Weigend, Phys. Chem. Chem. Phys. 8, 1057 (2006).

================================================================================
                                        WARNINGS
                       Please study these warnings very carefully!
================================================================================


INFO   : the flag for use of the SHARK integral package has been found!

================================================================================
                                       INPUT FILE
================================================================================
NAME = pbeh-3c.inp
|  1> ! PBEh-3c def2/J TightSCF DefGrid3
|  2> 
|  3> %maxcore 60000
|  4> 
|  5> %pal
|  6> nprocs 4
|  7> end
|  8> 
|  9> *xyzfile 0 1 47A.xyz
| 10> 
| 11>                          ****END OF INPUT****
================================================================================

                       ****************************
                       * Single Point Calculation *
                       ****************************

---------------------------------
CARTESIAN COORDINATES (ANGSTROEM)
---------------------------------
  C      1.207270    0.697018    0.000000
  H      2.143861    1.237759    0.000000
  C      1.207270   -0.697018    0.000000
  H      2.143861   -1.237759    0.000000
  C      0.000000   -1.394035    0.000000
  H      0.000000   -2.475518    0.000000
  C     -1.207270   -0.697018    0.000000
  H     -2.143861   -1.237759    0.000000
  C     -1.207270    0.697018    0.000000
  H     -2.143861    1.237759    0.000000
  C      0.000000    1.394035    0.000000
  H      0.000000    2.475518    0.000000

----------------------------
CARTESIAN COORDINATES (A.U.)
----------------------------
  NO LB      ZA    FRAG     MASS         X           Y           Z
   0 C     6.0000    0    12.011    2.281409    1.317172    0.000000
   1 H     1.0000    0     1.008    4.051311    2.339026    0.000000
   2 C     6.0000    0    12.011    2.281409   -1.317172    0.000000
   3 H     1.0000    0     1.008    4.051311   -2.339026    0.000000
   4 C     6.0000    0    12.011    0.000000   -2.634345    0.000000
   5 H     1.0000    0     1.008    0.000000   -4.678051    0.000000
   6 C     6.0000    0    12.011   -2.281409   -1.317172    0.000000
   7 H     1.0000    0     1.008   -4.051311   -2.339026    0.000000
   8 C     6.0000    0    12.011   -2.281409    1.317172    0.000000
   9 H     1.0000    0     1.008   -4.051311    2.339026    0.000000
  10 C     6.0000    0    12.011    0.000000    2.634345    0.000000
  11 H     1.0000    0     1.008    0.000000    4.678051    0.000000

--------------------------------
INTERNAL COORDINATES (ANGSTROEM)
--------------------------------
 C      0   0   0     0.000000000000     0.00000000     0.00000000
 H      1   0   0     1.081482818571     0.00000000     0.00000000
 C      1   2   0     1.394035200000   119.99999943     0.00000000
 H      3   1   2     1.081482818571   119.99999943     0.00000000
 C      3   1   2     1.394035202624   119.99999994   180.00000000
 H      5   3   1     1.081482800000   119.99999994   180.00000000
 C      5   3   1     1.394035202624   120.00000012     0.00000000
 H      7   5   3     1.081482818571   120.00000063   180.00000000
 C      7   5   3     1.394035200000   119.99999994     0.00000000
 H      9   7   5     1.081482818571   119.99999943   180.00000000
 C      1   2   3     1.394035202624   120.00000063   180.00000085
 H     11   1   2     1.081482800000   119.99999994     0.00000000

---------------------------
INTERNAL COORDINATES (A.U.)
---------------------------
 C      0   0   0     0.000000000000     0.00000000     0.00000000
 H      1   0   0     2.043706345641     0.00000000     0.00000000
 C      1   2   0     2.634344749046   119.99999943     0.00000000
 H      3   1   2     2.043706345641   119.99999943     0.00000000
 C      3   1   2     2.634344754005   119.99999994   180.00000000
 H      5   3   1     2.043706310546   119.99999994   180.00000000
 C      5   3   1     2.634344754005   120.00000012     0.00000000
 H      7   5   3     2.043706345641   120.00000063   180.00000000
 C      7   5   3     2.634344749046   119.99999994     0.00000000
 H      9   7   5     2.043706345641   119.99999943   180.00000000
 C      1   2   3     2.634344754005   120.00000063   180.00000085
 H     11   1   2     2.043706310546   119.99999994     0.00000000

---------------------
BASIS SET INFORMATION
---------------------
There are 2 groups of distinct atoms

 Group   1 Type C   : 8s4p1d contracted to 4s2p1d pattern {5111/31/1}
 Group   2 Type H   : 4s contracted to 2s pattern {31}

Atom   0C    basis set group =>   1
Atom   1H    basis set group =>   2
Atom   2C    basis set group =>   1
Atom   3H    basis set group =>   2
Atom   4C    basis set group =>   1
Atom   5H    basis set group =>   2
Atom   6C    basis set group =>   1
Atom   7H    basis set group =>   2
Atom   8C    basis set group =>   1
Atom   9H    basis set group =>   2
Atom  10C    basis set group =>   1
Atom  11H    basis set group =>   2
---------------------------------
AUXILIARY/J BASIS SET INFORMATION
---------------------------------
There are 2 groups of distinct atoms

 Group   1 Type C   : 12s5p4d2f1g contracted to 6s4p3d1f1g pattern {711111/2111/211/2/1}
 Group   2 Type H   : 5s2p1d contracted to 3s1p1d pattern {311/2/1}

Atom   0C    basis set group =>   1
Atom   1H    basis set group =>   2
Atom   2C    basis set group =>   1
Atom   3H    basis set group =>   2
Atom   4C    basis set group =>   1
Atom   5H    basis set group =>   2
Atom   6C    basis set group =>   1
Atom   7H    basis set group =>   2
Atom   8C    basis set group =>   1
Atom   9H    basis set group =>   2
Atom  10C    basis set group =>   1
Atom  11H    basis set group =>   2


           ************************************************************
           *        Program running with 4 parallel MPI-processes     *
           *              working on a common directory               *
           ************************************************************
------------------------------------------------------------------------------
                           ORCA GTO INTEGRAL CALCULATION
                           -- RI-GTO INTEGRALS CHOSEN --
------------------------------------------------------------------------------
------------------------------------------------------------------------------
                   ___                                                        
                  /   \      - P O W E R E D   B Y -                         
                 /     \                                                     
                 |  |  |   _    _      __       _____    __    __             
                 |  |  |  | |  | |    /  \     |  _  \  |  |  /  |          
                  \  \/   | |  | |   /    \    | | | |  |  | /  /          
                 / \  \   | |__| |  /  /\  \   | |_| |  |  |/  /          
                |  |  |   |  __  | /  /__\  \  |    /   |      \           
                |  |  |   | |  | | |   __   |  |    \   |  |\   \          
                \     /   | |  | | |  |  |  |  | |\  \  |  | \   \       
                 \___/    |_|  |_| |__|  |__|  |_| \__\ |__|  \__/        
                                                                              
                      - O R C A' S   B I G   F R I E N D -                    
                                      &                                       
                       - I N T E G R A L  F E E D E R -                       
                                                                              
 v1 FN, 2020, v2 2021                                                         
------------------------------------------------------------------------------


Reading SHARK input file pbeh-3c.SHARKINP.tmp ... ok
----------------------
SHARK INTEGRAL PACKAGE
----------------------

Number of atoms                             ...     12
Number of basis functions                   ...    102
Number of shells                            ...     54
Maximum angular momentum                    ...      2
Integral batch strategy                     ... SHARK/LIBINT Hybrid
RI-J (if used) integral strategy            ... SPLIT-RIJ (Revised 2003 algorithm where possible)
Printlevel                                  ...      1
Contraction scheme used                     ... SEGMENTED contraction
Coulomb Range Separation                    ... NOT USED
Exchange Range Separation                   ... NOT USED
Finite Nucleus Model                        ... NOT USED
Auxiliary Coulomb fitting basis             ... AVAILABLE
   # of basis functions in Aux-J            ...    360
   # of shells in Aux-J                     ...    120
   Maximum angular momentum in Aux-J        ...      4
Auxiliary J/K fitting basis                 ... NOT available
Auxiliary Correlation fitting basis         ... NOT available
Auxiliary 'external' fitting basis          ... NOT available
Integral threshold                          ...     2.500000e-11
Primitive cut-off                           ...     2.500000e-12
Primitive pair pre-selection threshold      ...     2.500000e-12

Calculating pre-screening integrals         ... done (  0.1 sec) Dimension = 54
Organizing shell pair data                  ... done (  0.2 sec)
Shell pair information
Total number of shell pairs                 ...      1485
Shell pairs after pre-screening             ...      1428
Total number of primitive shell pairs       ...      5349
Primitive shell pairs kept                  ...      3915
          la=0 lb=0:    609 shell pairs
          la=1 lb=0:    432 shell pairs
          la=1 lb=1:     78 shell pairs
          la=2 lb=0:    216 shell pairs
          la=2 lb=1:     72 shell pairs
          la=2 lb=2:     21 shell pairs

Calculating one electron integrals          ... done (  0.0 sec)
Calculating RI/J V-Matrix + Cholesky decomp.... done (  0.8 sec)
Calculating Nuclear repulsion               ... done (  0.3 sec) ENN=    203.662700541657 Eh

SHARK setup successfully completed in   2.7 seconds

Maximum memory used throughout the entire GTOINT-calculation: 10.2 MB


           ************************************************************
           *        Program running with 4 parallel MPI-processes     *
           *              working on a common directory               *
           ************************************************************
-------------------------------------------------------------------------------
                                 ORCA SCF
-------------------------------------------------------------------------------

------------
SCF SETTINGS
------------
Hamiltonian:
 Density Functional     Method          .... DFT(GTOs)
 Exchange Functional    Exchange        .... PBE
   PBE kappa parameter   XKappa         ....  1.024500
   PBE mue parameter    XMuePBE         ....  0.123457
 Correlation Functional Correlation     .... PBE
   PBE beta parameter  CBetaPBE         ....  0.030000
 LDA part of GGA corr.  LDAOpt          .... PW91-LDA
 Gradients option       PostSCFGGA      .... off
 Hybrid DFT is turned on
   Fraction HF Exchange ScalHFX         ....  0.420000
   Scaling of DF-GGA-X  ScalDFX         ....  0.580000
   Scaling of DF-GGA-C  ScalDFC         ....  1.000000
   Scaling of DF-LDA-C  ScalLDAC        ....  1.000000
   Perturbative correction              ....  0.000000
   Density functional embedding theory  .... OFF
 RI-approximation to the Coulomb term is turned on
   Number of AuxJ basis functions       .... 360
   RIJ-ON(X) (HFX calculated with O(N)) .... on
   Number of AuxJ basis functions       .... 360
   RIJ-COSX (HFX calculated with COS-X)).... on


General Settings:
 Integral files         IntName         .... pbeh-3c
 Hartree-Fock type      HFTyp           .... RHF
 Total Charge           Charge          ....    0
 Multiplicity           Mult            ....    1
 Number of Electrons    NEL             ....   42
 Basis Dimension        Dim             ....  102
 Nuclear Repulsion      ENuc            ....    203.6627005417 Eh

Convergence Acceleration:
 DIIS                   CNVDIIS         .... on
   Start iteration      DIISMaxIt       ....    12
   Startup error        DIISStart       ....  0.200000
   # of expansion vecs  DIISMaxEq       ....     5
   Bias factor          DIISBfac        ....   1.050
   Max. coefficient     DIISMaxC        ....  10.000
 Trust-Rad. Augm. Hess. CNVTRAH         .... auto
   Auto Start mean grad. ratio tolernc. ....  1.125000
   Auto Start start iteration           ....    20
   Auto Start num. interpolation iter.  ....    10
   Max. Number of Micro iterations      ....    16
   Max. Number of Macro iterations      .... Maxiter - #DIIS iter
   Number of Davidson start vectors     ....     2
   Converg. threshold I  (grad. norm)   ....   1.000e-05
   Converg. threshold II (energy diff.) ....   1.000e-08
   Grad. Scal. Fac. for Micro threshold ....   0.100
   Minimum threshold for Micro iter.    ....   0.010
   NR start threshold (gradient norm)   ....   0.001
   Initial trust radius                 ....   0.400
   Minimum AH scaling param. (alpha)    ....   1.000
   Maximum AH scaling param. (alpha)    .... 1000.000
   Orbital update algorithm             .... Taylor
   White noise on init. David. guess    .... on
   Maximum white noise                  ....   0.010
   Quad. conv. algorithm                .... NR
   COSX micro iterations for RIJONX calc.... off
 SOSCF                  CNVSOSCF        .... on
   Start iteration      SOSCFMaxIt      ....   150
   Startup grad/error   SOSCFStart      ....  0.003300
 Level Shifting         CNVShift        .... on
   Level shift para.    LevelShift      ....    0.2500
   Turn off err/grad.   ShiftErr        ....    0.0010
 Zerner damping         CNVZerner       .... off
 Static damping         CNVDamp         .... on
   Fraction old density DampFac         ....    0.7000
   Max. Damping (<1)    DampMax         ....    0.9800
   Min. Damping (>=0)   DampMin         ....    0.0000
   Turn off err/grad.   DampErr         ....    0.1000
 Fernandez-Rico         CNVRico         .... off

SCF Procedure:
 Maximum # iterations   MaxIter         ....   125
 SCF integral mode      SCFMode         .... Direct
   Integral package                     .... SHARK and LIBINT hybrid scheme
 Reset frequency        DirectResetFreq ....    20
 Integral Threshold     Thresh          ....  2.500e-11 Eh
 Primitive CutOff       TCut            ....  2.500e-12 Eh

Convergence Tolerance:
 Convergence Check Mode ConvCheckMode   .... Total+1el-Energy
 Convergence forced     ConvForced      .... 0
 Energy Change          TolE            ....  1.000e-08 Eh
 1-El. energy change                    ....  1.000e-05 Eh
 Orbital Gradient       TolG            ....  1.000e-05
 Orbital Rotation angle TolX            ....  1.000e-05
 DIIS Error             TolErr          ....  5.000e-07


Diagonalization of the overlap matrix:
Smallest eigenvalue                        ... 4.889e-04
Time for diagonalization                   ...    0.002 sec
Threshold for overlap eigenvalues          ... 1.000e-08
Number of eigenvalues below threshold      ... 0
Time for construction of square roots      ...    0.116 sec
Total time needed                          ...    0.119 sec

--------------------------------
INITIAL GUESS: MINIMAL BASIS EHT
--------------------------------
The minimal basis has 36 functions
EHT matrix was diagonalized
Basis set overlap was calculated now projecting the orbitals
Using GuessMode=FMatrix for the initial guess
C*T matrix was formed
Effective Fockian was calculated
Effective Fockian was diagonalized
Initial density was built
                      ------------------
                      INITIAL GUESS DONE
                      ------------------
-------------------
DFT GRID GENERATION
-------------------

General Integration Accuracy     IntAcc      ... 4.959
Radial Grid Type                 RadialGrid  ... OptM3 with GC (2021)
Angular Grid (max. ang.)         AngularGrid ... 6 (Lebedev-590)
Angular grid pruning method      GridPruning ... 4 (adaptive)
Weight generation scheme         WeightScheme... Becke
Basis function cutoff            BFCut       ... 1.0000e-11
Integration weight cutoff        WCut        ... 1.0000e-14
Angular grids for H and He will be reduced by one unit
Partially contracted basis set               ... off
Rotationally invariant grid construction     ... off

Total number of grid points                  ...   138502
Total number of batches                      ...     2172
Average number of points per batch           ...       63
Average number of grid points per atom       ...    11542
Time for grid setup =    2.953 sec

--------------------
COSX GRID GENERATION
--------------------

GRIDX 1
-------
General Integration Accuracy     IntAcc      ... 4.020
Radial Grid Type                 RadialGrid  ... OptM3 with GC (2021)
Angular Grid (max. ang.)         AngularGrid ... 2 (Lebedev-110)
Angular grid pruning method      GridPruning ... 4 (adaptive)
Weight generation scheme         WeightScheme... Becke
Basis function cutoff            BFCut       ... 1.0000e-11
Integration weight cutoff        WCut        ... 1.0000e-14
Angular grids for H and He will be reduced by one unit
Partially contracted basis set               ... on
Rotationally invariant grid construction     ... off

Total number of grid points                  ...    15456
Total number of batches                      ...      246
Average number of points per batch           ...       62
Average number of grid points per atom       ...     1288
UseSFitting                                  ... on

GRIDX 2
-------
General Integration Accuracy     IntAcc      ... 4.338
Radial Grid Type                 RadialGrid  ... OptM3 with GC (2021)
Angular Grid (max. ang.)         AngularGrid ... 3 (Lebedev-194)
Angular grid pruning method      GridPruning ... 4 (adaptive)
Weight generation scheme         WeightScheme... Becke
Basis function cutoff            BFCut       ... 1.0000e-11
Integration weight cutoff        WCut        ... 1.0000e-14
Angular grids for H and He will be reduced by one unit
Partially contracted basis set               ... on
Rotationally invariant grid construction     ... off

Total number of grid points                  ...    34018
Total number of batches                      ...      536
Average number of points per batch           ...       63
Average number of grid points per atom       ...     2835
UseSFitting                                  ... on

GRIDX 3
-------
General Integration Accuracy     IntAcc      ... 4.871
Radial Grid Type                 RadialGrid  ... OptM3 with GC (2021)
Angular Grid (max. ang.)         AngularGrid ... 4 (Lebedev-302)
Angular grid pruning method      GridPruning ... 4 (adaptive)
Weight generation scheme         WeightScheme... Becke
Basis function cutoff            BFCut       ... 1.0000e-11
Integration weight cutoff        WCut        ... 1.0000e-14
Angular grids for H and He will be reduced by one unit
Partially contracted basis set               ... on
Rotationally invariant grid construction     ... off

Total number of grid points                  ...    65276
Total number of batches                      ...     1028
Average number of points per batch           ...       63
Average number of grid points per atom       ...     5440
UseSFitting                                  ... on

Time for X-Grid setup             =    3.214 sec

--------------
SCF ITERATIONS
--------------
ITER       Energy         Delta-E        Max-DP      RMS-DP      [F,P]     Damp
               ***  Starting incremental Fock matrix formation  ***
  0   -231.1707003464   0.000000000000 0.05782970  0.00412349  0.4067379 0.7000
  1   -231.3324204566  -0.161720110214 0.04163447  0.00303964  0.2870275 0.7000
  2   -231.4492152021  -0.116794745496 0.03048350  0.00224662  0.2014466 0.7000
                               ***Turning on DIIS***
  3   -231.5327311556  -0.083515953425 0.02250500  0.00166129  0.1413849 0.7000
  4   -231.5921757168  -0.059444561202 0.05894258  0.00436017  0.0992339 0.0000
  5   -231.7348677227  -0.142692005951 0.00408634  0.00026458  0.0044217 0.0000
                      *** Initiating the SOSCF procedure ***
                           *** Shutting down DIIS ***
                      *** Re-Reading the Fockian *** 
                      *** Removing any level shift *** 
ITER      Energy       Delta-E        Grad      Rot      Max-DP    RMS-DP
  6   -231.73505721  -0.0001894921  0.001622  0.001622  0.001612  0.000073
               *** Restarting incremental Fock matrix formation ***
  7   -231.73506939  -0.0000121766  0.000328  0.000373  0.000411  0.000024
  8   -231.73507080  -0.0000014103  0.000087  0.000130  0.000142  0.000006
  9   -231.73507084  -0.0000000406  0.000039  0.000029  0.000030  0.000002
 10   -231.73507086  -0.0000000196  0.000003  0.000004  0.000005  0.000000
                 **** Energy Check signals convergence ****
              ***Rediagonalizing the Fockian in SOSCF/NRSCF***

               *****************************************************
               *                     SUCCESS                       *
               *           SCF CONVERGED AFTER  11 CYCLES          *
               *****************************************************

Old exchange energy                            =    -13.944967453 Eh
New exchange energy                            =    -13.944951718 Eh
Exchange energy change after final integration =      0.000015736 Eh
Total energy after final integration           =   -231.735055120 Eh
Final COS-X integration done in                =     3.593 sec

----------------
TOTAL SCF ENERGY
----------------

Total Energy       :         -231.73505512 Eh           -6305.83143 eV

Components:
Nuclear Repulsion  :          203.66270054 Eh            5541.94383 eV
Electronic Energy  :         -435.39775566 Eh          -11847.77526 eV
One Electron Energy:         -714.31083255 Eh          -19437.38593 eV
Two Electron Energy:          278.91307689 Eh            7589.61067 eV
Max COSX asymmetry :            0.00000059 Eh               0.00002 eV

Virial components:
Potential Energy   :         -461.54938788 Eh          -12559.39735 eV
Kinetic Energy     :          229.81433276 Eh            6253.56592 eV
Virial Ratio       :            2.00835771


DFT components:
N(Alpha)           :       21.000000506097 electrons
N(Beta)            :       21.000000506097 electrons
N(Total)           :       42.000001012193 electrons
E(X)               :      -18.509000659503 Eh       
E(C)               :       -1.801014311342 Eh       
E(XC)              :      -20.310014970845 Eh       
DFET-embed. en.    :        0.000000000000 Eh       

---------------
SCF CONVERGENCE
---------------

  Last Energy change         ...    6.6154e-09  Tolerance :   1.0000e-08
  Last MAX-Density change    ...    7.7716e-16  Tolerance :   1.0000e-07
  Last RMS-Density change    ...    3.5812e-17  Tolerance :   5.0000e-09
  Last Orbital Gradient      ...    6.3473e-07  Tolerance :   1.0000e-05
  Last Orbital Rotation      ...    7.8957e-07  Tolerance :   1.0000e-05

             **** THE GBW FILE WAS UPDATED (pbeh-3c.gbw) ****
             **** DENSITY pbeh-3c.scfp WAS UPDATED ****
             **** ENERGY FILE WAS UPDATED (pbeh-3c.en.tmp) ****
             **** THE GBW FILE WAS UPDATED (pbeh-3c.gbw) ****
             **** DENSITY pbeh-3c.scfp WAS UPDATED ****
----------------
ORBITAL ENERGIES
----------------

  NO   OCC          E(Eh)            E(eV) 
   0   2.0000     -10.448789      -284.3260 
   1   2.0000     -10.448570      -284.3201 
   2   2.0000     -10.448568      -284.3200 
   3   2.0000     -10.447958      -284.3034 
   4   2.0000     -10.447956      -284.3033 
   5   2.0000     -10.447728      -284.2971 
   6   2.0000      -0.952008       -25.9055 
   7   2.0000      -0.835435       -22.7333 
   8   2.0000      -0.835434       -22.7333 
   9   2.0000      -0.678979       -18.4759 
  10   2.0000      -0.678978       -18.4759 
  11   2.0000      -0.591971       -16.1083 
  12   2.0000      -0.525995       -14.3131 
  13   2.0000      -0.508401       -13.8343 
  14   2.0000      -0.481777       -13.1098 
  15   2.0000      -0.481775       -13.1098 
  16   2.0000      -0.420805       -11.4507 
  17   2.0000      -0.398332       -10.8392 
  18   2.0000      -0.398331       -10.8391 
  19   2.0000      -0.292447        -7.9579 
  20   2.0000      -0.292444        -7.9578 
  21   0.0000       0.019140         0.5208 
  22   0.0000       0.019141         0.5209 
  23   0.0000       0.140807         3.8315 
  24   0.0000       0.196148         5.3375 
  25   0.0000       0.201814         5.4916 
  26   0.0000       0.201818         5.4917 
  27   0.0000       0.223429         6.0798 
  28   0.0000       0.223433         6.0799 
  29   0.0000       0.254177         6.9165 
  30   0.0000       0.326855         8.8942 
  31   0.0000       0.326866         8.8945 
  32   0.0000       0.328499         8.9389 
  33   0.0000       0.328504         8.9390 
  34   0.0000       0.449699        12.2369 
  35   0.0000       0.519798        14.1444 
  36   0.0000       0.565221        15.3804 
  37   0.0000       0.588353        16.0099 
  38   0.0000       0.588358        16.0100 
  39   0.0000       0.589132        16.0311 
  40   0.0000       0.618802        16.8385 
  41   0.0000       0.618802        16.8385 
  42   0.0000       0.634191        17.2572 
  43   0.0000       0.634195        17.2573 
  44   0.0000       0.640351        17.4248 
  45   0.0000       0.656814        17.8728 
  46   0.0000       0.656821        17.8730 
  47   0.0000       0.676484        18.4081 
  48   0.0000       0.732089        19.9212 
  49   0.0000       0.749683        20.3999 
  50   0.0000       0.942701        25.6522 
  51   0.0000       0.942707        25.6523 
  52   0.0000       0.968196        26.3460 
  53   0.0000       0.968608        26.3572 
  54   0.0000       0.968613        26.3573 
  55   0.0000       1.040417        28.3112 
  56   0.0000       1.040417        28.3112 
  57   0.0000       1.044317        28.4173 
  58   0.0000       1.088563        29.6213 
  59   0.0000       1.088575        29.6216 
  60   0.0000       1.096519        29.8378 
  61   0.0000       1.096535        29.8382 
  62   0.0000       1.170110        31.8403 
  63   0.0000       1.301122        35.4053 
  64   0.0000       1.301125        35.4054 
  65   0.0000       1.306240        35.5446 
  66   0.0000       1.441190        39.2168 
  67   0.0000       1.537512        41.8378 
  68   0.0000       1.537512        41.8378 
  69   0.0000       1.567204        42.6458 
  70   0.0000       1.567204        42.6458 
  71   0.0000       1.580996        43.0211 
  72   0.0000       1.815368        49.3987 
  73   0.0000       1.816827        49.4384 
  74   0.0000       1.902222        51.7621 
  75   0.0000       2.060428        56.0671 
  76   0.0000       2.060429        56.0671 
  77   0.0000       2.135549        58.1112 
  78   0.0000       2.135550        58.1113 
  79   0.0000       2.195328        59.7379 
  80   0.0000       2.195333        59.7380 
  81   0.0000       2.203600        59.9630 
  82   0.0000       2.203600        59.9630 
  83   0.0000       2.372534        64.5599 
  84   0.0000       2.373117        64.5758 
  85   0.0000       2.373118        64.5758 
  86   0.0000       2.582599        70.2761 
  87   0.0000       2.582604        70.2762 
  88   0.0000       2.730053        74.2885 
  89   0.0000       2.742582        74.6294 
  90   0.0000       2.742583        74.6295 
  91   0.0000       2.790032        75.9206 
  92   0.0000       2.790033        75.9207 
  93   0.0000       2.839303        77.2614 
  94   0.0000       3.059298        83.2477 
  95   0.0000       3.450856        93.9026 
  96   0.0000      13.215018       359.5989 
  97   0.0000      13.631961       370.9445 
  98   0.0000      13.631966       370.9447 
  99   0.0000      14.104626       383.8064 
 100   0.0000      14.104633       383.8066 
 101   0.0000      14.542869       395.7316 

                    ********************************
                    * MULLIKEN POPULATION ANALYSIS *
                    ********************************

-----------------------
MULLIKEN ATOMIC CHARGES
-----------------------
   0 C :   -0.219870
   1 H :    0.219870
   2 C :   -0.219870
   3 H :    0.219870
   4 C :   -0.219883
   5 H :    0.219882
   6 C :   -0.219869
   7 H :    0.219870
   8 C :   -0.219870
   9 H :    0.219869
  10 C :   -0.219882
  11 H :    0.219882
Sum of atomic charges:   -0.0000000

--------------------------------
MULLIKEN REDUCED ORBITAL CHARGES
--------------------------------
  0 C s       :     3.246182  s :     3.246182
      pz      :     0.990910  p :     2.934109
      px      :     1.007783
      py      :     0.935416
      dz2     :     0.003846  d :     0.039579
      dxz     :     0.003398
      dyz     :     0.005689
      dx2y2   :     0.012178
      dxy     :     0.014468
  1 H s       :     0.780130  s :     0.780130
  2 C s       :     3.246182  s :     3.246182
      pz      :     0.990910  p :     2.934109
      px      :     1.007783
      py      :     0.935416
      dz2     :     0.003846  d :     0.039579
      dxz     :     0.003398
      dyz     :     0.005689
      dx2y2   :     0.012178
      dxy     :     0.014468
  3 H s       :     0.780130  s :     0.780130
  4 C s       :     3.246176  s :     3.246176
      pz      :     0.990920  p :     2.934128
      px      :     0.899214
      py      :     1.043994
      dz2     :     0.003846  d :     0.039579
      dxz     :     0.006834
      dyz     :     0.002253
      dx2y2   :     0.015613
      dxy     :     0.011033
  5 H s       :     0.780118  s :     0.780118
  6 C s       :     3.246181  s :     3.246181
      pz      :     0.990910  p :     2.934109
      px      :     1.007783
      py      :     0.935416
      dz2     :     0.003846  d :     0.039579
      dxz     :     0.003398
      dyz     :     0.005689
      dx2y2   :     0.012178
      dxy     :     0.014468
  7 H s       :     0.780130  s :     0.780130
  8 C s       :     3.246182  s :     3.246182
      pz      :     0.990910  p :     2.934109
      px      :     1.007783
      py      :     0.935416
      dz2     :     0.003846  d :     0.039579
      dxz     :     0.003398
      dyz     :     0.005689
      dx2y2   :     0.012178
      dxy     :     0.014468
  9 H s       :     0.780131  s :     0.780131
 10 C s       :     3.246176  s :     3.246176
      pz      :     0.990920  p :     2.934128
      px      :     0.899214
      py      :     1.043994
      dz2     :     0.003846  d :     0.039579
      dxz     :     0.006834
      dyz     :     0.002253
      dx2y2   :     0.015613
      dxy     :     0.011033
 11 H s       :     0.780118  s :     0.780118


                     *******************************
                     * LOEWDIN POPULATION ANALYSIS *
                     *******************************

----------------------
LOEWDIN ATOMIC CHARGES
----------------------
   0 C :   -0.135684
   1 H :    0.135686
   2 C :   -0.135684
   3 H :    0.135686
   4 C :   -0.135690
   5 H :    0.135685
   6 C :   -0.135684
   7 H :    0.135686
   8 C :   -0.135684
   9 H :    0.135686
  10 C :   -0.135690
  11 H :    0.135685

-------------------------------
LOEWDIN REDUCED ORBITAL CHARGES
-------------------------------
  0 C s       :     2.894467  s :     2.894467
      pz      :     0.982522  p :     3.151851
      px      :     1.081897
      py      :     1.087433
      dz2     :     0.006274  d :     0.089366
      dxz     :     0.006032
      dyz     :     0.011445
      dx2y2   :     0.030834
      dxy     :     0.034781
  1 H s       :     0.864314  s :     0.864314
  2 C s       :     2.894467  s :     2.894467
      pz      :     0.982522  p :     3.151851
      px      :     1.081897
      py      :     1.087433
      dz2     :     0.006274  d :     0.089366
      dxz     :     0.006032
      dyz     :     0.011445
      dx2y2   :     0.030834
      dxy     :     0.034781
  3 H s       :     0.864314  s :     0.864314
  4 C s       :     2.894468  s :     2.894468
      pz      :     0.982526  p :     3.151857
      px      :     1.090199
      py      :     1.079132
      dz2     :     0.006274  d :     0.089365
      dxz     :     0.014151
      dyz     :     0.003326
      dx2y2   :     0.036754
      dxy     :     0.028861
  5 H s       :     0.864315  s :     0.864315
  6 C s       :     2.894467  s :     2.894467
      pz      :     0.982522  p :     3.151851
      px      :     1.081897
      py      :     1.087433
      dz2     :     0.006274  d :     0.089366
      dxz     :     0.006032
      dyz     :     0.011445
      dx2y2   :     0.030834
      dxy     :     0.034781
  7 H s       :     0.864314  s :     0.864314
  8 C s       :     2.894467  s :     2.894467
      pz      :     0.982522  p :     3.151851
      px      :     1.081897
      py      :     1.087433
      dz2     :     0.006274  d :     0.089366
      dxz     :     0.006032
      dyz     :     0.011445
      dx2y2   :     0.030834
      dxy     :     0.034781
  9 H s       :     0.864314  s :     0.864314
 10 C s       :     2.894468  s :     2.894468
      pz      :     0.982526  p :     3.151857
      px      :     1.090199
      py      :     1.079132
      dz2     :     0.006274  d :     0.089365
      dxz     :     0.014151
      dyz     :     0.003326
      dx2y2   :     0.036754
      dxy     :     0.028861
 11 H s       :     0.864315  s :     0.864315


                      *****************************
                      * MAYER POPULATION ANALYSIS *
                      *****************************

  NA   - Mulliken gross atomic population
  ZA   - Total nuclear charge
  QA   - Mulliken gross atomic charge
  VA   - Mayer's total valence
  BVA  - Mayer's bonded valence
  FA   - Mayer's free valence

  ATOM       NA         ZA         QA         VA         BVA        FA
  0 C      6.2199     6.0000    -0.2199     3.8193     3.8193     0.0000
  1 H      0.7801     1.0000     0.2199     0.9117     0.9117     0.0000
  2 C      6.2199     6.0000    -0.2199     3.8193     3.8193     0.0000
  3 H      0.7801     1.0000     0.2199     0.9117     0.9117    -0.0000
  4 C      6.2199     6.0000    -0.2199     3.8193     3.8193    -0.0000
  5 H      0.7801     1.0000     0.2199     0.9117     0.9117     0.0000
  6 C      6.2199     6.0000    -0.2199     3.8193     3.8193    -0.0000
  7 H      0.7801     1.0000     0.2199     0.9117     0.9117    -0.0000
  8 C      6.2199     6.0000    -0.2199     3.8193     3.8193    -0.0000
  9 H      0.7801     1.0000     0.2199     0.9117     0.9117    -0.0000
 10 C      6.2199     6.0000    -0.2199     3.8193     3.8193    -0.0000
 11 H      0.7801     1.0000     0.2199     0.9117     0.9117     0.0000

  Mayer bond orders larger than 0.100000
B(  0-C ,  1-H ) :   0.9200 B(  0-C ,  2-C ) :   1.4265 B(  0-C , 10-C ) :   1.4265 
B(  2-C ,  3-H ) :   0.9200 B(  2-C ,  4-C ) :   1.4265 B(  4-C ,  5-H ) :   0.9200 
B(  4-C ,  6-C ) :   1.4265 B(  6-C ,  7-H ) :   0.9200 B(  6-C ,  8-C ) :   1.4265 
B(  8-C ,  9-H ) :   0.9200 B(  8-C , 10-C ) :   1.4265 B( 10-C , 11-H ) :   0.9200 


-------
TIMINGS
-------

Total SCF time: 0 days 0 hours 0 min 59 sec 

Total time                  ....      59.051 sec
Sum of individual times     ....      53.667 sec  ( 90.9%)

Fock matrix formation       ....      43.489 sec  ( 73.6%)
  Split-RI-J                ....       5.370 sec  ( 12.3% of F)
  Chain of spheres X        ....      16.731 sec  ( 38.5% of F)
  XC integration            ....      10.804 sec  ( 24.8% of F)
    Basis function eval.    ....       2.084 sec  ( 19.3% of XC)
    Density eval.           ....       1.169 sec  ( 10.8% of XC)
    XC-Functional eval.     ....       1.036 sec  (  9.6% of XC)
    XC-Potential eval.      ....       0.929 sec  (  8.6% of XC)
Diagonalization             ....       0.515 sec  (  0.9%)
Density matrix formation    ....       0.002 sec  (  0.0%)
Population analysis         ....       0.786 sec  (  1.3%)
Initial guess               ....       0.021 sec  (  0.0%)
Orbital Transformation      ....       0.000 sec  (  0.0%)
Orbital Orthonormalization  ....       0.000 sec  (  0.0%)
DIIS solution               ....       1.228 sec  (  2.1%)
SOSCF solution              ....       1.457 sec  (  2.5%)
Grid generation             ....       6.168 sec  ( 10.4%)

Maximum memory used throughout the entire SCF-calculation: 50.8 MB


-------------------------------------------------------------------------------
                          DFT DISPERSION CORRECTION                            
                                                                               
                              DFTD3 V3.1  Rev 1                                
                          USING Becke-Johnson damping                          
-------------------------------------------------------------------------------
The PBEh-3c composite method is recognized
Using three-body term ABC
Active option DFTDOPT                   ...         4   

molecular C6(AA) [au] = 1659.181748 


            DFT-D V3
 parameters
 s6 scaling factor         :     1.0000 
 a1 scaling factor         :     0.4860 
 s8 scaling factor         :     0.0000 
 a2 scaling factor         :     4.5000 
 Damping factor alpha9(ATM):    16.0000 
 ad hoc parameters k1-k3   :    16.0000     1.3333    -4.0000 

 Edisp/kcal,au: -3.689988609307  -0.005880370525 
 E6   /kcal   :  -3.695923583 
 E8   /kcal   :  -0.000000000 
 E6(ABC)      :   0.005934974 
 % E8         :   0.000000000 
 % E6(ABC)    :  -0.160839888 

-------------------------   ----------------
Dispersion correction           -0.005880371
-------------------------   ----------------

------------------   -----------------
gCP correction             0.015149704
------------------   -----------------

-------------------------   --------------------
FINAL SINGLE POINT ENERGY      -231.725785786465
-------------------------   --------------------


                            ***************************************
                            *     ORCA property calculations      *
                            ***************************************

                                    ---------------------
                                    Active property flags
                                    ---------------------
   (+) Dipole Moment


------------------------------------------------------------------------------
                       ORCA ELECTRIC PROPERTIES CALCULATION
------------------------------------------------------------------------------

Dipole Moment Calculation                       ... on
Quadrupole Moment Calculation                   ... off
Polarizability Calculation                      ... off
GBWName                                         ... pbeh-3c.gbw
Electron density                                ... pbeh-3c.scfp
The origin for moment calculation is the CENTER OF MASS  = (-0.000000,  0.000000  0.000000)

-------------
DIPOLE MOMENT
-------------
                                X             Y             Z
Electronic contribution:     -0.00000      -0.00000       0.00000
Nuclear contribution   :     -0.00000       0.00000       0.00000
                        -----------------------------------------
Total Dipole Moment    :     -0.00000      -0.00000       0.00000
                        -----------------------------------------
Magnitude (a.u.)       :      0.00000
Magnitude (Debye)      :      0.00000



--------------------
Rotational spectrum 
--------------------
 
Rotational constants in cm-1:     0.190362     0.190362     0.095181 
Rotational constants in MHz :  5706.904107  5706.904057  2853.452041 

 Dipole components along the rotational axes: 
x,y,z [a.u.] :    -0.000000    -0.000000     0.000000 
x,y,z [Debye]:    -0.000000    -0.000000     0.000000 

 

Timings for individual modules:

Sum of individual times         ...       62.884 sec (=   1.048 min)
GTO integral calculation        ...        3.300 sec (=   0.055 min)   5.2 %
SCF iterations                  ...       59.584 sec (=   0.993 min)  94.8 %
                             ****ORCA TERMINATED NORMALLY****
TOTAL RUN TIME: 0 days 0 hours 1 minutes 5 seconds 89 msec
