
                                 *****************
                                 * O   R   C   A *
                                 *****************

                                            #,                                       
                                            ###                                      
                                            ####                                     
                                            #####                                    
                                            ######                                   
                                           ########,                                 
                                     ,,################,,,,,                         
                               ,,#################################,,                 
                          ,,##########################################,,             
                       ,#########################################, ''#####,          
                    ,#############################################,,   '####,        
                  ,##################################################,,,,####,       
                ,###########''''           ''''###############################       
              ,#####''   ,,,,##########,,,,          '''####'''          '####       
            ,##' ,,,,###########################,,,                        '##       
           ' ,,###''''                  '''############,,,                           
         ,,##''                                '''############,,,,        ,,,,,,###''
      ,#''                                            '''#######################'''  
     '                                                          ''''####''''         
             ,#######,   #######,   ,#######,      ##                                
            ,#'     '#,  ##    ##  ,#'     '#,    #''#        ######   ,####,        
            ##       ##  ##   ,#'  ##            #'  '#       #        #'  '#        
            ##       ##  #######   ##           ,######,      #####,   #    #        
            '#,     ,#'  ##    ##  '#,     ,#' ,#      #,         ##   #,  ,#        
             '#######'   ##     ##  '#######'  #'      '#     #####' # '####'        



                  #######################################################
                  #                        -***-                        #
                  #          Department of theory and spectroscopy      #
                  #    Directorship and core code : Frank Neese         #
                  #        Max Planck Institute fuer Kohlenforschung    #
                  #                Kaiser Wilhelm Platz 1               #
                  #                 D-45470 Muelheim/Ruhr               #
                  #                      Germany                        #
                  #                                                     #
                  #                  All rights reserved                #
                  #                        -***-                        #
                  #######################################################


                         Program Version 5.0.3 -  RELEASE  -


 With contributions from (in alphabetic order):
   Daniel Aravena         : Magnetic Suceptibility
   Michael Atanasov       : Ab Initio Ligand Field Theory (pilot matlab implementation)
   Alexander A. Auer      : GIAO ZORA, VPT2 properties, NMR spectrum
   Ute Becker             : Parallelization
   Giovanni Bistoni       : ED, misc. LED, open-shell LED, HFLD
   Martin Brehm           : Molecular dynamics
   Dmytro Bykov           : SCF Hessian
   Vijay G. Chilkuri      : MRCI spin determinant printing, contributions to CSF-ICE
   Dipayan Datta          : RHF DLPNO-CCSD density
   Achintya Kumar Dutta   : EOM-CC, STEOM-CC
   Dmitry Ganyushin       : Spin-Orbit,Spin-Spin,Magnetic field MRCI
   Miquel Garcia          : C-PCM and meta-GGA Hessian, CC/C-PCM, Gaussian charge scheme
   Yang Guo               : DLPNO-NEVPT2, F12-NEVPT2, CIM, IAO-localization
   Andreas Hansen         : Spin unrestricted coupled pair/coupled cluster methods
   Benjamin Helmich-Paris : MC-RPA, TRAH-SCF, COSX integrals
   Lee Huntington         : MR-EOM, pCC
   Robert Izsak           : Overlap fitted RIJCOSX, COSX-SCS-MP3, EOM
   Marcus Kettner         : VPT2
   Christian Kollmar      : KDIIS, OOCD, Brueckner-CCSD(T), CCSD density, CASPT2, CASPT2-K
   Simone Kossmann        : Meta GGA functionals, TD-DFT gradient, OOMP2, MP2 Hessian
   Martin Krupicka        : Initial AUTO-CI
   Lucas Lang             : DCDCAS
   Marvin Lechner         : AUTO-CI (C++ implementation), FIC-MRCC
   Dagmar Lenk            : GEPOL surface, SMD
   Dimitrios Liakos       : Extrapolation schemes; Compound Job, initial MDCI parallelization
   Dimitrios Manganas     : Further ROCIS development; embedding schemes
   Dimitrios Pantazis     : SARC Basis sets
   Anastasios Papadopoulos: AUTO-CI, single reference methods and gradients
   Taras Petrenko         : DFT Hessian,TD-DFT gradient, ASA, ECA, R-Raman, ABS, FL, XAS/XES, NRVS
   Peter Pinski           : DLPNO-MP2, DLPNO-MP2 Gradient
   Christoph Reimann      : Effective Core Potentials
   Marius Retegan         : Local ZFS, SOC
   Christoph Riplinger    : Optimizer, TS searches, QM/MM, DLPNO-CCSD(T), (RO)-DLPNO pert. Triples
   Tobias Risthaus        : Range-separated hybrids, TD-DFT gradient, RPA, STAB
   Michael Roemelt        : Original ROCIS implementation
   Masaaki Saitow         : Open-shell DLPNO-CCSD energy and density
   Barbara Sandhoefer     : DKH picture change effects
   Avijit Sen             : IP-ROCIS
   Kantharuban Sivalingam : CASSCF convergence, NEVPT2, FIC-MRCI
   Bernardo de Souza      : ESD, SOC TD-DFT
   Georgi Stoychev        : AutoAux, RI-MP2 NMR, DLPNO-MP2 response
   Willem Van den Heuvel  : Paramagnetic NMR
   Boris Wezisla          : Elementary symmetry handling
   Frank Wennmohs         : Technical directorship


 We gratefully acknowledge several colleagues who have allowed us to
 interface, adapt or use parts of their codes:
   Stefan Grimme, W. Hujo, H. Kruse, P. Pracht,  : VdW corrections, initial TS optimization,
                  C. Bannwarth, S. Ehlert          DFT functionals, gCP, sTDA/sTD-DF
   Ed Valeev, F. Pavosevic, A. Kumar             : LibInt (2-el integral package), F12 methods
   Garnet Chan, S. Sharma, J. Yang, R. Olivares  : DMRG
   Ulf Ekstrom                                   : XCFun DFT Library
   Mihaly Kallay                                 : mrcc  (arbitrary order and MRCC methods)
   Jiri Pittner, Ondrej Demel                    : Mk-CCSD
   Frank Weinhold                                : gennbo (NPA and NBO analysis)
   Christopher J. Cramer and Donald G. Truhlar   : smd solvation model
   Lars Goerigk                                  : TD-DFT with DH, B97 family of functionals
   V. Asgeirsson, H. Jonsson                     : NEB implementation
   FAccTs GmbH                                   : IRC, NEB, NEB-TS, DLPNO-Multilevel, CI-OPT
                                                   MM, QMMM, 2- and 3-layer-ONIOM, Crystal-QMMM,
                                                   LR-CPCM, SF, NACMEs, symmetry and pop. for TD-DFT,
                                                   nearIR, NL-DFT gradient (VV10), updates on ESD,
                                                   ML-optimized integration grids
   S Lehtola, MJT Oliveira, MAL Marques          : LibXC Library
   Liviu Ungur et al                             : ANISO software


 Your calculation uses the libint2 library for the computation of 2-el integrals
 For citations please refer to: http://libint.valeyev.net

 Your ORCA version has been built with support for libXC version: 5.1.0
 For citations please refer to: https://tddft.org/programs/libxc/

 This ORCA versions uses:
   CBLAS   interface :  Fast vector & matrix operations
   LAPACKE interface :  Fast linear algebra routines
   SCALAPACK package :  Parallel linear algebra routines
   Shared memory     :  Shared parallel matrices
   BLAS/LAPACK       :  OpenBLAS 0.3.15  USE64BITINT DYNAMIC_ARCH NO_AFFINITY Haswell SINGLE_THREADED
        Core in use  :  Haswell
   Copyright (c) 2011-2014, The OpenBLAS Project




***************************************
The coordinates will be read from file: dioxirane.xyz
***************************************


Your calculation utilizes the geometrical counterpoise correction gCP
Please cite in your paper:
H.Kruse, S. Grimme J.Chem.Phys., 136, (2012), 154101 
   

Your calculation utilizes the atom-pairwise dispersion correction
with the Becke-Johnson damping scheme (D3BJ)
Cite in your paper:
S.Grimme, S.Ehrlich, L.Goerigk, J Comput Chem, (2011), 32, 1456–1465 
S.Grimme, J.Antony, S.Ehrlich and H.Krieg, J.Chem.Phys., 132, (2010), 154104 
   

Your calculation employs the composite approach PBEh-3c.
Please cite in your paper:
S. Grimme, J. G. Brandenburg, C. Bannwarth, A. Hansen J.Chem.Phys., 143, (2015), 054107 
   

================================================================================

----- Orbital basis set information -----
Your calculation utilizes the basis: def2-mSVP

----- AuxJ basis set information -----
Your calculation utilizes the auxiliary basis: def2/J
   F. Weigend, Phys. Chem. Chem. Phys. 8, 1057 (2006).

================================================================================
                                        WARNINGS
                       Please study these warnings very carefully!
================================================================================


INFO   : the flag for use of the SHARK integral package has been found!

================================================================================
                                       INPUT FILE
================================================================================
NAME = pbeh-3c.inp
|  1> ! PBEh-3c def2/J TightSCF DefGrid3
|  2> 
|  3> %maxcore 60000
|  4> 
|  5> %pal
|  6> nprocs 4
|  7> end
|  8> 
|  9> *xyzfile 0 1 dioxirane.xyz
| 10> 
| 11>                          ****END OF INPUT****
================================================================================

                       ****************************
                       * Single Point Calculation *
                       ****************************

---------------------------------
CARTESIAN COORDINATES (ANGSTROEM)
---------------------------------
  C      0.000000    0.782429    0.000000
  H      0.000000    1.351921   -0.925497
  H      0.000000    1.351921    0.925497
  O     -0.757104   -0.378857    0.000000
  O      0.757104   -0.378857    0.000000

----------------------------
CARTESIAN COORDINATES (A.U.)
----------------------------
  NO LB      ZA    FRAG     MASS         X           Y           Z
   0 C     6.0000    0    12.011    0.000000    1.478577    0.000000
   1 H     1.0000    0     1.008    0.000000    2.554761   -1.748936
   2 H     1.0000    0     1.008    0.000000    2.554761    1.748936
   3 O     8.0000    0    15.999   -1.430719   -0.715935    0.000000
   4 O     8.0000    0    15.999    1.430719   -0.715935    0.000000

--------------------------------
INTERNAL COORDINATES (ANGSTROEM)
--------------------------------
 C      0   0   0     0.000000000000     0.00000000     0.00000000
 H      1   0   0     1.086676423768     0.00000000     0.00000000
 H      1   2   0     1.086676423768   116.78899682     0.00000000
 O      1   2   3     1.386286859540   116.04066888   142.56617242
 O      1   2   3     1.386286859540   116.04066888   217.43382758

---------------------------
INTERNAL COORDINATES (A.U.)
---------------------------
 C      0   0   0     0.000000000000     0.00000000     0.00000000
 H      1   0   0     2.053520837111     0.00000000     0.00000000
 H      1   2   0     2.053520837111   116.78899682     0.00000000
 O      1   2   3     2.619702507585   116.04066888   142.56617242
 O      1   2   3     2.619702507585   116.04066888   217.43382758

---------------------
BASIS SET INFORMATION
---------------------
There are 3 groups of distinct atoms

 Group   1 Type C   : 8s4p1d contracted to 4s2p1d pattern {5111/31/1}
 Group   2 Type H   : 4s contracted to 2s pattern {31}
 Group   3 Type O   : 8s4p1d contracted to 4s2p1d pattern {5111/31/1}

Atom   0C    basis set group =>   1
Atom   1H    basis set group =>   2
Atom   2H    basis set group =>   2
Atom   3O    basis set group =>   3
Atom   4O    basis set group =>   3
---------------------------------
AUXILIARY/J BASIS SET INFORMATION
---------------------------------
There are 3 groups of distinct atoms

 Group   1 Type C   : 12s5p4d2f1g contracted to 6s4p3d1f1g pattern {711111/2111/211/2/1}
 Group   2 Type H   : 5s2p1d contracted to 3s1p1d pattern {311/2/1}
 Group   3 Type O   : 12s5p4d2f1g contracted to 6s4p3d1f1g pattern {711111/2111/211/2/1}

Atom   0C    basis set group =>   1
Atom   1H    basis set group =>   2
Atom   2H    basis set group =>   2
Atom   3O    basis set group =>   3
Atom   4O    basis set group =>   3


           ************************************************************
           *        Program running with 4 parallel MPI-processes     *
           *              working on a common directory               *
           ************************************************************
------------------------------------------------------------------------------
                           ORCA GTO INTEGRAL CALCULATION
                           -- RI-GTO INTEGRALS CHOSEN --
------------------------------------------------------------------------------
------------------------------------------------------------------------------
                   ___                                                        
                  /   \      - P O W E R E D   B Y -                         
                 /     \                                                     
                 |  |  |   _    _      __       _____    __    __             
                 |  |  |  | |  | |    /  \     |  _  \  |  |  /  |          
                  \  \/   | |  | |   /    \    | | | |  |  | /  /          
                 / \  \   | |__| |  /  /\  \   | |_| |  |  |/  /          
                |  |  |   |  __  | /  /__\  \  |    /   |      \           
                |  |  |   | |  | | |   __   |  |    \   |  |\   \          
                \     /   | |  | | |  |  |  |  | |\  \  |  | \   \       
                 \___/    |_|  |_| |__|  |__|  |_| \__\ |__|  \__/        
                                                                              
                      - O R C A' S   B I G   F R I E N D -                    
                                      &                                       
                       - I N T E G R A L  F E E D E R -                       
                                                                              
 v1 FN, 2020, v2 2021                                                         
------------------------------------------------------------------------------


Reading SHARK input file pbeh-3c.SHARKINP.tmp ... ok
----------------------
SHARK INTEGRAL PACKAGE
----------------------

Number of atoms                             ...      5
Number of basis functions                   ...     49
Number of shells                            ...     25
Maximum angular momentum                    ...      2
Integral batch strategy                     ... SHARK/LIBINT Hybrid
RI-J (if used) integral strategy            ... SPLIT-RIJ (Revised 2003 algorithm where possible)
Printlevel                                  ...      1
Contraction scheme used                     ... SEGMENTED contraction
Coulomb Range Separation                    ... NOT USED
Exchange Range Separation                   ... NOT USED
Finite Nucleus Model                        ... NOT USED
Auxiliary Coulomb fitting basis             ... AVAILABLE
   # of basis functions in Aux-J            ...    169
   # of shells in Aux-J                     ...     55
   Maximum angular momentum in Aux-J        ...      4
Auxiliary J/K fitting basis                 ... NOT available
Auxiliary Correlation fitting basis         ... NOT available
Auxiliary 'external' fitting basis          ... NOT available
Integral threshold                          ...     2.500000e-11
Primitive cut-off                           ...     2.500000e-12
Primitive pair pre-selection threshold      ...     2.500000e-12

Calculating pre-screening integrals         ... done (  0.1 sec) Dimension = 25
Organizing shell pair data                  ... done (  0.4 sec)
Shell pair information
Total number of shell pairs                 ...       325
Shell pairs after pre-screening             ...       317
Total number of primitive shell pairs       ...      1173
Primitive shell pairs kept                  ...       965
          la=0 lb=0:    128 shell pairs
          la=1 lb=0:     96 shell pairs
          la=1 lb=1:     21 shell pairs
          la=2 lb=0:     48 shell pairs
          la=2 lb=1:     18 shell pairs
          la=2 lb=2:      6 shell pairs

Calculating one electron integrals          ... done (  0.0 sec)
Calculating RI/J V-Matrix + Cholesky decomp.... done (  0.5 sec)
Calculating Nuclear repulsion               ... done (  0.0 sec) ENN=     73.190930882716 Eh

SHARK setup successfully completed in   2.0 seconds

Maximum memory used throughout the entire GTOINT-calculation: 9.0 MB


           ************************************************************
           *        Program running with 4 parallel MPI-processes     *
           *              working on a common directory               *
           ************************************************************
-------------------------------------------------------------------------------
                                 ORCA SCF
-------------------------------------------------------------------------------

------------
SCF SETTINGS
------------
Hamiltonian:
 Density Functional     Method          .... DFT(GTOs)
 Exchange Functional    Exchange        .... PBE
   PBE kappa parameter   XKappa         ....  1.024500
   PBE mue parameter    XMuePBE         ....  0.123457
 Correlation Functional Correlation     .... PBE
   PBE beta parameter  CBetaPBE         ....  0.030000
 LDA part of GGA corr.  LDAOpt          .... PW91-LDA
 Gradients option       PostSCFGGA      .... off
 Hybrid DFT is turned on
   Fraction HF Exchange ScalHFX         ....  0.420000
   Scaling of DF-GGA-X  ScalDFX         ....  0.580000
   Scaling of DF-GGA-C  ScalDFC         ....  1.000000
   Scaling of DF-LDA-C  ScalLDAC        ....  1.000000
   Perturbative correction              ....  0.000000
   Density functional embedding theory  .... OFF
 RI-approximation to the Coulomb term is turned on
   Number of AuxJ basis functions       .... 169
   RIJ-ON(X) (HFX calculated with O(N)) .... on
   Number of AuxJ basis functions       .... 169
   RIJ-COSX (HFX calculated with COS-X)).... on


General Settings:
 Integral files         IntName         .... pbeh-3c
 Hartree-Fock type      HFTyp           .... RHF
 Total Charge           Charge          ....    0
 Multiplicity           Mult            ....    1
 Number of Electrons    NEL             ....   24
 Basis Dimension        Dim             ....   49
 Nuclear Repulsion      ENuc            ....     73.1909308827 Eh

Convergence Acceleration:
 DIIS                   CNVDIIS         .... on
   Start iteration      DIISMaxIt       ....    12
   Startup error        DIISStart       ....  0.200000
   # of expansion vecs  DIISMaxEq       ....     5
   Bias factor          DIISBfac        ....   1.050
   Max. coefficient     DIISMaxC        ....  10.000
 Trust-Rad. Augm. Hess. CNVTRAH         .... auto
   Auto Start mean grad. ratio tolernc. ....  1.125000
   Auto Start start iteration           ....    20
   Auto Start num. interpolation iter.  ....    10
   Max. Number of Micro iterations      ....    16
   Max. Number of Macro iterations      .... Maxiter - #DIIS iter
   Number of Davidson start vectors     ....     2
   Converg. threshold I  (grad. norm)   ....   1.000e-05
   Converg. threshold II (energy diff.) ....   1.000e-08
   Grad. Scal. Fac. for Micro threshold ....   0.100
   Minimum threshold for Micro iter.    ....   0.010
   NR start threshold (gradient norm)   ....   0.001
   Initial trust radius                 ....   0.400
   Minimum AH scaling param. (alpha)    ....   1.000
   Maximum AH scaling param. (alpha)    .... 1000.000
   Orbital update algorithm             .... Taylor
   White noise on init. David. guess    .... on
   Maximum white noise                  ....   0.010
   Quad. conv. algorithm                .... NR
   COSX micro iterations for RIJONX calc.... off
 SOSCF                  CNVSOSCF        .... on
   Start iteration      SOSCFMaxIt      ....   150
   Startup grad/error   SOSCFStart      ....  0.003300
 Level Shifting         CNVShift        .... on
   Level shift para.    LevelShift      ....    0.2500
   Turn off err/grad.   ShiftErr        ....    0.0010
 Zerner damping         CNVZerner       .... off
 Static damping         CNVDamp         .... on
   Fraction old density DampFac         ....    0.7000
   Max. Damping (<1)    DampMax         ....    0.9800
   Min. Damping (>=0)   DampMin         ....    0.0000
   Turn off err/grad.   DampErr         ....    0.1000
 Fernandez-Rico         CNVRico         .... off

SCF Procedure:
 Maximum # iterations   MaxIter         ....   125
 SCF integral mode      SCFMode         .... Direct
   Integral package                     .... SHARK and LIBINT hybrid scheme
 Reset frequency        DirectResetFreq ....    20
 Integral Threshold     Thresh          ....  2.500e-11 Eh
 Primitive CutOff       TCut            ....  2.500e-12 Eh

Convergence Tolerance:
 Convergence Check Mode ConvCheckMode   .... Total+1el-Energy
 Convergence forced     ConvForced      .... 0
 Energy Change          TolE            ....  1.000e-08 Eh
 1-El. energy change                    ....  1.000e-05 Eh
 Orbital Gradient       TolG            ....  1.000e-05
 Orbital Rotation angle TolX            ....  1.000e-05
 DIIS Error             TolErr          ....  5.000e-07


Diagonalization of the overlap matrix:
Smallest eigenvalue                        ... 1.845e-02
Time for diagonalization                   ...    0.001 sec
Threshold for overlap eigenvalues          ... 1.000e-08
Number of eigenvalues below threshold      ... 0
Time for construction of square roots      ...    0.190 sec
Total time needed                          ...    0.191 sec

--------------------------------
INITIAL GUESS: MINIMAL BASIS EHT
--------------------------------
The minimal basis has 17 functions
EHT matrix was diagonalized
Basis set overlap was calculated now projecting the orbitals
Using GuessMode=FMatrix for the initial guess
C*T matrix was formed
Effective Fockian was calculated
Effective Fockian was diagonalized
Initial density was built
                      ------------------
                      INITIAL GUESS DONE
                      ------------------
-------------------
DFT GRID GENERATION
-------------------

General Integration Accuracy     IntAcc      ... 4.959
Radial Grid Type                 RadialGrid  ... OptM3 with GC (2021)
Angular Grid (max. ang.)         AngularGrid ... 6 (Lebedev-590)
Angular grid pruning method      GridPruning ... 4 (adaptive)
Weight generation scheme         WeightScheme... Becke
Basis function cutoff            BFCut       ... 1.0000e-11
Integration weight cutoff        WCut        ... 1.0000e-14
Angular grids for H and He will be reduced by one unit
Partially contracted basis set               ... off
Rotationally invariant grid construction     ... off

Total number of grid points                  ...    61598
Total number of batches                      ...      965
Average number of points per batch           ...       63
Average number of grid points per atom       ...    12320
Time for grid setup =    1.740 sec

--------------------
COSX GRID GENERATION
--------------------

GRIDX 1
-------
General Integration Accuracy     IntAcc      ... 4.020
Radial Grid Type                 RadialGrid  ... OptM3 with GC (2021)
Angular Grid (max. ang.)         AngularGrid ... 2 (Lebedev-110)
Angular grid pruning method      GridPruning ... 4 (adaptive)
Weight generation scheme         WeightScheme... Becke
Basis function cutoff            BFCut       ... 1.0000e-11
Integration weight cutoff        WCut        ... 1.0000e-14
Angular grids for H and He will be reduced by one unit
Partially contracted basis set               ... on
Rotationally invariant grid construction     ... off

Total number of grid points                  ...     7208
Total number of batches                      ...      114
Average number of points per batch           ...       63
Average number of grid points per atom       ...     1442
UseSFitting                                  ... on

GRIDX 2
-------
General Integration Accuracy     IntAcc      ... 4.338
Radial Grid Type                 RadialGrid  ... OptM3 with GC (2021)
Angular Grid (max. ang.)         AngularGrid ... 3 (Lebedev-194)
Angular grid pruning method      GridPruning ... 4 (adaptive)
Weight generation scheme         WeightScheme... Becke
Basis function cutoff            BFCut       ... 1.0000e-11
Integration weight cutoff        WCut        ... 1.0000e-14
Angular grids for H and He will be reduced by one unit
Partially contracted basis set               ... on
Rotationally invariant grid construction     ... off

Total number of grid points                  ...    15996
Total number of batches                      ...      252
Average number of points per batch           ...       63
Average number of grid points per atom       ...     3199
UseSFitting                                  ... on

GRIDX 3
-------
General Integration Accuracy     IntAcc      ... 4.871
Radial Grid Type                 RadialGrid  ... OptM3 with GC (2021)
Angular Grid (max. ang.)         AngularGrid ... 4 (Lebedev-302)
Angular grid pruning method      GridPruning ... 4 (adaptive)
Weight generation scheme         WeightScheme... Becke
Basis function cutoff            BFCut       ... 1.0000e-11
Integration weight cutoff        WCut        ... 1.0000e-14
Angular grids for H and He will be reduced by one unit
Partially contracted basis set               ... on
Rotationally invariant grid construction     ... off

Total number of grid points                  ...    30222
Total number of batches                      ...      475
Average number of points per batch           ...       63
Average number of grid points per atom       ...     6044
UseSFitting                                  ... on

Time for X-Grid setup             =    3.336 sec

--------------
SCF ITERATIONS
--------------
ITER       Energy         Delta-E        Max-DP      RMS-DP      [F,P]     Damp
               ***  Starting incremental Fock matrix formation  ***
  0   -188.6539283703   0.000000000000 0.14066970  0.00978543  0.3983731 0.7000
  1   -188.8749948668  -0.221066496535 0.07785590  0.00567387  0.2501675 0.7000
                               ***Turning on DIIS***
  2   -188.9846311238  -0.109636256972 0.03680345  0.00292840  0.1818378 0.7000
  3   -189.0557872756  -0.071156151795 0.02543326  0.00170405  0.1312037 0.7000
  4   -189.1059203705  -0.050133094913 0.05804987  0.00410019  0.0904330 0.0000
  5   -189.2241109280  -0.118190557541 0.00928683  0.00056703  0.0081068 0.0000
  6   -189.2243420181  -0.000231090066 0.00283079  0.00015093  0.0048243 0.0000
                      *** Initiating the SOSCF procedure ***
                           *** Shutting down DIIS ***
                      *** Re-Reading the Fockian *** 
                      *** Removing any level shift *** 
ITER      Energy       Delta-E        Grad      Rot      Max-DP    RMS-DP
  7   -189.22438569  -0.0000436687  0.000709  0.000709  0.001189  0.000078
               *** Restarting incremental Fock matrix formation ***
  8   -189.22438049   0.0000051986  0.000185  0.000386  0.000357  0.000024
  9   -189.22438083  -0.0000003376  0.000097  0.000262  0.000213  0.000013
 10   -189.22438096  -0.0000001321  0.000031  0.000031  0.000049  0.000004
 11   -189.22438096  -0.0000000026  0.000024  0.000011  0.000023  0.000002
                 **** Energy Check signals convergence ****
              ***Rediagonalizing the Fockian in SOSCF/NRSCF***

               *****************************************************
               *                     SUCCESS                       *
               *           SCF CONVERGED AFTER  12 CYCLES          *
               *****************************************************

Old exchange energy                            =     -9.329646980 Eh
New exchange energy                            =     -9.329640759 Eh
Exchange energy change after final integration =      0.000006221 Eh
Total energy after final integration           =   -189.224374742 Eh
Final COS-X integration done in                =     0.529 sec

----------------
TOTAL SCF ENERGY
----------------

Total Energy       :         -189.22437474 Eh           -5149.05701 eV

Components:
Nuclear Repulsion  :           73.19093088 Eh            1991.62648 eV
Electronic Energy  :         -262.41530562 Eh           -7140.68349 eV
One Electron Energy:         -403.98765141 Eh          -10993.06287 eV
Two Electron Energy:          141.57234579 Eh            3852.37938 eV
Max COSX asymmetry :            0.00000424 Eh               0.00012 eV

Virial components:
Potential Energy   :         -377.26679001 Eh          -10265.95127 eV
Kinetic Energy     :          188.04241527 Eh            5116.89426 eV
Virial Ratio       :            2.00628560


DFT components:
N(Alpha)           :       11.999999860478 electrons
N(Beta)            :       11.999999860478 electrons
N(Total)           :       23.999999720956 electrons
E(X)               :      -12.454302315137 Eh       
E(C)               :       -1.071491292985 Eh       
E(XC)              :      -13.525793608122 Eh       
DFET-embed. en.    :        0.000000000000 Eh       

---------------
SCF CONVERGENCE
---------------

  Last Energy change         ...   -2.8479e-09  Tolerance :   1.0000e-08
  Last MAX-Density change    ...    8.8818e-16  Tolerance :   1.0000e-07
  Last RMS-Density change    ...    6.2366e-17  Tolerance :   5.0000e-09
  Last Orbital Gradient      ...    5.2940e-07  Tolerance :   1.0000e-05
  Last Orbital Rotation      ...    1.0034e-06  Tolerance :   1.0000e-05

             **** THE GBW FILE WAS UPDATED (pbeh-3c.gbw) ****
             **** DENSITY pbeh-3c.scfp WAS UPDATED ****
             **** ENERGY FILE WAS UPDATED (pbeh-3c.en.tmp) ****
             **** THE GBW FILE WAS UPDATED (pbeh-3c.gbw) ****
             **** DENSITY pbeh-3c.scfp WAS UPDATED ****
----------------
ORBITAL ENERGIES
----------------

  NO   OCC          E(Eh)            E(eV) 
   0   2.0000     -19.579100      -532.7744 
   1   2.0000     -19.578927      -532.7697 
   2   2.0000     -10.565078      -287.4904 
   3   2.0000      -1.303909       -35.4812 
   4   2.0000      -0.978444       -26.6248 
   5   2.0000      -0.764374       -20.7997 
   6   2.0000      -0.606257       -16.4971 
   7   2.0000      -0.574088       -15.6217 
   8   2.0000      -0.483021       -13.1437 
   9   2.0000      -0.468853       -12.7581 
  10   2.0000      -0.402773       -10.9600 
  11   2.0000      -0.346195        -9.4204 
  12   0.0000       0.008656         0.2355 
  13   0.0000       0.093735         2.5507 
  14   0.0000       0.157449         4.2844 
  15   0.0000       0.230577         6.2743 
  16   0.0000       0.235964         6.4209 
  17   0.0000       0.520035        14.1509 
  18   0.0000       0.521945        14.2028 
  19   0.0000       0.573668        15.6103 
  20   0.0000       0.730533        19.8788 
  21   0.0000       0.915475        24.9113 
  22   0.0000       0.934720        25.4350 
  23   0.0000       0.940416        25.5900 
  24   0.0000       0.987038        26.8587 
  25   0.0000       1.032047        28.0834 
  26   0.0000       1.082070        29.4446 
  27   0.0000       1.107548        30.1379 
  28   0.0000       1.154615        31.4187 
  29   0.0000       1.461518        39.7699 
  30   0.0000       1.508889        41.0590 
  31   0.0000       1.529389        41.6168 
  32   0.0000       1.807641        49.1884 
  33   0.0000       1.820499        49.5383 
  34   0.0000       1.900440        51.7136 
  35   0.0000       1.912029        52.0290 
  36   0.0000       1.920526        52.2602 
  37   0.0000       2.177073        59.2412 
  38   0.0000       2.206286        60.0361 
  39   0.0000       2.230489        60.6947 
  40   0.0000       2.405570        65.4589 
  41   0.0000       2.430982        66.1504 
  42   0.0000       2.564154        69.7742 
  43   0.0000       2.741242        74.5930 
  44   0.0000       2.935190        79.8706 
  45   0.0000       3.096062        84.2481 
  46   0.0000      13.713098       373.1524 
  47   0.0000      25.471500       693.1148 
  48   0.0000      25.525591       694.5866 

                    ********************************
                    * MULLIKEN POPULATION ANALYSIS *
                    ********************************

-----------------------
MULLIKEN ATOMIC CHARGES
-----------------------
   0 C :    0.095950
   1 H :    0.203287
   2 H :    0.203287
   3 O :   -0.251262
   4 O :   -0.251262
Sum of atomic charges:   -0.0000000

--------------------------------
MULLIKEN REDUCED ORBITAL CHARGES
--------------------------------
  0 C s       :     3.239741  s :     3.239741
      pz      :     1.109902  p :     2.564399
      px      :     0.680936
      py      :     0.773562
      dz2     :     0.015416  d :     0.099910
      dxz     :     0.009414
      dyz     :     0.031787
      dx2y2   :     0.016221
      dxy     :     0.027072
  1 H s       :     0.796713  s :     0.796713
  2 H s       :     0.796713  s :     0.796713
  3 O s       :     3.891582  s :     3.891582
      pz      :     1.937061  p :     4.318757
      px      :     1.000096
      py      :     1.381600
      dz2     :     0.005392  d :     0.040924
      dxz     :     0.005563
      dyz     :     0.003326
      dx2y2   :     0.016007
      dxy     :     0.010635
  4 O s       :     3.891582  s :     3.891582
      pz      :     1.937061  p :     4.318757
      px      :     1.000096
      py      :     1.381600
      dz2     :     0.005392  d :     0.040924
      dxz     :     0.005563
      dyz     :     0.003326
      dx2y2   :     0.016007
      dxy     :     0.010635


                     *******************************
                     * LOEWDIN POPULATION ANALYSIS *
                     *******************************

----------------------
LOEWDIN ATOMIC CHARGES
----------------------
   0 C :    0.029119
   1 H :    0.108777
   2 H :    0.108777
   3 O :   -0.123337
   4 O :   -0.123337

-------------------------------
LOEWDIN REDUCED ORBITAL CHARGES
-------------------------------
  0 C s       :     2.955228  s :     2.955228
      pz      :     1.114040  p :     2.812591
      px      :     0.770746
      py      :     0.927805
      dz2     :     0.028289  d :     0.203063
      dxz     :     0.018755
      dyz     :     0.062780
      dx2y2   :     0.031196
      dxy     :     0.062043
  1 H s       :     0.891223  s :     0.891223
  2 H s       :     0.891223  s :     0.891223
  3 O s       :     3.627858  s :     3.627858
      pz      :     1.929093  p :     4.415785
      px      :     1.067605
      py      :     1.419088
      dz2     :     0.011101  d :     0.079694
      dxz     :     0.011646
      dyz     :     0.006598
      dx2y2   :     0.029098
      dxy     :     0.021250
  4 O s       :     3.627858  s :     3.627858
      pz      :     1.929093  p :     4.415785
      px      :     1.067605
      py      :     1.419088
      dz2     :     0.011101  d :     0.079694
      dxz     :     0.011646
      dyz     :     0.006598
      dx2y2   :     0.029098
      dxy     :     0.021250


                      *****************************
                      * MAYER POPULATION ANALYSIS *
                      *****************************

  NA   - Mulliken gross atomic population
  ZA   - Total nuclear charge
  QA   - Mulliken gross atomic charge
  VA   - Mayer's total valence
  BVA  - Mayer's bonded valence
  FA   - Mayer's free valence

  ATOM       NA         ZA         QA         VA         BVA        FA
  0 C      5.9041     6.0000     0.0959     3.7598     3.7598     0.0000
  1 H      0.7967     1.0000     0.2033     0.9029     0.9029    -0.0000
  2 H      0.7967     1.0000     0.2033     0.9029     0.9029     0.0000
  3 O      8.2513     8.0000    -0.2513     1.9463     1.9463    -0.0000
  4 O      8.2513     8.0000    -0.2513     1.9463     1.9463    -0.0000

  Mayer bond orders larger than 0.100000
B(  0-C ,  1-H ) :   0.8925 B(  0-C ,  2-H ) :   0.8925 B(  0-C ,  3-O ) :   0.9873 
B(  0-C ,  4-O ) :   0.9873 B(  3-O ,  4-O ) :   0.9470 

-------
TIMINGS
-------

Total SCF time: 0 days 0 hours 0 min 49 sec 

Total time                  ....      49.672 sec
Sum of individual times     ....      44.623 sec  ( 89.8%)

Fock matrix formation       ....      33.837 sec  ( 68.1%)
  Split-RI-J                ....       4.454 sec  ( 13.2% of F)
  Chain of spheres X        ....       5.427 sec  ( 16.0% of F)
  XC integration            ....       9.427 sec  ( 27.9% of F)
    Basis function eval.    ....       0.790 sec  (  8.4% of XC)
    Density eval.           ....       0.403 sec  (  4.3% of XC)
    XC-Functional eval.     ....       0.571 sec  (  6.1% of XC)
    XC-Potential eval.      ....       0.266 sec  (  2.8% of XC)
Diagonalization             ....       0.810 sec  (  1.6%)
Density matrix formation    ....       0.067 sec  (  0.1%)
Population analysis         ....       0.843 sec  (  1.7%)
Initial guess               ....       0.065 sec  (  0.1%)
Orbital Transformation      ....       0.000 sec  (  0.0%)
Orbital Orthonormalization  ....       0.000 sec  (  0.0%)
DIIS solution               ....       2.912 sec  (  5.9%)
SOSCF solution              ....       1.013 sec  (  2.0%)
Grid generation             ....       5.077 sec  ( 10.2%)

Maximum memory used throughout the entire SCF-calculation: 45.1 MB


-------------------------------------------------------------------------------
                          DFT DISPERSION CORRECTION                            
                                                                               
                              DFTD3 V3.1  Rev 1                                
                          USING Becke-Johnson damping                          
-------------------------------------------------------------------------------
The PBEh-3c composite method is recognized
Using three-body term ABC
Active option DFTDOPT                   ...         4   

molecular C6(AA) [au] = 201.018629 


            DFT-D V3
 parameters
 s6 scaling factor         :     1.0000 
 a1 scaling factor         :     0.4860 
 s8 scaling factor         :     0.0000 
 a2 scaling factor         :     4.5000 
 Damping factor alpha9(ATM):    16.0000 
 ad hoc parameters k1-k3   :    16.0000     1.3333    -4.0000 

 Edisp/kcal,au: -0.565439845989  -0.000901085655 
 E6   /kcal   :  -0.565513259 
 E8   /kcal   :  -0.000000000 
 E6(ABC)      :   0.000073413 
 % E8         :   0.000000000 
 % E6(ABC)    :  -0.012983430 

-------------------------   ----------------
Dispersion correction           -0.000901086
-------------------------   ----------------

------------------   -----------------
gCP correction             0.015552526
------------------   -----------------

-------------------------   --------------------
FINAL SINGLE POINT ENERGY      -189.209723301964
-------------------------   --------------------


                            ***************************************
                            *     ORCA property calculations      *
                            ***************************************

                                    ---------------------
                                    Active property flags
                                    ---------------------
   (+) Dipole Moment


------------------------------------------------------------------------------
                       ORCA ELECTRIC PROPERTIES CALCULATION
------------------------------------------------------------------------------

Dipole Moment Calculation                       ... on
Quadrupole Moment Calculation                   ... off
Polarizability Calculation                      ... off
GBWName                                         ... pbeh-3c.gbw
Electron density                                ... pbeh-3c.scfp
The origin for moment calculation is the CENTER OF MASS  = ( 0.000000,  0.000024  0.000000)

-------------
DIPOLE MOMENT
-------------
                                X             Y             Z
Electronic contribution:      0.00000      -1.46907       0.00000
Nuclear contribution   :      0.00000       2.52545       0.00000
                        -----------------------------------------
Total Dipole Moment    :      0.00000       1.05638       0.00000
                        -----------------------------------------
Magnitude (a.u.)       :      1.05638
Magnitude (Debye)      :      2.68510



--------------------
Rotational spectrum 
--------------------
 
Rotational constants in cm-1:     0.971216     0.840016     0.496223 
Rotational constants in MHz : 29116.336959 25183.037604 14876.392921 

 Dipole components along the rotational axes: 
x,y,z [a.u.] :     0.000000     1.056379     0.000000 
x,y,z [Debye]:     0.000000     2.685103     0.000000 

 

Timings for individual modules:

Sum of individual times         ...       53.767 sec (=   0.896 min)
GTO integral calculation        ...        3.011 sec (=   0.050 min)   5.6 %
SCF iterations                  ...       50.756 sec (=   0.846 min)  94.4 %
                             ****ORCA TERMINATED NORMALLY****
TOTAL RUN TIME: 0 days 0 hours 0 minutes 55 seconds 776 msec
