
                                 *****************
                                 * O   R   C   A *
                                 *****************

                                            #,                                       
                                            ###                                      
                                            ####                                     
                                            #####                                    
                                            ######                                   
                                           ########,                                 
                                     ,,################,,,,,                         
                               ,,#################################,,                 
                          ,,##########################################,,             
                       ,#########################################, ''#####,          
                    ,#############################################,,   '####,        
                  ,##################################################,,,,####,       
                ,###########''''           ''''###############################       
              ,#####''   ,,,,##########,,,,          '''####'''          '####       
            ,##' ,,,,###########################,,,                        '##       
           ' ,,###''''                  '''############,,,                           
         ,,##''                                '''############,,,,        ,,,,,,###''
      ,#''                                            '''#######################'''  
     '                                                          ''''####''''         
             ,#######,   #######,   ,#######,      ##                                
            ,#'     '#,  ##    ##  ,#'     '#,    #''#        ######   ,####,        
            ##       ##  ##   ,#'  ##            #'  '#       #        #'  '#        
            ##       ##  #######   ##           ,######,      #####,   #    #        
            '#,     ,#'  ##    ##  '#,     ,#' ,#      #,         ##   #,  ,#        
             '#######'   ##     ##  '#######'  #'      '#     #####' # '####'        



                  #######################################################
                  #                        -***-                        #
                  #          Department of theory and spectroscopy      #
                  #    Directorship and core code : Frank Neese         #
                  #        Max Planck Institute fuer Kohlenforschung    #
                  #                Kaiser Wilhelm Platz 1               #
                  #                 D-45470 Muelheim/Ruhr               #
                  #                      Germany                        #
                  #                                                     #
                  #                  All rights reserved                #
                  #                        -***-                        #
                  #######################################################


                         Program Version 5.0.3 -  RELEASE  -


 With contributions from (in alphabetic order):
   Daniel Aravena         : Magnetic Suceptibility
   Michael Atanasov       : Ab Initio Ligand Field Theory (pilot matlab implementation)
   Alexander A. Auer      : GIAO ZORA, VPT2 properties, NMR spectrum
   Ute Becker             : Parallelization
   Giovanni Bistoni       : ED, misc. LED, open-shell LED, HFLD
   Martin Brehm           : Molecular dynamics
   Dmytro Bykov           : SCF Hessian
   Vijay G. Chilkuri      : MRCI spin determinant printing, contributions to CSF-ICE
   Dipayan Datta          : RHF DLPNO-CCSD density
   Achintya Kumar Dutta   : EOM-CC, STEOM-CC
   Dmitry Ganyushin       : Spin-Orbit,Spin-Spin,Magnetic field MRCI
   Miquel Garcia          : C-PCM and meta-GGA Hessian, CC/C-PCM, Gaussian charge scheme
   Yang Guo               : DLPNO-NEVPT2, F12-NEVPT2, CIM, IAO-localization
   Andreas Hansen         : Spin unrestricted coupled pair/coupled cluster methods
   Benjamin Helmich-Paris : MC-RPA, TRAH-SCF, COSX integrals
   Lee Huntington         : MR-EOM, pCC
   Robert Izsak           : Overlap fitted RIJCOSX, COSX-SCS-MP3, EOM
   Marcus Kettner         : VPT2
   Christian Kollmar      : KDIIS, OOCD, Brueckner-CCSD(T), CCSD density, CASPT2, CASPT2-K
   Simone Kossmann        : Meta GGA functionals, TD-DFT gradient, OOMP2, MP2 Hessian
   Martin Krupicka        : Initial AUTO-CI
   Lucas Lang             : DCDCAS
   Marvin Lechner         : AUTO-CI (C++ implementation), FIC-MRCC
   Dagmar Lenk            : GEPOL surface, SMD
   Dimitrios Liakos       : Extrapolation schemes; Compound Job, initial MDCI parallelization
   Dimitrios Manganas     : Further ROCIS development; embedding schemes
   Dimitrios Pantazis     : SARC Basis sets
   Anastasios Papadopoulos: AUTO-CI, single reference methods and gradients
   Taras Petrenko         : DFT Hessian,TD-DFT gradient, ASA, ECA, R-Raman, ABS, FL, XAS/XES, NRVS
   Peter Pinski           : DLPNO-MP2, DLPNO-MP2 Gradient
   Christoph Reimann      : Effective Core Potentials
   Marius Retegan         : Local ZFS, SOC
   Christoph Riplinger    : Optimizer, TS searches, QM/MM, DLPNO-CCSD(T), (RO)-DLPNO pert. Triples
   Tobias Risthaus        : Range-separated hybrids, TD-DFT gradient, RPA, STAB
   Michael Roemelt        : Original ROCIS implementation
   Masaaki Saitow         : Open-shell DLPNO-CCSD energy and density
   Barbara Sandhoefer     : DKH picture change effects
   Avijit Sen             : IP-ROCIS
   Kantharuban Sivalingam : CASSCF convergence, NEVPT2, FIC-MRCI
   Bernardo de Souza      : ESD, SOC TD-DFT
   Georgi Stoychev        : AutoAux, RI-MP2 NMR, DLPNO-MP2 response
   Willem Van den Heuvel  : Paramagnetic NMR
   Boris Wezisla          : Elementary symmetry handling
   Frank Wennmohs         : Technical directorship


 We gratefully acknowledge several colleagues who have allowed us to
 interface, adapt or use parts of their codes:
   Stefan Grimme, W. Hujo, H. Kruse, P. Pracht,  : VdW corrections, initial TS optimization,
                  C. Bannwarth, S. Ehlert          DFT functionals, gCP, sTDA/sTD-DF
   Ed Valeev, F. Pavosevic, A. Kumar             : LibInt (2-el integral package), F12 methods
   Garnet Chan, S. Sharma, J. Yang, R. Olivares  : DMRG
   Ulf Ekstrom                                   : XCFun DFT Library
   Mihaly Kallay                                 : mrcc  (arbitrary order and MRCC methods)
   Jiri Pittner, Ondrej Demel                    : Mk-CCSD
   Frank Weinhold                                : gennbo (NPA and NBO analysis)
   Christopher J. Cramer and Donald G. Truhlar   : smd solvation model
   Lars Goerigk                                  : TD-DFT with DH, B97 family of functionals
   V. Asgeirsson, H. Jonsson                     : NEB implementation
   FAccTs GmbH                                   : IRC, NEB, NEB-TS, DLPNO-Multilevel, CI-OPT
                                                   MM, QMMM, 2- and 3-layer-ONIOM, Crystal-QMMM,
                                                   LR-CPCM, SF, NACMEs, symmetry and pop. for TD-DFT,
                                                   nearIR, NL-DFT gradient (VV10), updates on ESD,
                                                   ML-optimized integration grids
   S Lehtola, MJT Oliveira, MAL Marques          : LibXC Library
   Liviu Ungur et al                             : ANISO software


 Your calculation uses the libint2 library for the computation of 2-el integrals
 For citations please refer to: http://libint.valeyev.net

 Your ORCA version has been built with support for libXC version: 5.1.0
 For citations please refer to: https://tddft.org/programs/libxc/

 This ORCA versions uses:
   CBLAS   interface :  Fast vector & matrix operations
   LAPACKE interface :  Fast linear algebra routines
   SCALAPACK package :  Parallel linear algebra routines
   Shared memory     :  Shared parallel matrices
   BLAS/LAPACK       :  OpenBLAS 0.3.15  USE64BITINT DYNAMIC_ARCH NO_AFFINITY Haswell SINGLE_THREADED
        Core in use  :  Haswell
   Copyright (c) 2011-2014, The OpenBLAS Project




***************************************
The coordinates will be read from file: heptatriyne.xyz
***************************************


Your calculation utilizes the geometrical counterpoise correction gCP
Please cite in your paper:
H.Kruse, S. Grimme J.Chem.Phys., 136, (2012), 154101 
   

Your calculation utilizes the atom-pairwise dispersion correction
with the Becke-Johnson damping scheme (D3BJ)
Cite in your paper:
S.Grimme, S.Ehrlich, L.Goerigk, J Comput Chem, (2011), 32, 1456–1465 
S.Grimme, J.Antony, S.Ehrlich and H.Krieg, J.Chem.Phys., 132, (2010), 154104 
   

Your calculation employs the composite approach PBEh-3c.
Please cite in your paper:
S. Grimme, J. G. Brandenburg, C. Bannwarth, A. Hansen J.Chem.Phys., 143, (2015), 054107 
   

================================================================================

----- Orbital basis set information -----
Your calculation utilizes the basis: def2-mSVP

----- AuxJ basis set information -----
Your calculation utilizes the auxiliary basis: def2/J
   F. Weigend, Phys. Chem. Chem. Phys. 8, 1057 (2006).

================================================================================
                                        WARNINGS
                       Please study these warnings very carefully!
================================================================================


INFO   : the flag for use of the SHARK integral package has been found!

================================================================================
                                       INPUT FILE
================================================================================
NAME = pbeh-3c.inp
|  1> ! PBEh-3c def2/J TightSCF DefGrid3
|  2> 
|  3> %maxcore 60000
|  4> 
|  5> %pal
|  6> nprocs 4
|  7> end
|  8> 
|  9> *xyzfile 0 1 heptatriyne.xyz
| 10> 
| 11>                          ****END OF INPUT****
================================================================================

                       ****************************
                       * Single Point Calculation *
                       ****************************

---------------------------------
CARTESIAN COORDINATES (ANGSTROEM)
---------------------------------
  C      0.000000    0.000000   -4.573717
  C      0.000000    0.000000   -3.365883
  C      0.000000    0.000000   -2.010632
  C      0.000000    0.000000   -0.794302
  C      0.000000    0.000000    0.559893
  C      0.000000    0.000000    1.770067
  C      0.000000    0.000000    3.219602
  H      0.000000    0.000000   -5.636029
  H     -0.510359   -0.883968    3.610334
  H     -0.510359    0.883968    3.610334
  H      1.020718    0.000000    3.610334

----------------------------
CARTESIAN COORDINATES (A.U.)
----------------------------
  NO LB      ZA    FRAG     MASS         X           Y           Z
   0 C     6.0000    0    12.011    0.000000    0.000000   -8.643072
   1 C     6.0000    0    12.011    0.000000    0.000000   -6.360598
   2 C     6.0000    0    12.011    0.000000    0.000000   -3.799545
   3 C     6.0000    0    12.011    0.000000    0.000000   -1.501014
   4 C     6.0000    0    12.011    0.000000    0.000000    1.058043
   5 C     6.0000    0    12.011    0.000000    0.000000    3.344941
   6 C     6.0000    0    12.011    0.000000    0.000000    6.084165
   7 H     1.0000    0     1.008    0.000000    0.000000  -10.650551
   8 H     1.0000    0     1.008   -0.964439   -1.670457    6.822543
   9 H     1.0000    0     1.008   -0.964439    1.670457    6.822543
  10 H     1.0000    0     1.008    1.928878    0.000000    6.822543

--------------------------------
INTERNAL COORDINATES (ANGSTROEM)
--------------------------------
 C      0   0   0     0.000000000000     0.00000000     0.00000000
 C      1   0   0     1.207833500000     0.00000000     0.00000000
 C      2   1   0     1.355250900000   179.99999915     0.00000000
 C      3   2   1     1.216330100000   180.00000000     0.00000000
 C      4   3   2     1.354194900000   179.99999915     0.00000000
 C      5   4   3     1.210174200000   180.00000000     0.00000000
 C      6   5   4     1.449534900000   180.00000000     0.00000000
 H      1   2   3     1.062311800000   179.99999879     0.00000000
 H      7   6   5     1.092949248156   110.94693493     0.00000000
 H      7   6   5     1.092949248156   110.94693493     0.00000000
 H      7   6   5     1.092949206940   110.94693575     0.00000000

---------------------------
INTERNAL COORDINATES (A.U.)
---------------------------
 C      0   0   0     0.000000000000     0.00000000     0.00000000
 C      1   0   0     2.282474530376     0.00000000     0.00000000
 C      2   1   0     2.561053043750   179.99999915     0.00000000
 C      3   2   1     2.298530777445   180.00000000     0.00000000
 C      4   3   2     2.559057492953   179.99999915     0.00000000
 C      5   4   3     2.286897812337   180.00000000     0.00000000
 C      6   5   4     2.739223982561   180.00000000     0.00000000
 H      1   2   3     2.007478370833   179.99999879     0.00000000
 H      7   6   5     2.065374757290   110.94693493     0.00000000
 H      7   6   5     2.065374757290   110.94693493     0.00000000
 H      7   6   5     2.065374679403   110.94693575     0.00000000

---------------------
BASIS SET INFORMATION
---------------------
There are 2 groups of distinct atoms

 Group   1 Type C   : 8s4p1d contracted to 4s2p1d pattern {5111/31/1}
 Group   2 Type H   : 4s contracted to 2s pattern {31}

Atom   0C    basis set group =>   1
Atom   1C    basis set group =>   1
Atom   2C    basis set group =>   1
Atom   3C    basis set group =>   1
Atom   4C    basis set group =>   1
Atom   5C    basis set group =>   1
Atom   6C    basis set group =>   1
Atom   7H    basis set group =>   2
Atom   8H    basis set group =>   2
Atom   9H    basis set group =>   2
Atom  10H    basis set group =>   2
---------------------------------
AUXILIARY/J BASIS SET INFORMATION
---------------------------------
There are 2 groups of distinct atoms

 Group   1 Type C   : 12s5p4d2f1g contracted to 6s4p3d1f1g pattern {711111/2111/211/2/1}
 Group   2 Type H   : 5s2p1d contracted to 3s1p1d pattern {311/2/1}

Atom   0C    basis set group =>   1
Atom   1C    basis set group =>   1
Atom   2C    basis set group =>   1
Atom   3C    basis set group =>   1
Atom   4C    basis set group =>   1
Atom   5C    basis set group =>   1
Atom   6C    basis set group =>   1
Atom   7H    basis set group =>   2
Atom   8H    basis set group =>   2
Atom   9H    basis set group =>   2
Atom  10H    basis set group =>   2


           ************************************************************
           *        Program running with 4 parallel MPI-processes     *
           *              working on a common directory               *
           ************************************************************
------------------------------------------------------------------------------
                           ORCA GTO INTEGRAL CALCULATION
                           -- RI-GTO INTEGRALS CHOSEN --
------------------------------------------------------------------------------
------------------------------------------------------------------------------
                   ___                                                        
                  /   \      - P O W E R E D   B Y -                         
                 /     \                                                     
                 |  |  |   _    _      __       _____    __    __             
                 |  |  |  | |  | |    /  \     |  _  \  |  |  /  |          
                  \  \/   | |  | |   /    \    | | | |  |  | /  /          
                 / \  \   | |__| |  /  /\  \   | |_| |  |  |/  /          
                |  |  |   |  __  | /  /__\  \  |    /   |      \           
                |  |  |   | |  | | |   __   |  |    \   |  |\   \          
                \     /   | |  | | |  |  |  |  | |\  \  |  | \   \       
                 \___/    |_|  |_| |__|  |__|  |_| \__\ |__|  \__/        
                                                                              
                      - O R C A' S   B I G   F R I E N D -                    
                                      &                                       
                       - I N T E G R A L  F E E D E R -                       
                                                                              
 v1 FN, 2020, v2 2021                                                         
------------------------------------------------------------------------------


Reading SHARK input file pbeh-3c.SHARKINP.tmp ... ok
----------------------
SHARK INTEGRAL PACKAGE
----------------------

Number of atoms                             ...     11
Number of basis functions                   ...    113
Number of shells                            ...     57
Maximum angular momentum                    ...      2
Integral batch strategy                     ... SHARK/LIBINT Hybrid
RI-J (if used) integral strategy            ... SPLIT-RIJ (Revised 2003 algorithm where possible)
Printlevel                                  ...      1
Contraction scheme used                     ... SEGMENTED contraction
Coulomb Range Separation                    ... NOT USED
Exchange Range Separation                   ... NOT USED
Finite Nucleus Model                        ... NOT USED
Auxiliary Coulomb fitting basis             ... AVAILABLE
   # of basis functions in Aux-J            ...    387
   # of shells in Aux-J                     ...    125
   Maximum angular momentum in Aux-J        ...      4
Auxiliary J/K fitting basis                 ... NOT available
Auxiliary Correlation fitting basis         ... NOT available
Auxiliary 'external' fitting basis          ... NOT available
Integral threshold                          ...     2.500000e-11
Primitive cut-off                           ...     2.500000e-12
Primitive pair pre-selection threshold      ...     2.500000e-12

Calculating pre-screening integrals         ... done (  0.0 sec) Dimension = 57
Organizing shell pair data                  ... done (  0.3 sec)
Shell pair information
Total number of shell pairs                 ...      1653
Shell pairs after pre-screening             ...      1309
Total number of primitive shell pairs       ...      5881
Primitive shell pairs kept                  ...      3368
          la=0 lb=0:    467 shell pairs
          la=1 lb=0:    444 shell pairs
          la=1 lb=1:    102 shell pairs
          la=2 lb=0:    182 shell pairs
          la=2 lb=1:     92 shell pairs
          la=2 lb=2:     22 shell pairs

Calculating one electron integrals          ... done (  0.0 sec)
Calculating RI/J V-Matrix + Cholesky decomp.... done (  0.2 sec)
Calculating Nuclear repulsion               ... done (  0.0 sec) ENN=    195.137145167750 Eh

SHARK setup successfully completed in   2.1 seconds

Maximum memory used throughout the entire GTOINT-calculation: 10.0 MB


           ************************************************************
           *        Program running with 4 parallel MPI-processes     *
           *              working on a common directory               *
           ************************************************************
-------------------------------------------------------------------------------
                                 ORCA SCF
-------------------------------------------------------------------------------

------------
SCF SETTINGS
------------
Hamiltonian:
 Density Functional     Method          .... DFT(GTOs)
 Exchange Functional    Exchange        .... PBE
   PBE kappa parameter   XKappa         ....  1.024500
   PBE mue parameter    XMuePBE         ....  0.123457
 Correlation Functional Correlation     .... PBE
   PBE beta parameter  CBetaPBE         ....  0.030000
 LDA part of GGA corr.  LDAOpt          .... PW91-LDA
 Gradients option       PostSCFGGA      .... off
 Hybrid DFT is turned on
   Fraction HF Exchange ScalHFX         ....  0.420000
   Scaling of DF-GGA-X  ScalDFX         ....  0.580000
   Scaling of DF-GGA-C  ScalDFC         ....  1.000000
   Scaling of DF-LDA-C  ScalLDAC        ....  1.000000
   Perturbative correction              ....  0.000000
   Density functional embedding theory  .... OFF
 RI-approximation to the Coulomb term is turned on
   Number of AuxJ basis functions       .... 387
   RIJ-ON(X) (HFX calculated with O(N)) .... on
   Number of AuxJ basis functions       .... 387
   RIJ-COSX (HFX calculated with COS-X)).... on


General Settings:
 Integral files         IntName         .... pbeh-3c
 Hartree-Fock type      HFTyp           .... RHF
 Total Charge           Charge          ....    0
 Multiplicity           Mult            ....    1
 Number of Electrons    NEL             ....   46
 Basis Dimension        Dim             ....  113
 Nuclear Repulsion      ENuc            ....    195.1371451678 Eh

Convergence Acceleration:
 DIIS                   CNVDIIS         .... on
   Start iteration      DIISMaxIt       ....    12
   Startup error        DIISStart       ....  0.200000
   # of expansion vecs  DIISMaxEq       ....     5
   Bias factor          DIISBfac        ....   1.050
   Max. coefficient     DIISMaxC        ....  10.000
 Trust-Rad. Augm. Hess. CNVTRAH         .... auto
   Auto Start mean grad. ratio tolernc. ....  1.125000
   Auto Start start iteration           ....    20
   Auto Start num. interpolation iter.  ....    10
   Max. Number of Micro iterations      ....    16
   Max. Number of Macro iterations      .... Maxiter - #DIIS iter
   Number of Davidson start vectors     ....     2
   Converg. threshold I  (grad. norm)   ....   1.000e-05
   Converg. threshold II (energy diff.) ....   1.000e-08
   Grad. Scal. Fac. for Micro threshold ....   0.100
   Minimum threshold for Micro iter.    ....   0.010
   NR start threshold (gradient norm)   ....   0.001
   Initial trust radius                 ....   0.400
   Minimum AH scaling param. (alpha)    ....   1.000
   Maximum AH scaling param. (alpha)    .... 1000.000
   Orbital update algorithm             .... Taylor
   White noise on init. David. guess    .... on
   Maximum white noise                  ....   0.010
   Quad. conv. algorithm                .... NR
   COSX micro iterations for RIJONX calc.... off
 SOSCF                  CNVSOSCF        .... on
   Start iteration      SOSCFMaxIt      ....   150
   Startup grad/error   SOSCFStart      ....  0.003300
 Level Shifting         CNVShift        .... on
   Level shift para.    LevelShift      ....    0.2500
   Turn off err/grad.   ShiftErr        ....    0.0010
 Zerner damping         CNVZerner       .... off
 Static damping         CNVDamp         .... on
   Fraction old density DampFac         ....    0.7000
   Max. Damping (<1)    DampMax         ....    0.9800
   Min. Damping (>=0)   DampMin         ....    0.0000
   Turn off err/grad.   DampErr         ....    0.1000
 Fernandez-Rico         CNVRico         .... off

SCF Procedure:
 Maximum # iterations   MaxIter         ....   125
 SCF integral mode      SCFMode         .... Direct
   Integral package                     .... SHARK and LIBINT hybrid scheme
 Reset frequency        DirectResetFreq ....    20
 Integral Threshold     Thresh          ....  2.500e-11 Eh
 Primitive CutOff       TCut            ....  2.500e-12 Eh

Convergence Tolerance:
 Convergence Check Mode ConvCheckMode   .... Total+1el-Energy
 Convergence forced     ConvForced      .... 0
 Energy Change          TolE            ....  1.000e-08 Eh
 1-El. energy change                    ....  1.000e-05 Eh
 Orbital Gradient       TolG            ....  1.000e-05
 Orbital Rotation angle TolX            ....  1.000e-05
 DIIS Error             TolErr          ....  5.000e-07


Diagonalization of the overlap matrix:
Smallest eigenvalue                        ... 3.494e-04
Time for diagonalization                   ...    0.002 sec
Threshold for overlap eigenvalues          ... 1.000e-08
Number of eigenvalues below threshold      ... 0
Time for construction of square roots      ...    0.261 sec
Total time needed                          ...    0.297 sec

--------------------------------
INITIAL GUESS: MINIMAL BASIS EHT
--------------------------------
The minimal basis has 39 functions
EHT matrix was diagonalized
Basis set overlap was calculated now projecting the orbitals
Using GuessMode=FMatrix for the initial guess
C*T matrix was formed
Effective Fockian was calculated
Effective Fockian was diagonalized
Initial density was built
                      ------------------
                      INITIAL GUESS DONE
                      ------------------
-------------------
DFT GRID GENERATION
-------------------

General Integration Accuracy     IntAcc      ... 4.959
Radial Grid Type                 RadialGrid  ... OptM3 with GC (2021)
Angular Grid (max. ang.)         AngularGrid ... 6 (Lebedev-590)
Angular grid pruning method      GridPruning ... 4 (adaptive)
Weight generation scheme         WeightScheme... Becke
Basis function cutoff            BFCut       ... 1.0000e-11
Integration weight cutoff        WCut        ... 1.0000e-14
Angular grids for H and He will be reduced by one unit
Partially contracted basis set               ... off
Rotationally invariant grid construction     ... off

Total number of grid points                  ...   136349
Total number of batches                      ...     2135
Average number of points per batch           ...       63
Average number of grid points per atom       ...    12395
Time for grid setup =    3.040 sec

--------------------
COSX GRID GENERATION
--------------------

GRIDX 1
-------
General Integration Accuracy     IntAcc      ... 4.020
Radial Grid Type                 RadialGrid  ... OptM3 with GC (2021)
Angular Grid (max. ang.)         AngularGrid ... 2 (Lebedev-110)
Angular grid pruning method      GridPruning ... 4 (adaptive)
Weight generation scheme         WeightScheme... Becke
Basis function cutoff            BFCut       ... 1.0000e-11
Integration weight cutoff        WCut        ... 1.0000e-14
Angular grids for H and He will be reduced by one unit
Partially contracted basis set               ... on
Rotationally invariant grid construction     ... off

Total number of grid points                  ...    16014
Total number of batches                      ...      257
Average number of points per batch           ...       62
Average number of grid points per atom       ...     1456
UseSFitting                                  ... on

GRIDX 2
-------
General Integration Accuracy     IntAcc      ... 4.338
Radial Grid Type                 RadialGrid  ... OptM3 with GC (2021)
Angular Grid (max. ang.)         AngularGrid ... 3 (Lebedev-194)
Angular grid pruning method      GridPruning ... 4 (adaptive)
Weight generation scheme         WeightScheme... Becke
Basis function cutoff            BFCut       ... 1.0000e-11
Integration weight cutoff        WCut        ... 1.0000e-14
Angular grids for H and He will be reduced by one unit
Partially contracted basis set               ... on
Rotationally invariant grid construction     ... off

Total number of grid points                  ...    35397
Total number of batches                      ...      559
Average number of points per batch           ...       63
Average number of grid points per atom       ...     3218
UseSFitting                                  ... on

GRIDX 3
-------
General Integration Accuracy     IntAcc      ... 4.871
Radial Grid Type                 RadialGrid  ... OptM3 with GC (2021)
Angular Grid (max. ang.)         AngularGrid ... 4 (Lebedev-302)
Angular grid pruning method      GridPruning ... 4 (adaptive)
Weight generation scheme         WeightScheme... Becke
Basis function cutoff            BFCut       ... 1.0000e-11
Integration weight cutoff        WCut        ... 1.0000e-14
Angular grids for H and He will be reduced by one unit
Partially contracted basis set               ... on
Rotationally invariant grid construction     ... off

Total number of grid points                  ...    66203
Total number of batches                      ...     1039
Average number of points per batch           ...       63
Average number of grid points per atom       ...     6018
UseSFitting                                  ... on

Time for X-Grid setup             =    3.729 sec

--------------
SCF ITERATIONS
--------------
ITER       Energy         Delta-E        Max-DP      RMS-DP      [F,P]     Damp
               ***  Starting incremental Fock matrix formation  ***
  0   -267.2875553632   0.000000000000 0.25385090  0.00774433  0.6579618 0.7000
  1   -267.5931346545  -0.305579291378 0.19264326  0.00566875  0.4722373 0.7000
  2   -267.8119208080  -0.218786153506 0.14281535  0.00409008  0.3351784 0.7000
  3   -267.9677083196  -0.155787511598 0.10494026  0.00294915  0.2375913 0.7000
                               ***Turning on DIIS***
  4   -268.0783945181  -0.110686198431 0.07656080  0.00212849  0.1682482 0.7000
  5   -268.1568066162  -0.078412098123 0.05829862  0.00161350  0.1190619 0.7000
  6   -268.2122332334  -0.055426617157 0.14060841  0.00388840  0.0837729 0.0000
                      *** Initiating the SOSCF procedure ***
                           *** Shutting down DIIS ***
                      *** Re-Reading the Fockian *** 
                      *** Removing any level shift *** 
ITER      Energy       Delta-E        Grad      Rot      Max-DP    RMS-DP
  7   -268.34369564  -0.1314624080  0.001064  0.001064  0.001844  0.000092
               *** Restarting incremental Fock matrix formation ***
  8   -268.34373597  -0.0000403309  0.000404  0.000530  0.001044  0.000049
  9   -268.34374016  -0.0000041922  0.000082  0.000150  0.000267  0.000014
 10   -268.34374020  -0.0000000395  0.000087  0.000096  0.000123  0.000006
 11   -268.34374032  -0.0000001201  0.000022  0.000034  0.000053  0.000003
 12   -268.34374033  -0.0000000095  0.000011  0.000029  0.000030  0.000001
 13   -268.34374034  -0.0000000032  0.000009  0.000019  0.000018  0.000001
 14   -268.34374034   0.0000000002  0.000004  0.000006  0.000010  0.000000
                 **** Energy Check signals convergence ****
              ***Rediagonalizing the Fockian in SOSCF/NRSCF***

               *****************************************************
               *                     SUCCESS                       *
               *           SCF CONVERGED AFTER  15 CYCLES          *
               *****************************************************

Old exchange energy                            =    -15.751820031 Eh
New exchange energy                            =    -15.751821791 Eh
Exchange energy change after final integration =     -0.000001760 Eh
Total energy after final integration           =   -268.343742097 Eh
Final COS-X integration done in                =     2.144 sec

----------------
TOTAL SCF ENERGY
----------------

Total Energy       :         -268.34374210 Eh           -7302.00445 eV

Components:
Nuclear Repulsion  :          195.13714517 Eh            5309.95167 eV
Electronic Energy  :         -463.48088727 Eh          -12611.95612 eV
One Electron Energy:         -745.76802888 Eh          -20293.37976 eV
Two Electron Energy:          282.28714162 Eh            7681.42364 eV
Max COSX asymmetry :            0.00000071 Eh               0.00002 eV

Virial components:
Potential Energy   :         -534.49090964 Eh          -14544.23707 eV
Kinetic Energy     :          266.14716755 Eh            7242.23262 eV
Virial Ratio       :            2.00825323


DFT components:
N(Alpha)           :       23.000000154840 electrons
N(Beta)            :       23.000000154840 electrons
N(Total)           :       46.000000309679 electrons
E(X)               :      -20.940555798387 Eh       
E(C)               :       -1.957612192987 Eh       
E(XC)              :      -22.898167991374 Eh       
DFET-embed. en.    :        0.000000000000 Eh       

---------------
SCF CONVERGENCE
---------------

  Last Energy change         ...   -6.9298e-10  Tolerance :   1.0000e-08
  Last MAX-Density change    ...    1.4433e-15  Tolerance :   1.0000e-07
  Last RMS-Density change    ...    5.6049e-17  Tolerance :   5.0000e-09
  Last Orbital Gradient      ...    8.9313e-07  Tolerance :   1.0000e-05
  Last Orbital Rotation      ...    1.0456e-06  Tolerance :   1.0000e-05

             **** THE GBW FILE WAS UPDATED (pbeh-3c.gbw) ****
             **** DENSITY pbeh-3c.scfp WAS UPDATED ****
             **** ENERGY FILE WAS UPDATED (pbeh-3c.en.tmp) ****
             **** THE GBW FILE WAS UPDATED (pbeh-3c.gbw) ****
             **** DENSITY pbeh-3c.scfp WAS UPDATED ****
----------------
ORBITAL ENERGIES
----------------

  NO   OCC          E(Eh)            E(eV) 
   0   2.0000     -10.488047      -285.3943 
   1   2.0000     -10.483388      -285.2675 
   2   2.0000     -10.482459      -285.2422 
   3   2.0000     -10.480142      -285.1792 
   4   2.0000     -10.475249      -285.0460 
   5   2.0000     -10.471916      -284.9553 
   6   2.0000     -10.471521      -284.9446 
   7   2.0000      -0.917584       -24.9687 
   8   2.0000      -0.893376       -24.3100 
   9   2.0000      -0.854768       -23.2594 
  10   2.0000      -0.807742       -21.9798 
  11   2.0000      -0.723058       -19.6754 
  12   2.0000      -0.654176       -17.8010 
  13   2.0000      -0.590658       -16.0726 
  14   2.0000      -0.541506       -14.7351 
  15   2.0000      -0.507433       -13.8079 
  16   2.0000      -0.507433       -13.8079 
  17   2.0000      -0.428611       -11.6631 
  18   2.0000      -0.428611       -11.6631 
  19   2.0000      -0.365896        -9.9565 
  20   2.0000      -0.365896        -9.9565 
  21   2.0000      -0.281114        -7.6495 
  22   2.0000      -0.281113        -7.6495 
  23   0.0000      -0.031768        -0.8645 
  24   0.0000      -0.031768        -0.8645 
  25   0.0000       0.102159         2.7799 
  26   0.0000       0.102159         2.7799 
  27   0.0000       0.137732         3.7479 
  28   0.0000       0.171405         4.6642 
  29   0.0000       0.204635         5.5684 
  30   0.0000       0.204636         5.5684 
  31   0.0000       0.206810         5.6276 
  32   0.0000       0.225052         6.1240 
  33   0.0000       0.247891         6.7455 
  34   0.0000       0.282483         7.6868 
  35   0.0000       0.282483         7.6868 
  36   0.0000       0.286915         7.8074 
  37   0.0000       0.376977        10.2581 
  38   0.0000       0.398066        10.8319 
  39   0.0000       0.411973        11.2104 
  40   0.0000       0.480438        13.0734 
  41   0.0000       0.480440        13.0734 
  42   0.0000       0.509400        13.8615 
  43   0.0000       0.509405        13.8616 
  44   0.0000       0.548719        14.9314 
  45   0.0000       0.548724        14.9315 
  46   0.0000       0.606354        16.4997 
  47   0.0000       0.606356        16.4998 
  48   0.0000       0.625108        17.0100 
  49   0.0000       0.691019        18.8036 
  50   0.0000       0.691019        18.8036 
  51   0.0000       0.702232        19.1087 
  52   0.0000       0.788361        21.4524 
  53   0.0000       0.788362        21.4524 
  54   0.0000       0.806195        21.9377 
  55   0.0000       0.892065        24.2743 
  56   0.0000       0.910027        24.7631 
  57   0.0000       0.910028        24.7631 
  58   0.0000       0.938539        25.5389 
  59   0.0000       0.995285        27.0831 
  60   0.0000       0.995286        27.0831 
  61   0.0000       1.021857        27.8061 
  62   0.0000       1.028244        27.9799 
  63   0.0000       1.115335        30.3498 
  64   0.0000       1.227570        33.4039 
  65   0.0000       1.327872        36.1332 
  66   0.0000       1.327872        36.1332 
  67   0.0000       1.352568        36.8052 
  68   0.0000       1.415304        38.5124 
  69   0.0000       1.450488        39.4698 
  70   0.0000       1.482354        40.3369 
  71   0.0000       1.482355        40.3369 
  72   0.0000       1.507355        41.0172 
  73   0.0000       1.547902        42.1206 
  74   0.0000       1.547903        42.1206 
  75   0.0000       1.566690        42.6318 
  76   0.0000       1.566690        42.6318 
  77   0.0000       1.606395        43.7122 
  78   0.0000       1.627001        44.2730 
  79   0.0000       1.641658        44.6718 
  80   0.0000       1.641659        44.6718 
  81   0.0000       1.755033        47.7569 
  82   0.0000       1.755033        47.7569 
  83   0.0000       1.861588        50.6564 
  84   0.0000       1.861589        50.6564 
  85   0.0000       1.981848        53.9288 
  86   0.0000       1.981848        53.9288 
  87   0.0000       2.021855        55.0175 
  88   0.0000       2.021855        55.0175 
  89   0.0000       2.108975        57.3881 
  90   0.0000       2.108976        57.3882 
  91   0.0000       2.175055        59.1862 
  92   0.0000       2.259310        61.4789 
  93   0.0000       2.259310        61.4790 
  94   0.0000       2.437038        66.3152 
  95   0.0000       2.437038        66.3152 
  96   0.0000       2.484912        67.6179 
  97   0.0000       2.840143        77.2842 
  98   0.0000       2.866873        78.0116 
  99   0.0000       2.866874        78.0116 
 100   0.0000       3.119637        84.8896 
 101   0.0000       3.336881        90.8012 
 102   0.0000       3.336881        90.8012 
 103   0.0000       3.422019        93.1179 
 104   0.0000       3.793327       103.2217 
 105   0.0000       4.044424       110.0544 
 106   0.0000      13.162492       358.1696 
 107   0.0000      13.813772       375.8918 
 108   0.0000      13.880698       377.7130 
 109   0.0000      14.029310       381.7569 
 110   0.0000      14.348664       390.4470 
 111   0.0000      14.788155       402.4061 
 112   0.0000      15.657073       426.0506 

                    ********************************
                    * MULLIKEN POPULATION ANALYSIS *
                    ********************************

-----------------------
MULLIKEN ATOMIC CHARGES
-----------------------
   0 C :   -0.499492
   1 C :    0.140778
   2 C :    0.051381
   3 C :    0.036987
   4 C :    0.055197
   5 C :    0.018889
   6 C :   -0.815805
   7 H :    0.231789
   8 H :    0.260093
   9 H :    0.260093
  10 H :    0.260092
Sum of atomic charges:    0.0000000

--------------------------------
MULLIKEN REDUCED ORBITAL CHARGES
--------------------------------
  0 C s       :     3.558112  s :     3.558112
      pz      :     0.941019  p :     2.915036
      px      :     0.987008
      py      :     0.987009
      dz2     :     0.011781  d :     0.026343
      dxz     :     0.007281
      dyz     :     0.007281
      dx2y2   :     0.000000
      dxy     :     0.000000
  1 C s       :     3.351643  s :     3.351643
      pz      :     0.485107  p :     2.471247
      px      :     0.993070
      py      :     0.993070
      dz2     :     0.009517  d :     0.036333
      dxz     :     0.013408
      dyz     :     0.013408
      dx2y2   :     0.000000
      dxy     :     0.000000
  2 C s       :     3.475479  s :     3.475479
      pz      :     0.429945  p :     2.437299
      px      :     1.003677
      py      :     1.003677
      dz2     :     0.009919  d :     0.035841
      dxz     :     0.012961
      dyz     :     0.012961
      dx2y2   :     0.000000
      dxy     :     0.000000
  3 C s       :     3.482770  s :     3.482770
      pz      :     0.465412  p :     2.442685
      px      :     0.988637
      py      :     0.988636
      dz2     :     0.009800  d :     0.037558
      dxz     :     0.013879
      dyz     :     0.013879
      dx2y2   :     0.000000
      dxy     :     0.000000
  4 C s       :     3.423112  s :     3.423112
      pz      :     0.444441  p :     2.486512
      px      :     1.021034
      py      :     1.021038
      dz2     :     0.010018  d :     0.035178
      dxz     :     0.012580
      dyz     :     0.012580
      dx2y2   :    -0.000000
      dxy     :    -0.000000
  5 C s       :     3.415068  s :     3.415068
      pz      :     0.633965  p :     2.530440
      px      :     0.948240
      py      :     0.948234
      dz2     :     0.009496  d :     0.035603
      dxz     :     0.013028
      dyz     :     0.013028
      dx2y2   :     0.000025
      dxy     :     0.000025
  6 C s       :     3.470028  s :     3.470028
      pz      :     0.964209  p :     3.307115
      px      :     1.171449
      py      :     1.171457
      dz2     :     0.010844  d :     0.038662
      dxz     :     0.007316
      dyz     :     0.007316
      dx2y2   :     0.006593
      dxy     :     0.006593
  7 H s       :     0.768211  s :     0.768211
  8 H s       :     0.739907  s :     0.739907
  9 H s       :     0.739907  s :     0.739907
 10 H s       :     0.739908  s :     0.739908


                     *******************************
                     * LOEWDIN POPULATION ANALYSIS *
                     *******************************

----------------------
LOEWDIN ATOMIC CHARGES
----------------------
   0 C :   -0.133902
   1 C :   -0.039677
   2 C :   -0.031681
   3 C :   -0.010022
   4 C :   -0.078766
   5 C :   -0.001132
   6 C :   -0.356767
   7 H :    0.171257
   8 H :    0.160231
   9 H :    0.160231
  10 H :    0.160230

-------------------------------
LOEWDIN REDUCED ORBITAL CHARGES
-------------------------------
  0 C s       :     2.989756  s :     2.989756
      pz      :     1.129556  p :     3.095231
      px      :     0.982838
      py      :     0.982838
      dz2     :     0.021518  d :     0.048915
      dxz     :     0.013698
      dyz     :     0.013698
      dx2y2   :     0.000000
      dxy     :     0.000000
  1 C s       :     2.883796  s :     2.883796
      pz      :     1.116840  p :     3.070320
      px      :     0.976740
      py      :     0.976740
      dz2     :     0.026637  d :     0.085562
      dxz     :     0.029462
      dyz     :     0.029462
      dx2y2   :     0.000000
      dxy     :     0.000000
  2 C s       :     2.882134  s :     2.882134
      pz      :     1.094110  p :     3.067117
      px      :     0.986503
      py      :     0.986504
      dz2     :     0.026340  d :     0.082430
      dxz     :     0.028045
      dyz     :     0.028045
      dx2y2   :     0.000000
      dxy     :     0.000000
  3 C s       :     2.883074  s :     2.883074
      pz      :     1.096708  p :     3.041137
      px      :     0.972214
      py      :     0.972214
      dz2     :     0.026002  d :     0.085811
      dxz     :     0.029905
      dyz     :     0.029905
      dx2y2   :     0.000000
      dxy     :     0.000000
  4 C s       :     2.878189  s :     2.878189
      pz      :     1.099686  p :     3.117519
      px      :     1.008915
      py      :     1.008917
      dz2     :     0.027080  d :     0.083059
      dxz     :     0.027989
      dyz     :     0.027989
      dx2y2   :     0.000000
      dxy     :     0.000000
  5 C s       :     2.913393  s :     2.913393
      pz      :     1.115227  p :     3.010874
      px      :     0.947825
      py      :     0.947823
      dz2     :     0.023190  d :     0.076864
      dxz     :     0.026809
      dyz     :     0.026809
      dx2y2   :     0.000028
      dxy     :     0.000028
  6 C s       :     2.935216  s :     2.935216
      pz      :     1.057891  p :     3.347541
      px      :     1.144824
      py      :     1.144826
      dz2     :     0.023903  d :     0.074010
      dxz     :     0.014813
      dyz     :     0.014813
      dx2y2   :     0.010240
      dxy     :     0.010240
  7 H s       :     0.828743  s :     0.828743
  8 H s       :     0.839769  s :     0.839769
  9 H s       :     0.839769  s :     0.839769
 10 H s       :     0.839770  s :     0.839770


                      *****************************
                      * MAYER POPULATION ANALYSIS *
                      *****************************

  NA   - Mulliken gross atomic population
  ZA   - Total nuclear charge
  QA   - Mulliken gross atomic charge
  VA   - Mayer's total valence
  BVA  - Mayer's bonded valence
  FA   - Mayer's free valence

  ATOM       NA         ZA         QA         VA         BVA        FA
  0 C      6.4995     6.0000    -0.4995     3.5514     3.5514    -0.0000
  1 C      5.8592     6.0000     0.1408     3.2996     3.2996     0.0000
  2 C      5.9486     6.0000     0.0514     3.0167     3.0167    -0.0000
  3 C      5.9630     6.0000     0.0370     3.0542     3.0542     0.0000
  4 C      5.9448     6.0000     0.0552     3.1095     3.1095     0.0000
  5 C      5.9811     6.0000     0.0189     3.3888     3.3888    -0.0000
  6 C      6.8158     6.0000    -0.8158     3.6642     3.6642    -0.0000
  7 H      0.7682     1.0000     0.2318     0.9337     0.9337    -0.0000
  8 H      0.7399     1.0000     0.2601     0.8943     0.8943    -0.0000
  9 H      0.7399     1.0000     0.2601     0.8943     0.8943    -0.0000
 10 H      0.7399     1.0000     0.2601     0.8943     0.8943     0.0000

  Mayer bond orders larger than 0.100000
B(  0-C ,  1-C ) :   2.4347 B(  0-C ,  2-C ) :  -0.1666 B(  0-C ,  3-C ) :   0.2144 
B(  0-C ,  7-H ) :   0.9650 B(  1-C ,  2-C ) :   1.0055 B(  1-C ,  3-C ) :  -0.1621 
B(  2-C ,  3-C ) :   2.1024 B(  2-C ,  4-C ) :  -0.1612 B(  2-C ,  5-C ) :   0.2090 
B(  3-C ,  4-C ) :   1.0292 B(  3-C ,  5-C ) :  -0.1521 B(  4-C ,  5-C ) :   2.2536 
B(  4-C ,  6-C ) :  -0.1099 B(  5-C ,  6-C ) :   1.0257 B(  6-C ,  8-H ) :   0.9038 
B(  6-C ,  9-H ) :   0.9038 B(  6-C , 10-H ) :   0.9038 

-------
TIMINGS
-------

Total SCF time: 0 days 0 hours 0 min 54 sec 

Total time                  ....      54.893 sec
Sum of individual times     ....      50.929 sec  ( 92.8%)

Fock matrix formation       ....      42.205 sec  ( 76.9%)
  Split-RI-J                ....       4.993 sec  ( 11.8% of F)
  Chain of spheres X        ....      16.701 sec  ( 39.6% of F)
  XC integration            ....      11.880 sec  ( 28.1% of F)
    Basis function eval.    ....       2.047 sec  ( 17.2% of XC)
    Density eval.           ....       1.275 sec  ( 10.7% of XC)
    XC-Functional eval.     ....       1.141 sec  (  9.6% of XC)
    XC-Potential eval.      ....       0.695 sec  (  5.8% of XC)
Diagonalization             ....       0.518 sec  (  0.9%)
Density matrix formation    ....       0.015 sec  (  0.0%)
Population analysis         ....       0.161 sec  (  0.3%)
Initial guess               ....       0.086 sec  (  0.2%)
Orbital Transformation      ....       0.000 sec  (  0.0%)
Orbital Orthonormalization  ....       0.000 sec  (  0.0%)
DIIS solution               ....       0.344 sec  (  0.6%)
SOSCF solution              ....       0.833 sec  (  1.5%)
Grid generation             ....       6.768 sec  ( 12.3%)

Maximum memory used throughout the entire SCF-calculation: 50.6 MB


-------------------------------------------------------------------------------
                          DFT DISPERSION CORRECTION                            
                                                                               
                              DFTD3 V3.1  Rev 1                                
                          USING Becke-Johnson damping                          
-------------------------------------------------------------------------------
The PBEh-3c composite method is recognized
Using three-body term ABC
Active option DFTDOPT                   ...         4   

molecular C6(AA) [au] = 1920.027255 


            DFT-D V3
 parameters
 s6 scaling factor         :     1.0000 
 a1 scaling factor         :     0.4860 
 s8 scaling factor         :     0.0000 
 a2 scaling factor         :     4.5000 
 Damping factor alpha9(ATM):    16.0000 
 ad hoc parameters k1-k3   :    16.0000     1.3333    -4.0000 

 Edisp/kcal,au: -2.617583212049  -0.004171383925 
 E6   /kcal   :  -2.598904670 
 E8   /kcal   :  -0.000000000 
 E6(ABC)      :  -0.018678542 
 % E8         :   0.000000000 
 % E6(ABC)    :   0.713579690 

-------------------------   ----------------
Dispersion correction           -0.004171384
-------------------------   ----------------

------------------   -----------------
gCP correction             0.006508636
------------------   -----------------

-------------------------   --------------------
FINAL SINGLE POINT ENERGY      -268.341404845325
-------------------------   --------------------


                            ***************************************
                            *     ORCA property calculations      *
                            ***************************************

                                    ---------------------
                                    Active property flags
                                    ---------------------
   (+) Dipole Moment


------------------------------------------------------------------------------
                       ORCA ELECTRIC PROPERTIES CALCULATION
------------------------------------------------------------------------------

Dipole Moment Calculation                       ... on
Quadrupole Moment Calculation                   ... off
Polarizability Calculation                      ... off
GBWName                                         ... pbeh-3c.gbw
Electron density                                ... pbeh-3c.scfp
The origin for moment calculation is the CENTER OF MASS  = (-0.000000,  0.000000 -1.225951)

-------------
DIPOLE MOMENT
-------------
                                X             Y             Z
Electronic contribution:     -0.00000      -0.00000      -6.68548
Nuclear contribution   :     -0.00000       0.00000       7.30835
                        -----------------------------------------
Total Dipole Moment    :     -0.00000      -0.00000       0.62287
                        -----------------------------------------
Magnitude (a.u.)       :      0.62287
Magnitude (Debye)      :      1.58322



--------------------
Rotational spectrum 
--------------------
 
Rotational constants in cm-1:     5.350610     0.026124     0.026124 
Rotational constants in MHz : 160407.248693   783.175870   783.175870 

 Dipole components along the rotational axes: 
x,y,z [a.u.] :     0.622874    -0.000004    -0.000001 
x,y,z [Debye]:     1.583220    -0.000010    -0.000002 

 

Timings for individual modules:

Sum of individual times         ...       58.381 sec (=   0.973 min)
GTO integral calculation        ...        2.836 sec (=   0.047 min)   4.9 %
SCF iterations                  ...       55.545 sec (=   0.926 min)  95.1 %
                             ****ORCA TERMINATED NORMALLY****
TOTAL RUN TIME: 0 days 0 hours 0 minutes 59 seconds 544 msec
