
                                 *****************
                                 * O   R   C   A *
                                 *****************

                                            #,                                       
                                            ###                                      
                                            ####                                     
                                            #####                                    
                                            ######                                   
                                           ########,                                 
                                     ,,################,,,,,                         
                               ,,#################################,,                 
                          ,,##########################################,,             
                       ,#########################################, ''#####,          
                    ,#############################################,,   '####,        
                  ,##################################################,,,,####,       
                ,###########''''           ''''###############################       
              ,#####''   ,,,,##########,,,,          '''####'''          '####       
            ,##' ,,,,###########################,,,                        '##       
           ' ,,###''''                  '''############,,,                           
         ,,##''                                '''############,,,,        ,,,,,,###''
      ,#''                                            '''#######################'''  
     '                                                          ''''####''''         
             ,#######,   #######,   ,#######,      ##                                
            ,#'     '#,  ##    ##  ,#'     '#,    #''#        ######   ,####,        
            ##       ##  ##   ,#'  ##            #'  '#       #        #'  '#        
            ##       ##  #######   ##           ,######,      #####,   #    #        
            '#,     ,#'  ##    ##  '#,     ,#' ,#      #,         ##   #,  ,#        
             '#######'   ##     ##  '#######'  #'      '#     #####' # '####'        



                  #######################################################
                  #                        -***-                        #
                  #          Department of theory and spectroscopy      #
                  #    Directorship and core code : Frank Neese         #
                  #        Max Planck Institute fuer Kohlenforschung    #
                  #                Kaiser Wilhelm Platz 1               #
                  #                 D-45470 Muelheim/Ruhr               #
                  #                      Germany                        #
                  #                                                     #
                  #                  All rights reserved                #
                  #                        -***-                        #
                  #######################################################


                         Program Version 5.0.3 -  RELEASE  -


 With contributions from (in alphabetic order):
   Daniel Aravena         : Magnetic Suceptibility
   Michael Atanasov       : Ab Initio Ligand Field Theory (pilot matlab implementation)
   Alexander A. Auer      : GIAO ZORA, VPT2 properties, NMR spectrum
   Ute Becker             : Parallelization
   Giovanni Bistoni       : ED, misc. LED, open-shell LED, HFLD
   Martin Brehm           : Molecular dynamics
   Dmytro Bykov           : SCF Hessian
   Vijay G. Chilkuri      : MRCI spin determinant printing, contributions to CSF-ICE
   Dipayan Datta          : RHF DLPNO-CCSD density
   Achintya Kumar Dutta   : EOM-CC, STEOM-CC
   Dmitry Ganyushin       : Spin-Orbit,Spin-Spin,Magnetic field MRCI
   Miquel Garcia          : C-PCM and meta-GGA Hessian, CC/C-PCM, Gaussian charge scheme
   Yang Guo               : DLPNO-NEVPT2, F12-NEVPT2, CIM, IAO-localization
   Andreas Hansen         : Spin unrestricted coupled pair/coupled cluster methods
   Benjamin Helmich-Paris : MC-RPA, TRAH-SCF, COSX integrals
   Lee Huntington         : MR-EOM, pCC
   Robert Izsak           : Overlap fitted RIJCOSX, COSX-SCS-MP3, EOM
   Marcus Kettner         : VPT2
   Christian Kollmar      : KDIIS, OOCD, Brueckner-CCSD(T), CCSD density, CASPT2, CASPT2-K
   Simone Kossmann        : Meta GGA functionals, TD-DFT gradient, OOMP2, MP2 Hessian
   Martin Krupicka        : Initial AUTO-CI
   Lucas Lang             : DCDCAS
   Marvin Lechner         : AUTO-CI (C++ implementation), FIC-MRCC
   Dagmar Lenk            : GEPOL surface, SMD
   Dimitrios Liakos       : Extrapolation schemes; Compound Job, initial MDCI parallelization
   Dimitrios Manganas     : Further ROCIS development; embedding schemes
   Dimitrios Pantazis     : SARC Basis sets
   Anastasios Papadopoulos: AUTO-CI, single reference methods and gradients
   Taras Petrenko         : DFT Hessian,TD-DFT gradient, ASA, ECA, R-Raman, ABS, FL, XAS/XES, NRVS
   Peter Pinski           : DLPNO-MP2, DLPNO-MP2 Gradient
   Christoph Reimann      : Effective Core Potentials
   Marius Retegan         : Local ZFS, SOC
   Christoph Riplinger    : Optimizer, TS searches, QM/MM, DLPNO-CCSD(T), (RO)-DLPNO pert. Triples
   Tobias Risthaus        : Range-separated hybrids, TD-DFT gradient, RPA, STAB
   Michael Roemelt        : Original ROCIS implementation
   Masaaki Saitow         : Open-shell DLPNO-CCSD energy and density
   Barbara Sandhoefer     : DKH picture change effects
   Avijit Sen             : IP-ROCIS
   Kantharuban Sivalingam : CASSCF convergence, NEVPT2, FIC-MRCI
   Bernardo de Souza      : ESD, SOC TD-DFT
   Georgi Stoychev        : AutoAux, RI-MP2 NMR, DLPNO-MP2 response
   Willem Van den Heuvel  : Paramagnetic NMR
   Boris Wezisla          : Elementary symmetry handling
   Frank Wennmohs         : Technical directorship


 We gratefully acknowledge several colleagues who have allowed us to
 interface, adapt or use parts of their codes:
   Stefan Grimme, W. Hujo, H. Kruse, P. Pracht,  : VdW corrections, initial TS optimization,
                  C. Bannwarth, S. Ehlert          DFT functionals, gCP, sTDA/sTD-DF
   Ed Valeev, F. Pavosevic, A. Kumar             : LibInt (2-el integral package), F12 methods
   Garnet Chan, S. Sharma, J. Yang, R. Olivares  : DMRG
   Ulf Ekstrom                                   : XCFun DFT Library
   Mihaly Kallay                                 : mrcc  (arbitrary order and MRCC methods)
   Jiri Pittner, Ondrej Demel                    : Mk-CCSD
   Frank Weinhold                                : gennbo (NPA and NBO analysis)
   Christopher J. Cramer and Donald G. Truhlar   : smd solvation model
   Lars Goerigk                                  : TD-DFT with DH, B97 family of functionals
   V. Asgeirsson, H. Jonsson                     : NEB implementation
   FAccTs GmbH                                   : IRC, NEB, NEB-TS, DLPNO-Multilevel, CI-OPT
                                                   MM, QMMM, 2- and 3-layer-ONIOM, Crystal-QMMM,
                                                   LR-CPCM, SF, NACMEs, symmetry and pop. for TD-DFT,
                                                   nearIR, NL-DFT gradient (VV10), updates on ESD,
                                                   ML-optimized integration grids
   S Lehtola, MJT Oliveira, MAL Marques          : LibXC Library
   Liviu Ungur et al                             : ANISO software


 Your calculation uses the libint2 library for the computation of 2-el integrals
 For citations please refer to: http://libint.valeyev.net

 Your ORCA version has been built with support for libXC version: 5.1.0
 For citations please refer to: https://tddft.org/programs/libxc/

 This ORCA versions uses:
   CBLAS   interface :  Fast vector & matrix operations
   LAPACKE interface :  Fast linear algebra routines
   SCALAPACK package :  Parallel linear algebra routines
   Shared memory     :  Shared parallel matrices
   BLAS/LAPACK       :  OpenBLAS 0.3.15  USE64BITINT DYNAMIC_ARCH NO_AFFINITY Haswell SINGLE_THREADED
        Core in use  :  Haswell
   Copyright (c) 2011-2014, The OpenBLAS Project




***************************************
The coordinates will be read from file: R20.xyz
***************************************


Your calculation utilizes the geometrical counterpoise correction gCP
Please cite in your paper:
H.Kruse, S. Grimme J.Chem.Phys., 136, (2012), 154101 
   

Your calculation utilizes the atom-pairwise dispersion correction
with the Becke-Johnson damping scheme (D3BJ)
Cite in your paper:
S.Grimme, S.Ehrlich, L.Goerigk, J Comput Chem, (2011), 32, 1456–1465 
S.Grimme, J.Antony, S.Ehrlich and H.Krieg, J.Chem.Phys., 132, (2010), 154104 
   

Your calculation employs the composite approach PBEh-3c.
Please cite in your paper:
S. Grimme, J. G. Brandenburg, C. Bannwarth, A. Hansen J.Chem.Phys., 143, (2015), 054107 
   

================================================================================

----- Orbital basis set information -----
Your calculation utilizes the basis: def2-mSVP

----- AuxJ basis set information -----
Your calculation utilizes the auxiliary basis: def2/J
   F. Weigend, Phys. Chem. Chem. Phys. 8, 1057 (2006).

================================================================================
                                        WARNINGS
                       Please study these warnings very carefully!
================================================================================


INFO   : the flag for use of the SHARK integral package has been found!

================================================================================
                                       INPUT FILE
================================================================================
NAME = pbeh-3c.inp
|  1> ! PBEh-3c def2/J TightSCF DefGrid3
|  2> 
|  3> %maxcore 60000
|  4> 
|  5> %pal
|  6> nprocs 4
|  7> end
|  8> 
|  9> *xyzfile 0 1 R20.xyz
| 10> 
| 11>                          ****END OF INPUT****
================================================================================

                       ****************************
                       * Single Point Calculation *
                       ****************************

---------------------------------
CARTESIAN COORDINATES (ANGSTROEM)
---------------------------------
  C      0.000000    0.437442    0.000000
  C     -1.388838    0.826404    0.000000
  C     -0.495159    1.787722    0.000000
  C      0.963382   -0.470444    0.000000
  C      0.717224   -1.951788    0.000000
  H     -2.428740    0.552663    0.000000
  H     -0.296759    2.844858    0.000000
  H      1.991556   -0.128558    0.000000
  H      1.152761   -2.436855    0.878551
  H     -0.351235   -2.171268    0.000000
  H      1.152761   -2.436855   -0.878551

----------------------------
CARTESIAN COORDINATES (A.U.)
----------------------------
  NO LB      ZA    FRAG     MASS         X           Y           Z
   0 C     6.0000    0    12.011    0.000000    0.826646    0.000000
   1 C     6.0000    0    12.011   -2.624523    1.561677    0.000000
   2 C     6.0000    0    12.011   -0.935715    3.378305    0.000000
   3 C     6.0000    0    12.011    1.820528   -0.889010    0.000000
   4 C     6.0000    0    12.011    1.355357   -3.688345    0.000000
   5 H     1.0000    0     1.008   -4.589653    1.044382    0.000000
   6 H     1.0000    0     1.008   -0.560793    5.376002    0.000000
   7 H     1.0000    0     1.008    3.763495   -0.242939    0.000000
   8 H     1.0000    0     1.008    2.178402   -4.604988    1.660221
   9 H     1.0000    0     1.008   -0.663738   -4.103102    0.000000
  10 H     1.0000    0     1.008    2.178402   -4.604988   -1.660221

--------------------------------
INTERNAL COORDINATES (ANGSTROEM)
--------------------------------
 C      0   0   0     0.000000000000     0.00000000     0.00000000
 C      1   0   0     1.442276697492     0.00000000     0.00000000
 C      2   1   0     1.312552579301    62.73384722     0.00000000
 C      1   2   3     1.323767983539   152.34429971   180.00000000
 C      4   1   2     1.501656921880   123.86653765     0.00000000
 H      2   1   3     1.075327876490   149.60660022   180.00000000
 H      3   2   1     1.075592334981   147.71770855   180.00000000
 H      4   1   2     1.083525639416   118.30583735   180.00000000
 H      5   4   1     1.093999113224   111.84706226   239.90578237
 H      5   4   1     1.090768466492   111.04281568     0.00000000
 H      5   4   1     1.093999113224   111.84706226   120.09421763

---------------------------
INTERNAL COORDINATES (A.U.)
---------------------------
 C      0   0   0     0.000000000000     0.00000000     0.00000000
 C      1   0   0     2.725507967596     0.00000000     0.00000000
 C      2   1   0     2.480364911250    62.73384722     0.00000000
 C      1   2   3     2.501558953742   152.34429971   180.00000000
 C      4   1   2     2.837720329461   123.86653765     0.00000000
 H      2   1   3     2.032075190737   149.60660022   180.00000000
 H      3   2   1     2.032574944858   147.71770855   180.00000000
 H      4   1   2     2.047566717578   118.30583735   180.00000000
 H      5   4   1     2.067358714747   111.84706226   239.90578237
 H      5   4   1     2.061253677187   111.04281568     0.00000000
 H      5   4   1     2.067358714747   111.84706226   120.09421763

---------------------
BASIS SET INFORMATION
---------------------
There are 2 groups of distinct atoms

 Group   1 Type C   : 8s4p1d contracted to 4s2p1d pattern {5111/31/1}
 Group   2 Type H   : 4s contracted to 2s pattern {31}

Atom   0C    basis set group =>   1
Atom   1C    basis set group =>   1
Atom   2C    basis set group =>   1
Atom   3C    basis set group =>   1
Atom   4C    basis set group =>   1
Atom   5H    basis set group =>   2
Atom   6H    basis set group =>   2
Atom   7H    basis set group =>   2
Atom   8H    basis set group =>   2
Atom   9H    basis set group =>   2
Atom  10H    basis set group =>   2
---------------------------------
AUXILIARY/J BASIS SET INFORMATION
---------------------------------
There are 2 groups of distinct atoms

 Group   1 Type C   : 12s5p4d2f1g contracted to 6s4p3d1f1g pattern {711111/2111/211/2/1}
 Group   2 Type H   : 5s2p1d contracted to 3s1p1d pattern {311/2/1}

Atom   0C    basis set group =>   1
Atom   1C    basis set group =>   1
Atom   2C    basis set group =>   1
Atom   3C    basis set group =>   1
Atom   4C    basis set group =>   1
Atom   5H    basis set group =>   2
Atom   6H    basis set group =>   2
Atom   7H    basis set group =>   2
Atom   8H    basis set group =>   2
Atom   9H    basis set group =>   2
Atom  10H    basis set group =>   2


           ************************************************************
           *        Program running with 4 parallel MPI-processes     *
           *              working on a common directory               *
           ************************************************************
------------------------------------------------------------------------------
                           ORCA GTO INTEGRAL CALCULATION
                           -- RI-GTO INTEGRALS CHOSEN --
------------------------------------------------------------------------------
------------------------------------------------------------------------------
                   ___                                                        
                  /   \      - P O W E R E D   B Y -                         
                 /     \                                                     
                 |  |  |   _    _      __       _____    __    __             
                 |  |  |  | |  | |    /  \     |  _  \  |  |  /  |          
                  \  \/   | |  | |   /    \    | | | |  |  | /  /          
                 / \  \   | |__| |  /  /\  \   | |_| |  |  |/  /          
                |  |  |   |  __  | /  /__\  \  |    /   |      \           
                |  |  |   | |  | | |   __   |  |    \   |  |\   \          
                \     /   | |  | | |  |  |  |  | |\  \  |  | \   \       
                 \___/    |_|  |_| |__|  |__|  |_| \__\ |__|  \__/        
                                                                              
                      - O R C A' S   B I G   F R I E N D -                    
                                      &                                       
                       - I N T E G R A L  F E E D E R -                       
                                                                              
 v1 FN, 2020, v2 2021                                                         
------------------------------------------------------------------------------


Reading SHARK input file pbeh-3c.SHARKINP.tmp ... ok
----------------------
SHARK INTEGRAL PACKAGE
----------------------

Number of atoms                             ...     11
Number of basis functions                   ...     87
Number of shells                            ...     47
Maximum angular momentum                    ...      2
Integral batch strategy                     ... SHARK/LIBINT Hybrid
RI-J (if used) integral strategy            ... SPLIT-RIJ (Revised 2003 algorithm where possible)
Printlevel                                  ...      1
Contraction scheme used                     ... SEGMENTED contraction
Coulomb Range Separation                    ... NOT USED
Exchange Range Separation                   ... NOT USED
Finite Nucleus Model                        ... NOT USED
Auxiliary Coulomb fitting basis             ... AVAILABLE
   # of basis functions in Aux-J            ...    311
   # of shells in Aux-J                     ...    105
   Maximum angular momentum in Aux-J        ...      4
Auxiliary J/K fitting basis                 ... NOT available
Auxiliary Correlation fitting basis         ... NOT available
Auxiliary 'external' fitting basis          ... NOT available
Integral threshold                          ...     2.500000e-11
Primitive cut-off                           ...     2.500000e-12
Primitive pair pre-selection threshold      ...     2.500000e-12

Calculating pre-screening integrals         ... done (  0.1 sec) Dimension = 47
Organizing shell pair data                  ... done (  0.3 sec)
Shell pair information
Total number of shell pairs                 ...      1128
Shell pairs after pre-screening             ...      1070
Total number of primitive shell pairs       ...      4088
Primitive shell pairs kept                  ...      2946
          la=0 lb=0:    479 shell pairs
          la=1 lb=0:    318 shell pairs
          la=1 lb=1:     55 shell pairs
          la=2 lb=0:    153 shell pairs
          la=2 lb=1:     50 shell pairs
          la=2 lb=2:     15 shell pairs

Calculating one electron integrals          ... done (  0.0 sec)
Calculating RI/J V-Matrix + Cholesky decomp.... done (  1.0 sec)
Calculating Nuclear repulsion               ... done (  0.1 sec) ENN=    146.060827912464 Eh

SHARK setup successfully completed in   2.1 seconds

Maximum memory used throughout the entire GTOINT-calculation: 9.8 MB


           ************************************************************
           *        Program running with 4 parallel MPI-processes     *
           *              working on a common directory               *
           ************************************************************
-------------------------------------------------------------------------------
                                 ORCA SCF
-------------------------------------------------------------------------------

------------
SCF SETTINGS
------------
Hamiltonian:
 Density Functional     Method          .... DFT(GTOs)
 Exchange Functional    Exchange        .... PBE
   PBE kappa parameter   XKappa         ....  1.024500
   PBE mue parameter    XMuePBE         ....  0.123457
 Correlation Functional Correlation     .... PBE
   PBE beta parameter  CBetaPBE         ....  0.030000
 LDA part of GGA corr.  LDAOpt          .... PW91-LDA
 Gradients option       PostSCFGGA      .... off
 Hybrid DFT is turned on
   Fraction HF Exchange ScalHFX         ....  0.420000
   Scaling of DF-GGA-X  ScalDFX         ....  0.580000
   Scaling of DF-GGA-C  ScalDFC         ....  1.000000
   Scaling of DF-LDA-C  ScalLDAC        ....  1.000000
   Perturbative correction              ....  0.000000
   Density functional embedding theory  .... OFF
 RI-approximation to the Coulomb term is turned on
   Number of AuxJ basis functions       .... 311
   RIJ-ON(X) (HFX calculated with O(N)) .... on
   Number of AuxJ basis functions       .... 311
   RIJ-COSX (HFX calculated with COS-X)).... on


General Settings:
 Integral files         IntName         .... pbeh-3c
 Hartree-Fock type      HFTyp           .... RHF
 Total Charge           Charge          ....    0
 Multiplicity           Mult            ....    1
 Number of Electrons    NEL             ....   36
 Basis Dimension        Dim             ....   87
 Nuclear Repulsion      ENuc            ....    146.0608279125 Eh

Convergence Acceleration:
 DIIS                   CNVDIIS         .... on
   Start iteration      DIISMaxIt       ....    12
   Startup error        DIISStart       ....  0.200000
   # of expansion vecs  DIISMaxEq       ....     5
   Bias factor          DIISBfac        ....   1.050
   Max. coefficient     DIISMaxC        ....  10.000
 Trust-Rad. Augm. Hess. CNVTRAH         .... auto
   Auto Start mean grad. ratio tolernc. ....  1.125000
   Auto Start start iteration           ....    20
   Auto Start num. interpolation iter.  ....    10
   Max. Number of Micro iterations      ....    16
   Max. Number of Macro iterations      .... Maxiter - #DIIS iter
   Number of Davidson start vectors     ....     2
   Converg. threshold I  (grad. norm)   ....   1.000e-05
   Converg. threshold II (energy diff.) ....   1.000e-08
   Grad. Scal. Fac. for Micro threshold ....   0.100
   Minimum threshold for Micro iter.    ....   0.010
   NR start threshold (gradient norm)   ....   0.001
   Initial trust radius                 ....   0.400
   Minimum AH scaling param. (alpha)    ....   1.000
   Maximum AH scaling param. (alpha)    .... 1000.000
   Orbital update algorithm             .... Taylor
   White noise on init. David. guess    .... on
   Maximum white noise                  ....   0.010
   Quad. conv. algorithm                .... NR
   COSX micro iterations for RIJONX calc.... off
 SOSCF                  CNVSOSCF        .... on
   Start iteration      SOSCFMaxIt      ....   150
   Startup grad/error   SOSCFStart      ....  0.003300
 Level Shifting         CNVShift        .... on
   Level shift para.    LevelShift      ....    0.2500
   Turn off err/grad.   ShiftErr        ....    0.0010
 Zerner damping         CNVZerner       .... off
 Static damping         CNVDamp         .... on
   Fraction old density DampFac         ....    0.7000
   Max. Damping (<1)    DampMax         ....    0.9800
   Min. Damping (>=0)   DampMin         ....    0.0000
   Turn off err/grad.   DampErr         ....    0.1000
 Fernandez-Rico         CNVRico         .... off

SCF Procedure:
 Maximum # iterations   MaxIter         ....   125
 SCF integral mode      SCFMode         .... Direct
   Integral package                     .... SHARK and LIBINT hybrid scheme
 Reset frequency        DirectResetFreq ....    20
 Integral Threshold     Thresh          ....  2.500e-11 Eh
 Primitive CutOff       TCut            ....  2.500e-12 Eh

Convergence Tolerance:
 Convergence Check Mode ConvCheckMode   .... Total+1el-Energy
 Convergence forced     ConvForced      .... 0
 Energy Change          TolE            ....  1.000e-08 Eh
 1-El. energy change                    ....  1.000e-05 Eh
 Orbital Gradient       TolG            ....  1.000e-05
 Orbital Rotation angle TolX            ....  1.000e-05
 DIIS Error             TolErr          ....  5.000e-07


Diagonalization of the overlap matrix:
Smallest eigenvalue                        ... 1.471e-03
Time for diagonalization                   ...    0.003 sec
Threshold for overlap eigenvalues          ... 1.000e-08
Number of eigenvalues below threshold      ... 0
Time for construction of square roots      ...    0.145 sec
Total time needed                          ...    0.149 sec

--------------------------------
INITIAL GUESS: MINIMAL BASIS EHT
--------------------------------
The minimal basis has 31 functions
EHT matrix was diagonalized
Basis set overlap was calculated now projecting the orbitals
Using GuessMode=FMatrix for the initial guess
C*T matrix was formed
Effective Fockian was calculated
Effective Fockian was diagonalized
Initial density was built
                      ------------------
                      INITIAL GUESS DONE
                      ------------------
-------------------
DFT GRID GENERATION
-------------------

General Integration Accuracy     IntAcc      ... 4.959
Radial Grid Type                 RadialGrid  ... OptM3 with GC (2021)
Angular Grid (max. ang.)         AngularGrid ... 6 (Lebedev-590)
Angular grid pruning method      GridPruning ... 4 (adaptive)
Weight generation scheme         WeightScheme... Becke
Basis function cutoff            BFCut       ... 1.0000e-11
Integration weight cutoff        WCut        ... 1.0000e-14
Angular grids for H and He will be reduced by one unit
Partially contracted basis set               ... off
Rotationally invariant grid construction     ... off

Total number of grid points                  ...   125064
Total number of batches                      ...     1959
Average number of points per batch           ...       63
Average number of grid points per atom       ...    11369
Time for grid setup =    2.320 sec

--------------------
COSX GRID GENERATION
--------------------

GRIDX 1
-------
General Integration Accuracy     IntAcc      ... 4.020
Radial Grid Type                 RadialGrid  ... OptM3 with GC (2021)
Angular Grid (max. ang.)         AngularGrid ... 2 (Lebedev-110)
Angular grid pruning method      GridPruning ... 4 (adaptive)
Weight generation scheme         WeightScheme... Becke
Basis function cutoff            BFCut       ... 1.0000e-11
Integration weight cutoff        WCut        ... 1.0000e-14
Angular grids for H and He will be reduced by one unit
Partially contracted basis set               ... on
Rotationally invariant grid construction     ... off

Total number of grid points                  ...    13835
Total number of batches                      ...      221
Average number of points per batch           ...       62
Average number of grid points per atom       ...     1258
UseSFitting                                  ... on

GRIDX 2
-------
General Integration Accuracy     IntAcc      ... 4.338
Radial Grid Type                 RadialGrid  ... OptM3 with GC (2021)
Angular Grid (max. ang.)         AngularGrid ... 3 (Lebedev-194)
Angular grid pruning method      GridPruning ... 4 (adaptive)
Weight generation scheme         WeightScheme... Becke
Basis function cutoff            BFCut       ... 1.0000e-11
Integration weight cutoff        WCut        ... 1.0000e-14
Angular grids for H and He will be reduced by one unit
Partially contracted basis set               ... on
Rotationally invariant grid construction     ... off

Total number of grid points                  ...    30414
Total number of batches                      ...      480
Average number of points per batch           ...       63
Average number of grid points per atom       ...     2765
UseSFitting                                  ... on

GRIDX 3
-------
General Integration Accuracy     IntAcc      ... 4.871
Radial Grid Type                 RadialGrid  ... OptM3 with GC (2021)
Angular Grid (max. ang.)         AngularGrid ... 4 (Lebedev-302)
Angular grid pruning method      GridPruning ... 4 (adaptive)
Weight generation scheme         WeightScheme... Becke
Basis function cutoff            BFCut       ... 1.0000e-11
Integration weight cutoff        WCut        ... 1.0000e-14
Angular grids for H and He will be reduced by one unit
Partially contracted basis set               ... on
Rotationally invariant grid construction     ... off

Total number of grid points                  ...    58957
Total number of batches                      ...      927
Average number of points per batch           ...       63
Average number of grid points per atom       ...     5360
UseSFitting                                  ... on

Time for X-Grid setup             =    2.535 sec

--------------
SCF ITERATIONS
--------------
ITER       Energy         Delta-E        Max-DP      RMS-DP      [F,P]     Damp
               ***  Starting incremental Fock matrix formation  ***
  0   -193.0299841832   0.000000000000 0.12044564  0.00666345  0.4227812 0.7000
  1   -193.1943858470  -0.164401663840 0.08470222  0.00483927  0.2928116 0.7000
  2   -193.3083673774  -0.113981530400 0.05771671  0.00355701  0.2031845 0.7000
                               ***Turning on DIIS***
  3   -193.3890847017  -0.080717324272 0.04138561  0.00264662  0.1433514 0.7000
  4   -193.4466190344  -0.057534332678 0.03000345  0.00208158  0.1010836 0.7000
  5   -193.4874979564  -0.040878922036 0.07140983  0.00520001  0.0708479 0.0000
                      *** Initiating the SOSCF procedure ***
                           *** Shutting down DIIS ***
                      *** Re-Reading the Fockian *** 
                      *** Removing any level shift *** 
ITER      Energy       Delta-E        Grad      Rot      Max-DP    RMS-DP
  6   -193.58521363  -0.0977156706  0.001337  0.001337  0.004078  0.000186
               *** Restarting incremental Fock matrix formation ***
  7   -193.58525923  -0.0000456037  0.000597  0.000931  0.001323  0.000103
  8   -193.58526445  -0.0000052197  0.000486  0.000824  0.001501  0.000040
  9   -193.58526623  -0.0000017762  0.000147  0.000205  0.000497  0.000018
 10   -193.58526653  -0.0000003051  0.000026  0.000030  0.000087  0.000003
 11   -193.58526654  -0.0000000127  0.000014  0.000013  0.000032  0.000002
                  ***Gradient check signals convergence***
              ***Rediagonalizing the Fockian in SOSCF/NRSCF***

               *****************************************************
               *                     SUCCESS                       *
               *           SCF CONVERGED AFTER  12 CYCLES          *
               *****************************************************

Old exchange energy                            =    -11.750770159 Eh
New exchange energy                            =    -11.750781466 Eh
Exchange energy change after final integration =     -0.000011307 Eh
Total energy after final integration           =   -193.585277857 Eh
Final COS-X integration done in                =     1.710 sec

----------------
TOTAL SCF ENERGY
----------------

Total Energy       :         -193.58527786 Eh           -5267.72322 eV

Components:
Nuclear Repulsion  :          146.06082791 Eh            3974.51719 eV
Electronic Energy  :         -339.64610577 Eh           -9242.24040 eV
One Electron Energy:         -548.34471726 Eh          -14921.21834 eV
Two Electron Energy:          208.69861149 Eh            5678.97793 eV
Max COSX asymmetry :            0.00000160 Eh               0.00004 eV

Virial components:
Potential Energy   :         -385.60952321 Eh          -10492.96858 eV
Kinetic Energy     :          192.02424536 Eh            5225.24536 eV
Virial Ratio       :            2.00812935


DFT components:
N(Alpha)           :       18.000000916470 electrons
N(Beta)            :       18.000000916470 electrons
N(Total)           :       36.000001832940 electrons
E(X)               :      -15.596730157789 Eh       
E(C)               :       -1.529243114595 Eh       
E(XC)              :      -17.125973272384 Eh       
DFET-embed. en.    :        0.000000000000 Eh       

---------------
SCF CONVERGENCE
---------------

  Last Energy change         ...   -5.5451e-09  Tolerance :   1.0000e-08
  Last MAX-Density change    ...    4.9960e-16  Tolerance :   1.0000e-07
  Last RMS-Density change    ...    4.4662e-17  Tolerance :   5.0000e-09
  Last Orbital Gradient      ...    1.7959e-06  Tolerance :   1.0000e-05
  Last Orbital Rotation      ...    3.0374e-06  Tolerance :   1.0000e-05

             **** THE GBW FILE WAS UPDATED (pbeh-3c.gbw) ****
             **** DENSITY pbeh-3c.scfp WAS UPDATED ****
             **** ENERGY FILE WAS UPDATED (pbeh-3c.en.tmp) ****
             **** THE GBW FILE WAS UPDATED (pbeh-3c.gbw) ****
             **** DENSITY pbeh-3c.scfp WAS UPDATED ****
----------------
ORBITAL ENERGIES
----------------

  NO   OCC          E(Eh)            E(eV) 
   0   2.0000     -10.484918      -285.3091 
   1   2.0000     -10.483691      -285.2757 
   2   2.0000     -10.469193      -284.8812 
   3   2.0000     -10.415249      -283.4133 
   4   2.0000     -10.412011      -283.3252 
   5   2.0000      -1.006397       -27.3855 
   6   2.0000      -0.838994       -22.8302 
   7   2.0000      -0.721977       -19.6460 
   8   2.0000      -0.658688       -17.9238 
   9   2.0000      -0.625235       -17.0135 
  10   2.0000      -0.538026       -14.6404 
  11   2.0000      -0.469049       -12.7635 
  12   2.0000      -0.454971       -12.3804 
  13   2.0000      -0.431102       -11.7309 
  14   2.0000      -0.422115       -11.4863 
  15   2.0000      -0.403874       -10.9900 
  16   2.0000      -0.349533        -9.5113 
  17   2.0000      -0.233866        -6.3638 
  18   0.0000       0.015071         0.4101 
  19   0.0000       0.105527         2.8715 
  20   0.0000       0.157819         4.2945 
  21   0.0000       0.162711         4.4276 
  22   0.0000       0.187995         5.1156 
  23   0.0000       0.201918         5.4945 
  24   0.0000       0.224762         6.1161 
  25   0.0000       0.231193         6.2911 
  26   0.0000       0.238116         6.4795 
  27   0.0000       0.259540         7.0625 
  28   0.0000       0.318674         8.6716 
  29   0.0000       0.374105        10.1799 
  30   0.0000       0.406486        11.0611 
  31   0.0000       0.467203        12.7132 
  32   0.0000       0.495659        13.4876 
  33   0.0000       0.546162        14.8618 
  34   0.0000       0.546583        14.8733 
  35   0.0000       0.573683        15.6107 
  36   0.0000       0.597373        16.2554 
  37   0.0000       0.605717        16.4824 
  38   0.0000       0.628393        17.0994 
  39   0.0000       0.646633        17.5958 
  40   0.0000       0.666234        18.1291 
  41   0.0000       0.717055        19.5121 
  42   0.0000       0.758766        20.6471 
  43   0.0000       0.785549        21.3759 
  44   0.0000       0.790135        21.5007 
  45   0.0000       0.944839        25.7104 
  46   0.0000       1.000390        27.2220 
  47   0.0000       1.018243        27.7078 
  48   0.0000       1.028448        27.9855 
  49   0.0000       1.047023        28.4909 
  50   0.0000       1.083810        29.4920 
  51   0.0000       1.106202        30.1013 
  52   0.0000       1.148043        31.2398 
  53   0.0000       1.200209        32.6593 
  54   0.0000       1.262790        34.3623 
  55   0.0000       1.291418        35.1413 
  56   0.0000       1.324038        36.0289 
  57   0.0000       1.353490        36.8303 
  58   0.0000       1.500825        40.8395 
  59   0.0000       1.528230        41.5852 
  60   0.0000       1.641836        44.6766 
  61   0.0000       1.668354        45.3982 
  62   0.0000       1.845790        50.2265 
  63   0.0000       1.868161        50.8352 
  64   0.0000       1.918126        52.1949 
  65   0.0000       1.919562        52.2339 
  66   0.0000       2.074766        56.4573 
  67   0.0000       2.097570        57.0778 
  68   0.0000       2.153406        58.5972 
  69   0.0000       2.215552        60.2882 
  70   0.0000       2.249646        61.2160 
  71   0.0000       2.308586        62.8198 
  72   0.0000       2.383584        64.8606 
  73   0.0000       2.417066        65.7717 
  74   0.0000       2.459660        66.9308 
  75   0.0000       2.525893        68.7330 
  76   0.0000       2.630782        71.5872 
  77   0.0000       2.693335        73.2894 
  78   0.0000       2.722488        74.0827 
  79   0.0000       3.009900        81.9036 
  80   0.0000       3.226126        87.7874 
  81   0.0000       3.253448        88.5308 
  82   0.0000      13.185840       358.8049 
  83   0.0000      13.710292       373.0760 
  84   0.0000      13.897277       378.1641 
  85   0.0000      14.237149       387.4125 
  86   0.0000      14.404393       391.9635 

                    ********************************
                    * MULLIKEN POPULATION ANALYSIS *
                    ********************************

-----------------------
MULLIKEN ATOMIC CHARGES
-----------------------
   0 C :    0.233436
   1 C :   -0.225268
   2 C :   -0.217508
   3 C :   -0.390387
   4 C :   -0.676479
   5 H :    0.221039
   6 H :    0.218989
   7 H :    0.199692
   8 H :    0.212192
   9 H :    0.212103
  10 H :    0.212192
Sum of atomic charges:    0.0000000

--------------------------------
MULLIKEN REDUCED ORBITAL CHARGES
--------------------------------
  0 C s       :     3.142831  s :     3.142831
      pz      :     0.989659  p :     2.562520
      px      :     0.761322
      py      :     0.811539
      dz2     :     0.003261  d :     0.061214
      dxz     :     0.013397
      dyz     :     0.011538
      dx2y2   :     0.021399
      dxy     :     0.011620
  1 C s       :     3.331283  s :     3.331283
      pz      :     0.894226  p :     2.845961
      px      :     0.919881
      py      :     1.031854
      dz2     :     0.003675  d :     0.048024
      dxz     :     0.008719
      dyz     :     0.004028
      dx2y2   :     0.017748
      dxy     :     0.013853
  2 C s       :     3.331976  s :     3.331976
      pz      :     0.892422  p :     2.837000
      px      :     1.032509
      py      :     0.912069
      dz2     :     0.003696  d :     0.048532
      dxz     :     0.003616
      dyz     :     0.009216
      dx2y2   :     0.018463
      dxy     :     0.013541
  3 C s       :     3.295671  s :     3.295671
      pz      :     1.156793  p :     3.054542
      px      :     1.015825
      py      :     0.881923
      dz2     :     0.003860  d :     0.040175
      dxz     :     0.003145
      dyz     :     0.006335
      dx2y2   :     0.013942
      dxy     :     0.012893
  4 C s       :     3.391790  s :     3.391790
      pz      :     1.123188  p :     3.246096
      px      :     1.134585
      py      :     0.988323
      dz2     :     0.006933  d :     0.038593
      dxz     :     0.004776
      dyz     :     0.011795
      dx2y2   :     0.009758
      dxy     :     0.005331
  5 H s       :     0.778961  s :     0.778961
  6 H s       :     0.781011  s :     0.781011
  7 H s       :     0.800308  s :     0.800308
  8 H s       :     0.787808  s :     0.787808
  9 H s       :     0.787897  s :     0.787897
 10 H s       :     0.787808  s :     0.787808


                     *******************************
                     * LOEWDIN POPULATION ANALYSIS *
                     *******************************

----------------------
LOEWDIN ATOMIC CHARGES
----------------------
   0 C :   -0.032622
   1 C :   -0.081775
   2 C :   -0.074594
   3 C :   -0.264141
   4 C :   -0.350599
   5 H :    0.150004
   6 H :    0.149682
   7 H :    0.129498
   8 H :    0.124162
   9 H :    0.126224
  10 H :    0.124162

-------------------------------
LOEWDIN REDUCED ORBITAL CHARGES
-------------------------------
  0 C s       :     2.824800  s :     2.824800
      pz      :     0.966346  p :     3.064263
      px      :     1.049127
      py      :     1.048790
      dz2     :     0.009102  d :     0.143559
      dxz     :     0.026616
      dyz     :     0.022874
      dx2y2   :     0.051259
      dxy     :     0.033707
  1 C s       :     2.909120  s :     2.909120
      pz      :     0.881346  p :     3.073269
      px      :     1.055381
      py      :     1.136542
      dz2     :     0.008363  d :     0.099385
      dxz     :     0.012687
      dyz     :     0.007238
      dx2y2   :     0.040185
      dxy     :     0.030913
  2 C s       :     2.906703  s :     2.906703
      pz      :     0.879209  p :     3.067655
      px      :     1.130918
      py      :     1.057528
      dz2     :     0.008394  d :     0.100235
      dxz     :     0.006833
      dyz     :     0.013255
      dx2y2   :     0.041640
      dxy     :     0.030114
  3 C s       :     2.887397  s :     2.887397
      pz      :     1.160140  p :     3.286938
      px      :     1.079185
      py      :     1.047614
      dz2     :     0.006510  d :     0.089805
      dxz     :     0.005118
      dyz     :     0.012741
      dx2y2   :     0.034795
      dxy     :     0.030642
  4 C s       :     2.944724  s :     2.944724
      pz      :     1.128637  p :     3.333505
      px      :     1.129084
      py      :     1.075785
      dz2     :     0.011985  d :     0.072371
      dxz     :     0.007549
      dyz     :     0.022286
      dx2y2   :     0.019550
      dxy     :     0.011000
  5 H s       :     0.849996  s :     0.849996
  6 H s       :     0.850318  s :     0.850318
  7 H s       :     0.870502  s :     0.870502
  8 H s       :     0.875838  s :     0.875838
  9 H s       :     0.873776  s :     0.873776
 10 H s       :     0.875838  s :     0.875838


                      *****************************
                      * MAYER POPULATION ANALYSIS *
                      *****************************

  NA   - Mulliken gross atomic population
  ZA   - Total nuclear charge
  QA   - Mulliken gross atomic charge
  VA   - Mayer's total valence
  BVA  - Mayer's bonded valence
  FA   - Mayer's free valence

  ATOM       NA         ZA         QA         VA         BVA        FA
  0 C      5.7666     6.0000     0.2334     3.6909     3.6909     0.0000
  1 C      6.2253     6.0000    -0.2253     3.6644     3.6644     0.0000
  2 C      6.2175     6.0000    -0.2175     3.6758     3.6758     0.0000
  3 C      6.3904     6.0000    -0.3904     3.7054     3.7054     0.0000
  4 C      6.6765     6.0000    -0.6765     3.7619     3.7619     0.0000
  5 H      0.7790     1.0000     0.2210     0.9296     0.9296    -0.0000
  6 H      0.7810     1.0000     0.2190     0.9301     0.9301     0.0000
  7 H      0.8003     1.0000     0.1997     0.9254     0.9254    -0.0000
  8 H      0.7878     1.0000     0.2122     0.9078     0.9078     0.0000
  9 H      0.7879     1.0000     0.2121     0.9174     0.9174     0.0000
 10 H      0.7878     1.0000     0.2122     0.9078     0.9078     0.0000

  Mayer bond orders larger than 0.100000
B(  0-C ,  1-C ) :   0.9428 B(  0-C ,  2-C ) :   0.9573 B(  0-C ,  3-C ) :   1.7790 
B(  1-C ,  2-C ) :   1.7487 B(  1-C ,  5-H ) :   0.9201 B(  2-C ,  6-H ) :   0.9226 
B(  3-C ,  4-C ) :   0.9974 B(  3-C ,  7-H ) :   0.9227 B(  4-C ,  8-H ) :   0.9232 
B(  4-C ,  9-H ) :   0.9377 B(  4-C , 10-H ) :   0.9232 

-------
TIMINGS
-------

Total SCF time: 0 days 0 hours 0 min 36 sec 

Total time                  ....      36.297 sec
Sum of individual times     ....      33.052 sec  ( 91.1%)

Fock matrix formation       ....      25.739 sec  ( 70.9%)
  Split-RI-J                ....       3.569 sec  ( 13.9% of F)
  Chain of spheres X        ....      10.340 sec  ( 40.2% of F)
  XC integration            ....       8.269 sec  ( 32.1% of F)
    Basis function eval.    ....       1.558 sec  ( 18.8% of XC)
    Density eval.           ....       0.875 sec  ( 10.6% of XC)
    XC-Functional eval.     ....       0.904 sec  ( 10.9% of XC)
    XC-Potential eval.      ....       0.561 sec  (  6.8% of XC)
Diagonalization             ....       0.309 sec  (  0.9%)
Density matrix formation    ....       0.013 sec  (  0.0%)
Population analysis         ....       0.249 sec  (  0.7%)
Initial guess               ....       0.064 sec  (  0.2%)
Orbital Transformation      ....       0.000 sec  (  0.0%)
Orbital Orthonormalization  ....       0.000 sec  (  0.0%)
DIIS solution               ....       1.554 sec  (  4.3%)
SOSCF solution              ....       0.269 sec  (  0.7%)
Grid generation             ....       4.855 sec  ( 13.4%)

Maximum memory used throughout the entire SCF-calculation: 49.2 MB


-------------------------------------------------------------------------------
                          DFT DISPERSION CORRECTION                            
                                                                               
                              DFTD3 V3.1  Rev 1                                
                          USING Becke-Johnson damping                          
-------------------------------------------------------------------------------
The PBEh-3c composite method is recognized
Using three-body term ABC
Active option DFTDOPT                   ...         4   

molecular C6(AA) [au] = 1227.935272 


            DFT-D V3
 parameters
 s6 scaling factor         :     1.0000 
 a1 scaling factor         :     0.4860 
 s8 scaling factor         :     0.0000 
 a2 scaling factor         :     4.5000 
 Damping factor alpha9(ATM):    16.0000 
 ad hoc parameters k1-k3   :    16.0000     1.3333    -4.0000 

 Edisp/kcal,au: -2.609250582652  -0.004158105036 
 E6   /kcal   :  -2.611665929 
 E8   /kcal   :  -0.000000000 
 E6(ABC)      :   0.002415346 
 % E8         :   0.000000000 
 % E6(ABC)    :  -0.092568588 

-------------------------   ----------------
Dispersion correction           -0.004158105
-------------------------   ----------------

------------------   -----------------
gCP correction             0.010139325
------------------   -----------------

-------------------------   --------------------
FINAL SINGLE POINT ENERGY      -193.579296637378
-------------------------   --------------------


                            ***************************************
                            *     ORCA property calculations      *
                            ***************************************

                                    ---------------------
                                    Active property flags
                                    ---------------------
   (+) Dipole Moment


------------------------------------------------------------------------------
                       ORCA ELECTRIC PROPERTIES CALCULATION
------------------------------------------------------------------------------

Dipole Moment Calculation                       ... on
Quadrupole Moment Calculation                   ... off
Polarizability Calculation                      ... off
GBWName                                         ... pbeh-3c.gbw
Electron density                                ... pbeh-3c.scfp
The origin for moment calculation is the CENTER OF MASS  = (-0.034672,  0.107282  0.000000)

-------------
DIPOLE MOMENT
-------------
                                X             Y             Z
Electronic contribution:     -1.76863       4.35290       0.00000
Nuclear contribution   :      1.24818      -3.86213       0.00000
                        -----------------------------------------
Total Dipole Moment    :     -0.52046       0.49077       0.00000
                        -----------------------------------------
Magnitude (a.u.)       :      0.71535
Magnitude (Debye)      :      1.81828



--------------------
Rotational spectrum 
--------------------
 
Rotational constants in cm-1:     0.611554     0.109398     0.094416 
Rotational constants in MHz : 18333.933070  3279.682673  2830.509711 

 Dipole components along the rotational axes: 
x,y,z [a.u.] :    -0.682568     0.214079     0.000000 
x,y,z [Debye]:    -1.734951     0.544146     0.000000 

 

Timings for individual modules:

Sum of individual times         ...       39.445 sec (=   0.657 min)
GTO integral calculation        ...        2.692 sec (=   0.045 min)   6.8 %
SCF iterations                  ...       36.753 sec (=   0.613 min)  93.2 %
                             ****ORCA TERMINATED NORMALLY****
TOTAL RUN TIME: 0 days 0 hours 0 minutes 40 seconds 255 msec
