
                                 *****************
                                 * O   R   C   A *
                                 *****************

                                            #,                                       
                                            ###                                      
                                            ####                                     
                                            #####                                    
                                            ######                                   
                                           ########,                                 
                                     ,,################,,,,,                         
                               ,,#################################,,                 
                          ,,##########################################,,             
                       ,#########################################, ''#####,          
                    ,#############################################,,   '####,        
                  ,##################################################,,,,####,       
                ,###########''''           ''''###############################       
              ,#####''   ,,,,##########,,,,          '''####'''          '####       
            ,##' ,,,,###########################,,,                        '##       
           ' ,,###''''                  '''############,,,                           
         ,,##''                                '''############,,,,        ,,,,,,###''
      ,#''                                            '''#######################'''  
     '                                                          ''''####''''         
             ,#######,   #######,   ,#######,      ##                                
            ,#'     '#,  ##    ##  ,#'     '#,    #''#        ######   ,####,        
            ##       ##  ##   ,#'  ##            #'  '#       #        #'  '#        
            ##       ##  #######   ##           ,######,      #####,   #    #        
            '#,     ,#'  ##    ##  '#,     ,#' ,#      #,         ##   #,  ,#        
             '#######'   ##     ##  '#######'  #'      '#     #####' # '####'        



                  #######################################################
                  #                        -***-                        #
                  #          Department of theory and spectroscopy      #
                  #    Directorship and core code : Frank Neese         #
                  #        Max Planck Institute fuer Kohlenforschung    #
                  #                Kaiser Wilhelm Platz 1               #
                  #                 D-45470 Muelheim/Ruhr               #
                  #                      Germany                        #
                  #                                                     #
                  #                  All rights reserved                #
                  #                        -***-                        #
                  #######################################################


                         Program Version 5.0.3 -  RELEASE  -


 With contributions from (in alphabetic order):
   Daniel Aravena         : Magnetic Suceptibility
   Michael Atanasov       : Ab Initio Ligand Field Theory (pilot matlab implementation)
   Alexander A. Auer      : GIAO ZORA, VPT2 properties, NMR spectrum
   Ute Becker             : Parallelization
   Giovanni Bistoni       : ED, misc. LED, open-shell LED, HFLD
   Martin Brehm           : Molecular dynamics
   Dmytro Bykov           : SCF Hessian
   Vijay G. Chilkuri      : MRCI spin determinant printing, contributions to CSF-ICE
   Dipayan Datta          : RHF DLPNO-CCSD density
   Achintya Kumar Dutta   : EOM-CC, STEOM-CC
   Dmitry Ganyushin       : Spin-Orbit,Spin-Spin,Magnetic field MRCI
   Miquel Garcia          : C-PCM and meta-GGA Hessian, CC/C-PCM, Gaussian charge scheme
   Yang Guo               : DLPNO-NEVPT2, F12-NEVPT2, CIM, IAO-localization
   Andreas Hansen         : Spin unrestricted coupled pair/coupled cluster methods
   Benjamin Helmich-Paris : MC-RPA, TRAH-SCF, COSX integrals
   Lee Huntington         : MR-EOM, pCC
   Robert Izsak           : Overlap fitted RIJCOSX, COSX-SCS-MP3, EOM
   Marcus Kettner         : VPT2
   Christian Kollmar      : KDIIS, OOCD, Brueckner-CCSD(T), CCSD density, CASPT2, CASPT2-K
   Simone Kossmann        : Meta GGA functionals, TD-DFT gradient, OOMP2, MP2 Hessian
   Martin Krupicka        : Initial AUTO-CI
   Lucas Lang             : DCDCAS
   Marvin Lechner         : AUTO-CI (C++ implementation), FIC-MRCC
   Dagmar Lenk            : GEPOL surface, SMD
   Dimitrios Liakos       : Extrapolation schemes; Compound Job, initial MDCI parallelization
   Dimitrios Manganas     : Further ROCIS development; embedding schemes
   Dimitrios Pantazis     : SARC Basis sets
   Anastasios Papadopoulos: AUTO-CI, single reference methods and gradients
   Taras Petrenko         : DFT Hessian,TD-DFT gradient, ASA, ECA, R-Raman, ABS, FL, XAS/XES, NRVS
   Peter Pinski           : DLPNO-MP2, DLPNO-MP2 Gradient
   Christoph Reimann      : Effective Core Potentials
   Marius Retegan         : Local ZFS, SOC
   Christoph Riplinger    : Optimizer, TS searches, QM/MM, DLPNO-CCSD(T), (RO)-DLPNO pert. Triples
   Tobias Risthaus        : Range-separated hybrids, TD-DFT gradient, RPA, STAB
   Michael Roemelt        : Original ROCIS implementation
   Masaaki Saitow         : Open-shell DLPNO-CCSD energy and density
   Barbara Sandhoefer     : DKH picture change effects
   Avijit Sen             : IP-ROCIS
   Kantharuban Sivalingam : CASSCF convergence, NEVPT2, FIC-MRCI
   Bernardo de Souza      : ESD, SOC TD-DFT
   Georgi Stoychev        : AutoAux, RI-MP2 NMR, DLPNO-MP2 response
   Willem Van den Heuvel  : Paramagnetic NMR
   Boris Wezisla          : Elementary symmetry handling
   Frank Wennmohs         : Technical directorship


 We gratefully acknowledge several colleagues who have allowed us to
 interface, adapt or use parts of their codes:
   Stefan Grimme, W. Hujo, H. Kruse, P. Pracht,  : VdW corrections, initial TS optimization,
                  C. Bannwarth, S. Ehlert          DFT functionals, gCP, sTDA/sTD-DF
   Ed Valeev, F. Pavosevic, A. Kumar             : LibInt (2-el integral package), F12 methods
   Garnet Chan, S. Sharma, J. Yang, R. Olivares  : DMRG
   Ulf Ekstrom                                   : XCFun DFT Library
   Mihaly Kallay                                 : mrcc  (arbitrary order and MRCC methods)
   Jiri Pittner, Ondrej Demel                    : Mk-CCSD
   Frank Weinhold                                : gennbo (NPA and NBO analysis)
   Christopher J. Cramer and Donald G. Truhlar   : smd solvation model
   Lars Goerigk                                  : TD-DFT with DH, B97 family of functionals
   V. Asgeirsson, H. Jonsson                     : NEB implementation
   FAccTs GmbH                                   : IRC, NEB, NEB-TS, DLPNO-Multilevel, CI-OPT
                                                   MM, QMMM, 2- and 3-layer-ONIOM, Crystal-QMMM,
                                                   LR-CPCM, SF, NACMEs, symmetry and pop. for TD-DFT,
                                                   nearIR, NL-DFT gradient (VV10), updates on ESD,
                                                   ML-optimized integration grids
   S Lehtola, MJT Oliveira, MAL Marques          : LibXC Library
   Liviu Ungur et al                             : ANISO software


 Your calculation uses the libint2 library for the computation of 2-el integrals
 For citations please refer to: http://libint.valeyev.net

 Your ORCA version has been built with support for libXC version: 5.1.0
 For citations please refer to: https://tddft.org/programs/libxc/

 This ORCA versions uses:
   CBLAS   interface :  Fast vector & matrix operations
   LAPACKE interface :  Fast linear algebra routines
   SCALAPACK package :  Parallel linear algebra routines
   Shared memory     :  Shared parallel matrices
   BLAS/LAPACK       :  OpenBLAS 0.3.15  USE64BITINT DYNAMIC_ARCH NO_AFFINITY Haswell SINGLE_THREADED
        Core in use  :  Haswell
   Copyright (c) 2011-2014, The OpenBLAS Project




***************************************
The coordinates will be read from file: c2h6.xyz
***************************************


Your calculation utilizes the geometrical counterpoise correction gCP
Please cite in your paper:
H.Kruse, S. Grimme J.Chem.Phys., 136, (2012), 154101 
   

Your calculation utilizes the atom-pairwise dispersion correction
with the Becke-Johnson damping scheme (D3BJ)
Cite in your paper:
S.Grimme, S.Ehrlich, L.Goerigk, J Comput Chem, (2011), 32, 1456–1465 
S.Grimme, J.Antony, S.Ehrlich and H.Krieg, J.Chem.Phys., 132, (2010), 154104 
   

Your calculation employs the composite approach PBEh-3c.
Please cite in your paper:
S. Grimme, J. G. Brandenburg, C. Bannwarth, A. Hansen J.Chem.Phys., 143, (2015), 054107 
   

================================================================================

----- Orbital basis set information -----
Your calculation utilizes the basis: def2-mSVP

----- AuxJ basis set information -----
Your calculation utilizes the auxiliary basis: def2/J
   F. Weigend, Phys. Chem. Chem. Phys. 8, 1057 (2006).

================================================================================
                                        WARNINGS
                       Please study these warnings very carefully!
================================================================================


INFO   : the flag for use of the SHARK integral package has been found!

================================================================================
                                       INPUT FILE
================================================================================
NAME = pbeh-3c.inp
|  1> ! PBEh-3c def2/J TightSCF DefGrid3
|  2> 
|  3> %maxcore 60000
|  4> 
|  5> %pal
|  6> nprocs 4
|  7> end
|  8> 
|  9> *xyzfile 0 1 c2h6.xyz
| 10> 
| 11>                          ****END OF INPUT****
================================================================================

                       ****************************
                       * Single Point Calculation *
                       ****************************

---------------------------------
CARTESIAN COORDINATES (ANGSTROEM)
---------------------------------
  C     -0.000000    0.000000    0.763258
  C     -0.000000   -0.000000   -0.763258
  H     -0.880686    0.508464    1.157843
  H      0.000000   -1.016928    1.157843
  H      0.880686    0.508464    1.157843
  H      0.880686   -0.508464   -1.157843
  H     -0.880686   -0.508464   -1.157843
  H      0.000000    1.016928   -1.157843

----------------------------
CARTESIAN COORDINATES (A.U.)
----------------------------
  NO LB      ZA    FRAG     MASS         X           Y           Z
   0 C     6.0000    0    12.011   -0.000000    0.000000    1.442348
   1 C     6.0000    0    12.011   -0.000000   -0.000000   -1.442348
   2 H     1.0000    0     1.008   -1.664254    0.960858    2.188006
   3 H     1.0000    0     1.008    0.000000   -1.921716    2.188006
   4 H     1.0000    0     1.008    1.664254    0.960858    2.188006
   5 H     1.0000    0     1.008    1.664254   -0.960858   -2.188006
   6 H     1.0000    0     1.008   -1.664254   -0.960858   -2.188006
   7 H     1.0000    0     1.008    0.000000    1.921716   -2.188006

--------------------------------
INTERNAL COORDINATES (ANGSTROEM)
--------------------------------
 C      0   0   0     0.000000000000     0.00000000     0.00000000
 C      1   0   0     1.526515800000     0.00000000     0.00000000
 H      1   2   0     1.090797796346   111.20707728     0.00000000
 H      1   2   3     1.090797874896   111.20707568   119.99999949
 H      1   2   3     1.090797796346   111.20707728   239.99999898
 H      2   1   3     1.090797796346   111.20707728   180.00000000
 H      2   1   3     1.090797796346   111.20707728   300.00000102
 H      2   1   3     1.090797874896   111.20707568    60.00000051

---------------------------
INTERNAL COORDINATES (A.U.)
---------------------------
 C      0   0   0     0.000000000000     0.00000000     0.00000000
 C      1   0   0     2.884696801104     0.00000000     0.00000000
 H      1   2   0     2.061309102580   111.20707728     0.00000000
 H      1   2   3     2.061309251017   111.20707568   119.99999949
 H      1   2   3     2.061309102580   111.20707728   239.99999898
 H      2   1   3     2.061309102580   111.20707728   180.00000000
 H      2   1   3     2.061309102580   111.20707728   300.00000102
 H      2   1   3     2.061309251017   111.20707568    60.00000051

---------------------
BASIS SET INFORMATION
---------------------
There are 2 groups of distinct atoms

 Group   1 Type C   : 8s4p1d contracted to 4s2p1d pattern {5111/31/1}
 Group   2 Type H   : 4s contracted to 2s pattern {31}

Atom   0C    basis set group =>   1
Atom   1C    basis set group =>   1
Atom   2H    basis set group =>   2
Atom   3H    basis set group =>   2
Atom   4H    basis set group =>   2
Atom   5H    basis set group =>   2
Atom   6H    basis set group =>   2
Atom   7H    basis set group =>   2
---------------------------------
AUXILIARY/J BASIS SET INFORMATION
---------------------------------
There are 2 groups of distinct atoms

 Group   1 Type C   : 12s5p4d2f1g contracted to 6s4p3d1f1g pattern {711111/2111/211/2/1}
 Group   2 Type H   : 5s2p1d contracted to 3s1p1d pattern {311/2/1}

Atom   0C    basis set group =>   1
Atom   1C    basis set group =>   1
Atom   2H    basis set group =>   2
Atom   3H    basis set group =>   2
Atom   4H    basis set group =>   2
Atom   5H    basis set group =>   2
Atom   6H    basis set group =>   2
Atom   7H    basis set group =>   2


           ************************************************************
           *        Program running with 4 parallel MPI-processes     *
           *              working on a common directory               *
           ************************************************************
------------------------------------------------------------------------------
                           ORCA GTO INTEGRAL CALCULATION
                           -- RI-GTO INTEGRALS CHOSEN --
------------------------------------------------------------------------------
------------------------------------------------------------------------------
                   ___                                                        
                  /   \      - P O W E R E D   B Y -                         
                 /     \                                                     
                 |  |  |   _    _      __       _____    __    __             
                 |  |  |  | |  | |    /  \     |  _  \  |  |  /  |          
                  \  \/   | |  | |   /    \    | | | |  |  | /  /          
                 / \  \   | |__| |  /  /\  \   | |_| |  |  |/  /          
                |  |  |   |  __  | /  /__\  \  |    /   |      \           
                |  |  |   | |  | | |   __   |  |    \   |  |\   \          
                \     /   | |  | | |  |  |  |  | |\  \  |  | \   \       
                 \___/    |_|  |_| |__|  |__|  |_| \__\ |__|  \__/        
                                                                              
                      - O R C A' S   B I G   F R I E N D -                    
                                      &                                       
                       - I N T E G R A L  F E E D E R -                       
                                                                              
 v1 FN, 2020, v2 2021                                                         
------------------------------------------------------------------------------


Reading SHARK input file pbeh-3c.SHARKINP.tmp ... ok
----------------------
SHARK INTEGRAL PACKAGE
----------------------

Number of atoms                             ...      8
Number of basis functions                   ...     42
Number of shells                            ...     26
Maximum angular momentum                    ...      2
Integral batch strategy                     ... SHARK/LIBINT Hybrid
RI-J (if used) integral strategy            ... SPLIT-RIJ (Revised 2003 algorithm where possible)
Printlevel                                  ...      1
Contraction scheme used                     ... SEGMENTED contraction
Coulomb Range Separation                    ... NOT USED
Exchange Range Separation                   ... NOT USED
Finite Nucleus Model                        ... NOT USED
Auxiliary Coulomb fitting basis             ... AVAILABLE
   # of basis functions in Aux-J            ...    164
   # of shells in Aux-J                     ...     60
   Maximum angular momentum in Aux-J        ...      4
Auxiliary J/K fitting basis                 ... NOT available
Auxiliary Correlation fitting basis         ... NOT available
Auxiliary 'external' fitting basis          ... NOT available
Integral threshold                          ...     2.500000e-11
Primitive cut-off                           ...     2.500000e-12
Primitive pair pre-selection threshold      ...     2.500000e-12

Calculating pre-screening integrals         ... done (  0.0 sec) Dimension = 26
Organizing shell pair data                  ... done (  0.2 sec)
Shell pair information
Total number of shell pairs                 ...       351
Shell pairs after pre-screening             ...       350
Total number of primitive shell pairs       ...      1319
Primitive shell pairs kept                  ...      1113
          la=0 lb=0:    209 shell pairs
          la=1 lb=0:     80 shell pairs
          la=1 lb=1:     10 shell pairs
          la=2 lb=0:     40 shell pairs
          la=2 lb=1:      8 shell pairs
          la=2 lb=2:      3 shell pairs

Calculating one electron integrals          ... done (  0.0 sec)
Calculating RI/J V-Matrix + Cholesky decomp.... done (  0.4 sec)
Calculating Nuclear repulsion               ... done (  0.1 sec) ENN=     42.281590228235 Eh

SHARK setup successfully completed in   2.5 seconds

Maximum memory used throughout the entire GTOINT-calculation: 9.0 MB


           ************************************************************
           *        Program running with 4 parallel MPI-processes     *
           *              working on a common directory               *
           ************************************************************
-------------------------------------------------------------------------------
                                 ORCA SCF
-------------------------------------------------------------------------------

------------
SCF SETTINGS
------------
Hamiltonian:
 Density Functional     Method          .... DFT(GTOs)
 Exchange Functional    Exchange        .... PBE
   PBE kappa parameter   XKappa         ....  1.024500
   PBE mue parameter    XMuePBE         ....  0.123457
 Correlation Functional Correlation     .... PBE
   PBE beta parameter  CBetaPBE         ....  0.030000
 LDA part of GGA corr.  LDAOpt          .... PW91-LDA
 Gradients option       PostSCFGGA      .... off
 Hybrid DFT is turned on
   Fraction HF Exchange ScalHFX         ....  0.420000
   Scaling of DF-GGA-X  ScalDFX         ....  0.580000
   Scaling of DF-GGA-C  ScalDFC         ....  1.000000
   Scaling of DF-LDA-C  ScalLDAC        ....  1.000000
   Perturbative correction              ....  0.000000
   Density functional embedding theory  .... OFF
 RI-approximation to the Coulomb term is turned on
   Number of AuxJ basis functions       .... 164
   RIJ-ON(X) (HFX calculated with O(N)) .... on
   Number of AuxJ basis functions       .... 164
   RIJ-COSX (HFX calculated with COS-X)).... on


General Settings:
 Integral files         IntName         .... pbeh-3c
 Hartree-Fock type      HFTyp           .... RHF
 Total Charge           Charge          ....    0
 Multiplicity           Mult            ....    1
 Number of Electrons    NEL             ....   18
 Basis Dimension        Dim             ....   42
 Nuclear Repulsion      ENuc            ....     42.2815902282 Eh

Convergence Acceleration:
 DIIS                   CNVDIIS         .... on
   Start iteration      DIISMaxIt       ....    12
   Startup error        DIISStart       ....  0.200000
   # of expansion vecs  DIISMaxEq       ....     5
   Bias factor          DIISBfac        ....   1.050
   Max. coefficient     DIISMaxC        ....  10.000
 Trust-Rad. Augm. Hess. CNVTRAH         .... auto
   Auto Start mean grad. ratio tolernc. ....  1.125000
   Auto Start start iteration           ....    20
   Auto Start num. interpolation iter.  ....    10
   Max. Number of Micro iterations      ....    16
   Max. Number of Macro iterations      .... Maxiter - #DIIS iter
   Number of Davidson start vectors     ....     2
   Converg. threshold I  (grad. norm)   ....   1.000e-05
   Converg. threshold II (energy diff.) ....   1.000e-08
   Grad. Scal. Fac. for Micro threshold ....   0.100
   Minimum threshold for Micro iter.    ....   0.010
   NR start threshold (gradient norm)   ....   0.001
   Initial trust radius                 ....   0.400
   Minimum AH scaling param. (alpha)    ....   1.000
   Maximum AH scaling param. (alpha)    .... 1000.000
   Orbital update algorithm             .... Taylor
   White noise on init. David. guess    .... on
   Maximum white noise                  ....   0.010
   Quad. conv. algorithm                .... NR
   COSX micro iterations for RIJONX calc.... off
 SOSCF                  CNVSOSCF        .... on
   Start iteration      SOSCFMaxIt      ....   150
   Startup grad/error   SOSCFStart      ....  0.003300
 Level Shifting         CNVShift        .... on
   Level shift para.    LevelShift      ....    0.2500
   Turn off err/grad.   ShiftErr        ....    0.0010
 Zerner damping         CNVZerner       .... off
 Static damping         CNVDamp         .... on
   Fraction old density DampFac         ....    0.7000
   Max. Damping (<1)    DampMax         ....    0.9800
   Min. Damping (>=0)   DampMin         ....    0.0000
   Turn off err/grad.   DampErr         ....    0.1000
 Fernandez-Rico         CNVRico         .... off

SCF Procedure:
 Maximum # iterations   MaxIter         ....   125
 SCF integral mode      SCFMode         .... Direct
   Integral package                     .... SHARK and LIBINT hybrid scheme
 Reset frequency        DirectResetFreq ....    20
 Integral Threshold     Thresh          ....  2.500e-11 Eh
 Primitive CutOff       TCut            ....  2.500e-12 Eh

Convergence Tolerance:
 Convergence Check Mode ConvCheckMode   .... Total+1el-Energy
 Convergence forced     ConvForced      .... 0
 Energy Change          TolE            ....  1.000e-08 Eh
 1-El. energy change                    ....  1.000e-05 Eh
 Orbital Gradient       TolG            ....  1.000e-05
 Orbital Rotation angle TolX            ....  1.000e-05
 DIIS Error             TolErr          ....  5.000e-07


Diagonalization of the overlap matrix:
Smallest eigenvalue                        ... 1.072e-02
Time for diagonalization                   ...    0.001 sec
Threshold for overlap eigenvalues          ... 1.000e-08
Number of eigenvalues below threshold      ... 0
Time for construction of square roots      ...    0.182 sec
Total time needed                          ...    0.183 sec

--------------------------------
INITIAL GUESS: MINIMAL BASIS EHT
--------------------------------
The minimal basis has 16 functions
EHT matrix was diagonalized
Basis set overlap was calculated now projecting the orbitals
Using GuessMode=FMatrix for the initial guess
C*T matrix was formed
Effective Fockian was calculated
Effective Fockian was diagonalized
Initial density was built
                      ------------------
                      INITIAL GUESS DONE
                      ------------------
-------------------
DFT GRID GENERATION
-------------------

General Integration Accuracy     IntAcc      ... 4.959
Radial Grid Type                 RadialGrid  ... OptM3 with GC (2021)
Angular Grid (max. ang.)         AngularGrid ... 6 (Lebedev-590)
Angular grid pruning method      GridPruning ... 4 (adaptive)
Weight generation scheme         WeightScheme... Becke
Basis function cutoff            BFCut       ... 1.0000e-11
Integration weight cutoff        WCut        ... 1.0000e-14
Angular grids for H and He will be reduced by one unit
Partially contracted basis set               ... off
Rotationally invariant grid construction     ... off

Total number of grid points                  ...    82234
Total number of batches                      ...     1288
Average number of points per batch           ...       63
Average number of grid points per atom       ...    10279
Time for grid setup =    2.184 sec

--------------------
COSX GRID GENERATION
--------------------

GRIDX 1
-------
General Integration Accuracy     IntAcc      ... 4.020
Radial Grid Type                 RadialGrid  ... OptM3 with GC (2021)
Angular Grid (max. ang.)         AngularGrid ... 2 (Lebedev-110)
Angular grid pruning method      GridPruning ... 4 (adaptive)
Weight generation scheme         WeightScheme... Becke
Basis function cutoff            BFCut       ... 1.0000e-11
Integration weight cutoff        WCut        ... 1.0000e-14
Angular grids for H and He will be reduced by one unit
Partially contracted basis set               ... on
Rotationally invariant grid construction     ... off

Total number of grid points                  ...     8410
Total number of batches                      ...      136
Average number of points per batch           ...       61
Average number of grid points per atom       ...     1051
UseSFitting                                  ... on

GRIDX 2
-------
General Integration Accuracy     IntAcc      ... 4.338
Radial Grid Type                 RadialGrid  ... OptM3 with GC (2021)
Angular Grid (max. ang.)         AngularGrid ... 3 (Lebedev-194)
Angular grid pruning method      GridPruning ... 4 (adaptive)
Weight generation scheme         WeightScheme... Becke
Basis function cutoff            BFCut       ... 1.0000e-11
Integration weight cutoff        WCut        ... 1.0000e-14
Angular grids for H and He will be reduced by one unit
Partially contracted basis set               ... on
Rotationally invariant grid construction     ... off

Total number of grid points                  ...    18412
Total number of batches                      ...      291
Average number of points per batch           ...       63
Average number of grid points per atom       ...     2302
UseSFitting                                  ... on

GRIDX 3
-------
General Integration Accuracy     IntAcc      ... 4.871
Radial Grid Type                 RadialGrid  ... OptM3 with GC (2021)
Angular Grid (max. ang.)         AngularGrid ... 4 (Lebedev-302)
Angular grid pruning method      GridPruning ... 4 (adaptive)
Weight generation scheme         WeightScheme... Becke
Basis function cutoff            BFCut       ... 1.0000e-11
Integration weight cutoff        WCut        ... 1.0000e-14
Angular grids for H and He will be reduced by one unit
Partially contracted basis set               ... on
Rotationally invariant grid construction     ... off

Total number of grid points                  ...    38034
Total number of batches                      ...      597
Average number of points per batch           ...       63
Average number of grid points per atom       ...     4754
UseSFitting                                  ... on

Time for X-Grid setup             =    4.073 sec

--------------
SCF ITERATIONS
--------------
ITER       Energy         Delta-E        Max-DP      RMS-DP      [F,P]     Damp
               ***  Starting incremental Fock matrix formation  ***
  0    -79.5041328785   0.000000000000 0.02361199  0.00307130  0.3988806 0.7000
  1    -79.5485721037  -0.044439225183 0.01735686  0.00231753  0.2826362 0.7000
                               ***Turning on DIIS***
  2    -79.5802563771  -0.031684273420 0.01224671  0.00168817  0.1993575 0.7000
  3    -79.6026720064  -0.022415629319 0.01004828  0.00125026  0.1405012 0.7000
  4    -79.6185021888  -0.015830182357 0.02501304  0.00302024  0.0984375 0.0000
                      *** Initiating the SOSCF procedure ***
                           *** Shutting down DIIS ***
                      *** Re-Reading the Fockian *** 
                      *** Removing any level shift *** 
ITER      Energy       Delta-E        Grad      Rot      Max-DP    RMS-DP
  5    -79.65596672  -0.0374645325  0.000726  0.000726  0.000884  0.000118
               *** Restarting incremental Fock matrix formation ***
  6    -79.65596916  -0.0000024348  0.000453  0.000500  0.000789  0.000063
  7    -79.65596940  -0.0000002470  0.000334  0.000192  0.000380  0.000030
  8    -79.65597035  -0.0000009429  0.000005  0.000008  0.000011  0.000001
                 **** Energy Check signals convergence ****
              ***Rediagonalizing the Fockian in SOSCF/NRSCF***

               *****************************************************
               *                     SUCCESS                       *
               *           SCF CONVERGED AFTER   9 CYCLES          *
               *****************************************************

Old exchange energy                            =     -5.242766090 Eh
New exchange energy                            =     -5.242768514 Eh
Exchange energy change after final integration =     -0.000002424 Eh
Total energy after final integration           =    -79.655972770 Eh
Final COS-X integration done in                =     0.532 sec

----------------
TOTAL SCF ENERGY
----------------

Total Energy       :          -79.65597277 Eh           -2167.54922 eV

Components:
Nuclear Repulsion  :           42.28159023 Eh            1150.54056 eV
Electronic Energy  :         -121.93756300 Eh           -3318.08978 eV
One Electron Energy:         -189.33593367 Eh           -5152.09268 eV
Two Electron Energy:           67.39837067 Eh            1834.00290 eV
Max COSX asymmetry :            0.00000055 Eh               0.00002 eV

Virial components:
Potential Energy   :         -158.61958354 Eh           -4316.25830 eV
Kinetic Energy     :           78.96361077 Eh            2148.70909 eV
Virial Ratio       :            2.00876811


DFT components:
N(Alpha)           :        9.000000081960 electrons
N(Beta)            :        9.000000081960 electrons
N(Total)           :       18.000000163920 electrons
E(X)               :       -6.937733286243 Eh       
E(C)               :       -0.738747474630 Eh       
E(XC)              :       -7.676480760873 Eh       
DFET-embed. en.    :        0.000000000000 Eh       

---------------
SCF CONVERGENCE
---------------

  Last Energy change         ...   -6.4503e-10  Tolerance :   1.0000e-08
  Last MAX-Density change    ...    1.1102e-15  Tolerance :   1.0000e-07
  Last RMS-Density change    ...    5.5129e-17  Tolerance :   5.0000e-09
  Last Orbital Gradient      ...    1.0864e-06  Tolerance :   1.0000e-05
  Last Orbital Rotation      ...    1.4274e-06  Tolerance :   1.0000e-05

             **** THE GBW FILE WAS UPDATED (pbeh-3c.gbw) ****
             **** DENSITY pbeh-3c.scfp WAS UPDATED ****
             **** ENERGY FILE WAS UPDATED (pbeh-3c.en.tmp) ****
             **** THE GBW FILE WAS UPDATED (pbeh-3c.gbw) ****
             **** DENSITY pbeh-3c.scfp WAS UPDATED ****
----------------
ORBITAL ENERGIES
----------------

  NO   OCC          E(Eh)            E(eV) 
   0   2.0000     -10.421815      -283.5920 
   1   2.0000     -10.421608      -283.5864 
   2   2.0000      -0.838460       -22.8157 
   3   2.0000      -0.689276       -18.7562 
   4   2.0000      -0.491144       -13.3647 
   5   2.0000      -0.491144       -13.3647 
   6   2.0000      -0.417933       -11.3725 
   7   2.0000      -0.391843       -10.6626 
   8   2.0000      -0.391843       -10.6626 
   9   0.0000       0.154851         4.2137 
  10   0.0000       0.201295         5.4775 
  11   0.0000       0.219185         5.9643 
  12   0.0000       0.219187         5.9644 
  13   0.0000       0.225007         6.1228 
  14   0.0000       0.225013         6.1229 
  15   0.0000       0.266305         7.2465 
  16   0.0000       0.488200        13.2846 
  17   0.0000       0.527574        14.3560 
  18   0.0000       0.527605        14.3569 
  19   0.0000       0.577842        15.7239 
  20   0.0000       0.577852        15.7241 
  21   0.0000       0.676415        18.4062 
  22   0.0000       1.009113        27.4594 
  23   0.0000       1.009123        27.4596 
  24   0.0000       1.014600        27.6087 
  25   0.0000       1.060240        28.8506 
  26   0.0000       1.060243        28.8507 
  27   0.0000       1.083382        29.4803 
  28   0.0000       1.090980        29.6871 
  29   0.0000       1.426534        38.8180 
  30   0.0000       1.579227        42.9730 
  31   0.0000       1.579228        42.9730 
  32   0.0000       1.989076        54.1255 
  33   0.0000       2.023956        55.0746 
  34   0.0000       2.023956        55.0747 
  35   0.0000       2.352896        64.0255 
  36   0.0000       2.352897        64.0256 
  37   0.0000       2.414116        65.6914 
  38   0.0000       2.414116        65.6914 
  39   0.0000       2.621230        71.3273 
  40   0.0000      13.640162       371.1677 
  41   0.0000      13.919607       378.7718 

                    ********************************
                    * MULLIKEN POPULATION ANALYSIS *
                    ********************************

-----------------------
MULLIKEN ATOMIC CHARGES
-----------------------
   0 C :   -0.637977
   1 C :   -0.637977
   2 H :    0.212660
   3 H :    0.212658
   4 H :    0.212660
   5 H :    0.212660
   6 H :    0.212660
   7 H :    0.212658
Sum of atomic charges:    0.0000000

--------------------------------
MULLIKEN REDUCED ORBITAL CHARGES
--------------------------------
  0 C s       :     3.375099  s :     3.375099
      pz      :     0.968606  p :     3.225621
      px      :     1.128511
      py      :     1.128503
      dz2     :     0.008486  d :     0.037257
      dxz     :     0.007587
      dyz     :     0.007587
      dx2y2   :     0.006799
      dxy     :     0.006799
  1 C s       :     3.375099  s :     3.375099
      pz      :     0.968606  p :     3.225621
      px      :     1.128511
      py      :     1.128503
      dz2     :     0.008486  d :     0.037257
      dxz     :     0.007587
      dyz     :     0.007587
      dx2y2   :     0.006799
      dxy     :     0.006799
  2 H s       :     0.787340  s :     0.787340
  3 H s       :     0.787342  s :     0.787342
  4 H s       :     0.787340  s :     0.787340
  5 H s       :     0.787340  s :     0.787340
  6 H s       :     0.787340  s :     0.787340
  7 H s       :     0.787342  s :     0.787342


                     *******************************
                     * LOEWDIN POPULATION ANALYSIS *
                     *******************************

----------------------
LOEWDIN ATOMIC CHARGES
----------------------
   0 C :   -0.371223
   1 C :   -0.371223
   2 H :    0.123741
   3 H :    0.123741
   4 H :    0.123741
   5 H :    0.123741
   6 H :    0.123741
   7 H :    0.123741

-------------------------------
LOEWDIN REDUCED ORBITAL CHARGES
-------------------------------
  0 C s       :     2.954085  s :     2.954085
      pz      :     1.079501  p :     3.348158
      px      :     1.134330
      py      :     1.134327
      dz2     :     0.018396  d :     0.068981
      dxz     :     0.014386
      dyz     :     0.014386
      dx2y2   :     0.010906
      dxy     :     0.010907
  1 C s       :     2.954085  s :     2.954085
      pz      :     1.079501  p :     3.348158
      px      :     1.134330
      py      :     1.134327
      dz2     :     0.018396  d :     0.068981
      dxz     :     0.014386
      dyz     :     0.014386
      dx2y2   :     0.010906
      dxy     :     0.010907
  2 H s       :     0.876259  s :     0.876259
  3 H s       :     0.876259  s :     0.876259
  4 H s       :     0.876259  s :     0.876259
  5 H s       :     0.876259  s :     0.876259
  6 H s       :     0.876259  s :     0.876259
  7 H s       :     0.876259  s :     0.876259


                      *****************************
                      * MAYER POPULATION ANALYSIS *
                      *****************************

  NA   - Mulliken gross atomic population
  ZA   - Total nuclear charge
  QA   - Mulliken gross atomic charge
  VA   - Mayer's total valence
  BVA  - Mayer's bonded valence
  FA   - Mayer's free valence

  ATOM       NA         ZA         QA         VA         BVA        FA
  0 C      6.6380     6.0000    -0.6380     3.7549     3.7549     0.0000
  1 C      6.6380     6.0000    -0.6380     3.7549     3.7549    -0.0000
  2 H      0.7873     1.0000     0.2127     0.9119     0.9119     0.0000
  3 H      0.7873     1.0000     0.2127     0.9119     0.9119    -0.0000
  4 H      0.7873     1.0000     0.2127     0.9119     0.9119     0.0000
  5 H      0.7873     1.0000     0.2127     0.9119     0.9119    -0.0000
  6 H      0.7873     1.0000     0.2127     0.9119     0.9119     0.0000
  7 H      0.7873     1.0000     0.2127     0.9119     0.9119    -0.0000

  Mayer bond orders larger than 0.100000
B(  0-C ,  1-C ) :   0.9963 B(  0-C ,  2-H ) :   0.9315 B(  0-C ,  3-H ) :   0.9315 
B(  0-C ,  4-H ) :   0.9315 B(  1-C ,  5-H ) :   0.9315 B(  1-C ,  6-H ) :   0.9315 
B(  1-C ,  7-H ) :   0.9315 

-------
TIMINGS
-------

Total SCF time: 0 days 0 hours 0 min 43 sec 

Total time                  ....      43.663 sec
Sum of individual times     ....      38.117 sec  ( 87.3%)

Fock matrix formation       ....      29.409 sec  ( 67.4%)
  Split-RI-J                ....       4.164 sec  ( 14.2% of F)
  Chain of spheres X        ....       5.208 sec  ( 17.7% of F)
  XC integration            ....       8.938 sec  ( 30.4% of F)
    Basis function eval.    ....       0.523 sec  (  5.9% of XC)
    Density eval.           ....       0.331 sec  (  3.7% of XC)
    XC-Functional eval.     ....       0.475 sec  (  5.3% of XC)
    XC-Potential eval.      ....       0.137 sec  (  1.5% of XC)
Diagonalization             ....       0.396 sec  (  0.9%)
Density matrix formation    ....       0.047 sec  (  0.1%)
Population analysis         ....       0.495 sec  (  1.1%)
Initial guess               ....       0.002 sec  (  0.0%)
Orbital Transformation      ....       0.000 sec  (  0.0%)
Orbital Orthonormalization  ....       0.000 sec  (  0.0%)
DIIS solution               ....       0.865 sec  (  2.0%)
SOSCF solution              ....       0.645 sec  (  1.5%)
Grid generation             ....       6.257 sec  ( 14.3%)

Maximum memory used throughout the entire SCF-calculation: 45.7 MB


-------------------------------------------------------------------------------
                          DFT DISPERSION CORRECTION                            
                                                                               
                              DFTD3 V3.1  Rev 1                                
                          USING Becke-Johnson damping                          
-------------------------------------------------------------------------------
The PBEh-3c composite method is recognized
Using three-body term ABC
Active option DFTDOPT                   ...         4   

molecular C6(AA) [au] = 363.970044 


            DFT-D V3
 parameters
 s6 scaling factor         :     1.0000 
 a1 scaling factor         :     0.4860 
 s8 scaling factor         :     0.0000 
 a2 scaling factor         :     4.5000 
 Damping factor alpha9(ATM):    16.0000 
 ad hoc parameters k1-k3   :    16.0000     1.3333    -4.0000 

 Edisp/kcal,au: -1.182535086195  -0.001884489412 
 E6   /kcal   :  -1.183134966 
 E8   /kcal   :  -0.000000000 
 E6(ABC)      :   0.000599880 
 % E8         :   0.000000000 
 % E6(ABC)    :  -0.050728271 

-------------------------   ----------------
Dispersion correction           -0.001884489
-------------------------   ----------------

------------------   -----------------
gCP correction             0.006976585
------------------   -----------------

-------------------------   --------------------
FINAL SINGLE POINT ENERGY       -79.650880674512
-------------------------   --------------------


                            ***************************************
                            *     ORCA property calculations      *
                            ***************************************

                                    ---------------------
                                    Active property flags
                                    ---------------------
   (+) Dipole Moment


------------------------------------------------------------------------------
                       ORCA ELECTRIC PROPERTIES CALCULATION
------------------------------------------------------------------------------

Dipole Moment Calculation                       ... on
Quadrupole Moment Calculation                   ... off
Polarizability Calculation                      ... off
GBWName                                         ... pbeh-3c.gbw
Electron density                                ... pbeh-3c.scfp
The origin for moment calculation is the CENTER OF MASS  = ( 0.000000,  0.000000 -0.000000)

-------------
DIPOLE MOMENT
-------------
                                X             Y             Z
Electronic contribution:      0.00000       0.00000      -0.00000
Nuclear contribution   :      0.00000       0.00000       0.00000
                        -----------------------------------------
Total Dipole Moment    :      0.00000       0.00000      -0.00000
                        -----------------------------------------
Magnitude (a.u.)       :      0.00000
Magnitude (Debye)      :      0.00000



--------------------
Rotational spectrum 
--------------------
 
Rotational constants in cm-1:     2.695285     0.668172     0.668172 
Rotational constants in MHz : 80802.607071 20031.280002 20031.279779 

 Dipole components along the rotational axes: 
x,y,z [a.u.] :     0.000000    -0.000000     0.000000 
x,y,z [Debye]:     0.000000    -0.000000     0.000000 

 

Timings for individual modules:

Sum of individual times         ...       48.667 sec (=   0.811 min)
GTO integral calculation        ...        3.913 sec (=   0.065 min)   8.0 %
SCF iterations                  ...       44.754 sec (=   0.746 min)  92.0 %
                             ****ORCA TERMINATED NORMALLY****
TOTAL RUN TIME: 0 days 0 hours 0 minutes 56 seconds 199 msec
