
                                 *****************
                                 * O   R   C   A *
                                 *****************

                                            #,                                       
                                            ###                                      
                                            ####                                     
                                            #####                                    
                                            ######                                   
                                           ########,                                 
                                     ,,################,,,,,                         
                               ,,#################################,,                 
                          ,,##########################################,,             
                       ,#########################################, ''#####,          
                    ,#############################################,,   '####,        
                  ,##################################################,,,,####,       
                ,###########''''           ''''###############################       
              ,#####''   ,,,,##########,,,,          '''####'''          '####       
            ,##' ,,,,###########################,,,                        '##       
           ' ,,###''''                  '''############,,,                           
         ,,##''                                '''############,,,,        ,,,,,,###''
      ,#''                                            '''#######################'''  
     '                                                          ''''####''''         
             ,#######,   #######,   ,#######,      ##                                
            ,#'     '#,  ##    ##  ,#'     '#,    #''#        ######   ,####,        
            ##       ##  ##   ,#'  ##            #'  '#       #        #'  '#        
            ##       ##  #######   ##           ,######,      #####,   #    #        
            '#,     ,#'  ##    ##  '#,     ,#' ,#      #,         ##   #,  ,#        
             '#######'   ##     ##  '#######'  #'      '#     #####' # '####'        



                  #######################################################
                  #                        -***-                        #
                  #          Department of theory and spectroscopy      #
                  #    Directorship and core code : Frank Neese         #
                  #        Max Planck Institute fuer Kohlenforschung    #
                  #                Kaiser Wilhelm Platz 1               #
                  #                 D-45470 Muelheim/Ruhr               #
                  #                      Germany                        #
                  #                                                     #
                  #                  All rights reserved                #
                  #                        -***-                        #
                  #######################################################


                         Program Version 5.0.3 -  RELEASE  -


 With contributions from (in alphabetic order):
   Daniel Aravena         : Magnetic Suceptibility
   Michael Atanasov       : Ab Initio Ligand Field Theory (pilot matlab implementation)
   Alexander A. Auer      : GIAO ZORA, VPT2 properties, NMR spectrum
   Ute Becker             : Parallelization
   Giovanni Bistoni       : ED, misc. LED, open-shell LED, HFLD
   Martin Brehm           : Molecular dynamics
   Dmytro Bykov           : SCF Hessian
   Vijay G. Chilkuri      : MRCI spin determinant printing, contributions to CSF-ICE
   Dipayan Datta          : RHF DLPNO-CCSD density
   Achintya Kumar Dutta   : EOM-CC, STEOM-CC
   Dmitry Ganyushin       : Spin-Orbit,Spin-Spin,Magnetic field MRCI
   Miquel Garcia          : C-PCM and meta-GGA Hessian, CC/C-PCM, Gaussian charge scheme
   Yang Guo               : DLPNO-NEVPT2, F12-NEVPT2, CIM, IAO-localization
   Andreas Hansen         : Spin unrestricted coupled pair/coupled cluster methods
   Benjamin Helmich-Paris : MC-RPA, TRAH-SCF, COSX integrals
   Lee Huntington         : MR-EOM, pCC
   Robert Izsak           : Overlap fitted RIJCOSX, COSX-SCS-MP3, EOM
   Marcus Kettner         : VPT2
   Christian Kollmar      : KDIIS, OOCD, Brueckner-CCSD(T), CCSD density, CASPT2, CASPT2-K
   Simone Kossmann        : Meta GGA functionals, TD-DFT gradient, OOMP2, MP2 Hessian
   Martin Krupicka        : Initial AUTO-CI
   Lucas Lang             : DCDCAS
   Marvin Lechner         : AUTO-CI (C++ implementation), FIC-MRCC
   Dagmar Lenk            : GEPOL surface, SMD
   Dimitrios Liakos       : Extrapolation schemes; Compound Job, initial MDCI parallelization
   Dimitrios Manganas     : Further ROCIS development; embedding schemes
   Dimitrios Pantazis     : SARC Basis sets
   Anastasios Papadopoulos: AUTO-CI, single reference methods and gradients
   Taras Petrenko         : DFT Hessian,TD-DFT gradient, ASA, ECA, R-Raman, ABS, FL, XAS/XES, NRVS
   Peter Pinski           : DLPNO-MP2, DLPNO-MP2 Gradient
   Christoph Reimann      : Effective Core Potentials
   Marius Retegan         : Local ZFS, SOC
   Christoph Riplinger    : Optimizer, TS searches, QM/MM, DLPNO-CCSD(T), (RO)-DLPNO pert. Triples
   Tobias Risthaus        : Range-separated hybrids, TD-DFT gradient, RPA, STAB
   Michael Roemelt        : Original ROCIS implementation
   Masaaki Saitow         : Open-shell DLPNO-CCSD energy and density
   Barbara Sandhoefer     : DKH picture change effects
   Avijit Sen             : IP-ROCIS
   Kantharuban Sivalingam : CASSCF convergence, NEVPT2, FIC-MRCI
   Bernardo de Souza      : ESD, SOC TD-DFT
   Georgi Stoychev        : AutoAux, RI-MP2 NMR, DLPNO-MP2 response
   Willem Van den Heuvel  : Paramagnetic NMR
   Boris Wezisla          : Elementary symmetry handling
   Frank Wennmohs         : Technical directorship


 We gratefully acknowledge several colleagues who have allowed us to
 interface, adapt or use parts of their codes:
   Stefan Grimme, W. Hujo, H. Kruse, P. Pracht,  : VdW corrections, initial TS optimization,
                  C. Bannwarth, S. Ehlert          DFT functionals, gCP, sTDA/sTD-DF
   Ed Valeev, F. Pavosevic, A. Kumar             : LibInt (2-el integral package), F12 methods
   Garnet Chan, S. Sharma, J. Yang, R. Olivares  : DMRG
   Ulf Ekstrom                                   : XCFun DFT Library
   Mihaly Kallay                                 : mrcc  (arbitrary order and MRCC methods)
   Jiri Pittner, Ondrej Demel                    : Mk-CCSD
   Frank Weinhold                                : gennbo (NPA and NBO analysis)
   Christopher J. Cramer and Donald G. Truhlar   : smd solvation model
   Lars Goerigk                                  : TD-DFT with DH, B97 family of functionals
   V. Asgeirsson, H. Jonsson                     : NEB implementation
   FAccTs GmbH                                   : IRC, NEB, NEB-TS, DLPNO-Multilevel, CI-OPT
                                                   MM, QMMM, 2- and 3-layer-ONIOM, Crystal-QMMM,
                                                   LR-CPCM, SF, NACMEs, symmetry and pop. for TD-DFT,
                                                   nearIR, NL-DFT gradient (VV10), updates on ESD,
                                                   ML-optimized integration grids
   S Lehtola, MJT Oliveira, MAL Marques          : LibXC Library
   Liviu Ungur et al                             : ANISO software


 Your calculation uses the libint2 library for the computation of 2-el integrals
 For citations please refer to: http://libint.valeyev.net

 Your ORCA version has been built with support for libXC version: 5.1.0
 For citations please refer to: https://tddft.org/programs/libxc/

 This ORCA versions uses:
   CBLAS   interface :  Fast vector & matrix operations
   LAPACKE interface :  Fast linear algebra routines
   SCALAPACK package :  Parallel linear algebra routines
   Shared memory     :  Shared parallel matrices
   BLAS/LAPACK       :  OpenBLAS 0.3.15  USE64BITINT DYNAMIC_ARCH NO_AFFINITY Haswell SINGLE_THREADED
        Core in use  :  Haswell
   Copyright (c) 2011-2014, The OpenBLAS Project




***************************************
The coordinates will be read from file: 1p2.xyz
***************************************


Your calculation utilizes the geometrical counterpoise correction gCP
Please cite in your paper:
H.Kruse, S. Grimme J.Chem.Phys., 136, (2012), 154101 
   

Your calculation utilizes the atom-pairwise dispersion correction
with the Becke-Johnson damping scheme (D3BJ)
Cite in your paper:
S.Grimme, S.Ehrlich, L.Goerigk, J Comput Chem, (2011), 32, 1456–1465 
S.Grimme, J.Antony, S.Ehrlich and H.Krieg, J.Chem.Phys., 132, (2010), 154104 
   

Your calculation employs the composite approach PBEh-3c.
Please cite in your paper:
S. Grimme, J. G. Brandenburg, C. Bannwarth, A. Hansen J.Chem.Phys., 143, (2015), 054107 
   

================================================================================

----- Orbital basis set information -----
Your calculation utilizes the basis: def2-mSVP

----- AuxJ basis set information -----
Your calculation utilizes the auxiliary basis: def2/J
   F. Weigend, Phys. Chem. Chem. Phys. 8, 1057 (2006).

================================================================================
                                        WARNINGS
                       Please study these warnings very carefully!
================================================================================


INFO   : the flag for use of the SHARK integral package has been found!

================================================================================
                                       INPUT FILE
================================================================================
NAME = pbeh-3c.inp
|  1> ! PBEh-3c def2/J TightSCF DefGrid3
|  2> 
|  3> %maxcore 60000
|  4> 
|  5> %pal
|  6> nprocs 4
|  7> end
|  8> 
|  9> *xyzfile 1 1 1p2.xyz
| 10> 
| 11>                          ****END OF INPUT****
================================================================================

                       ****************************
                       * Single Point Calculation *
                       ****************************

---------------------------------
CARTESIAN COORDINATES (ANGSTROEM)
---------------------------------
  C     -0.000000    0.000000   -0.485478
  C     -0.000000    0.000000    0.932442
  O     -0.000000    0.000000    2.043247
  H      0.521214   -0.902768   -0.830071
  H      0.521214    0.902768   -0.830071
  H     -1.042427    0.000000   -0.830071

----------------------------
CARTESIAN COORDINATES (A.U.)
----------------------------
  NO LB      ZA    FRAG     MASS         X           Y           Z
   0 C     6.0000    0    12.011   -0.000000    0.000000   -0.917420
   1 C     6.0000    0    12.011   -0.000000    0.000000    1.762060
   2 O     8.0000    0    15.999   -0.000000    0.000000    3.861178
   3 H     1.0000    0     1.008    0.984951   -1.705985   -1.568606
   4 H     1.0000    0     1.008    0.984951    1.705985   -1.568606
   5 H     1.0000    0     1.008   -1.969902    0.000000   -1.568606

--------------------------------
INTERNAL COORDINATES (ANGSTROEM)
--------------------------------
 C      0   0   0     0.000000000000     0.00000000     0.00000000
 C      1   0   0     1.417919800000     0.00000000     0.00000000
 O      2   1   0     1.110805100000   179.99999829     0.00000000
 H      1   2   3     1.097906638100   108.29223334     0.00000000
 H      1   2   3     1.097906638100   108.29223334     0.00000000
 H      1   2   3     1.097906586130   108.29223424     0.00000000

---------------------------
INTERNAL COORDINATES (A.U.)
---------------------------
 C      0   0   0     0.000000000000     0.00000000     0.00000000
 C      1   0   0     2.679480101864     0.00000000     0.00000000
 O      2   1   0     2.099117427163   179.99999829     0.00000000
 H      1   2   3     2.074742866624   108.29223334     0.00000000
 H      1   2   3     2.074742866624   108.29223334     0.00000000
 H      1   2   3     2.074742768414   108.29223424     0.00000000

---------------------
BASIS SET INFORMATION
---------------------
There are 3 groups of distinct atoms

 Group   1 Type C   : 8s4p1d contracted to 4s2p1d pattern {5111/31/1}
 Group   2 Type O   : 8s4p1d contracted to 4s2p1d pattern {5111/31/1}
 Group   3 Type H   : 4s contracted to 2s pattern {31}

Atom   0C    basis set group =>   1
Atom   1C    basis set group =>   1
Atom   2O    basis set group =>   2
Atom   3H    basis set group =>   3
Atom   4H    basis set group =>   3
Atom   5H    basis set group =>   3
---------------------------------
AUXILIARY/J BASIS SET INFORMATION
---------------------------------
There are 3 groups of distinct atoms

 Group   1 Type C   : 12s5p4d2f1g contracted to 6s4p3d1f1g pattern {711111/2111/211/2/1}
 Group   2 Type O   : 12s5p4d2f1g contracted to 6s4p3d1f1g pattern {711111/2111/211/2/1}
 Group   3 Type H   : 5s2p1d contracted to 3s1p1d pattern {311/2/1}

Atom   0C    basis set group =>   1
Atom   1C    basis set group =>   1
Atom   2O    basis set group =>   2
Atom   3H    basis set group =>   3
Atom   4H    basis set group =>   3
Atom   5H    basis set group =>   3


           ************************************************************
           *        Program running with 4 parallel MPI-processes     *
           *              working on a common directory               *
           ************************************************************
------------------------------------------------------------------------------
                           ORCA GTO INTEGRAL CALCULATION
                           -- RI-GTO INTEGRALS CHOSEN --
------------------------------------------------------------------------------
------------------------------------------------------------------------------
                   ___                                                        
                  /   \      - P O W E R E D   B Y -                         
                 /     \                                                     
                 |  |  |   _    _      __       _____    __    __             
                 |  |  |  | |  | |    /  \     |  _  \  |  |  /  |          
                  \  \/   | |  | |   /    \    | | | |  |  | /  /          
                 / \  \   | |__| |  /  /\  \   | |_| |  |  |/  /          
                |  |  |   |  __  | /  /__\  \  |    /   |      \           
                |  |  |   | |  | | |   __   |  |    \   |  |\   \          
                \     /   | |  | | |  |  |  |  | |\  \  |  | \   \       
                 \___/    |_|  |_| |__|  |__|  |_| \__\ |__|  \__/        
                                                                              
                      - O R C A' S   B I G   F R I E N D -                    
                                      &                                       
                       - I N T E G R A L  F E E D E R -                       
                                                                              
 v1 FN, 2020, v2 2021                                                         
------------------------------------------------------------------------------


Reading SHARK input file pbeh-3c.SHARKINP.tmp ... ok
----------------------
SHARK INTEGRAL PACKAGE
----------------------

Number of atoms                             ...      6
Number of basis functions                   ...     51
Number of shells                            ...     27
Maximum angular momentum                    ...      2
Integral batch strategy                     ... SHARK/LIBINT Hybrid
RI-J (if used) integral strategy            ... SPLIT-RIJ (Revised 2003 algorithm where possible)
Printlevel                                  ...      1
Contraction scheme used                     ... SEGMENTED contraction
Coulomb Range Separation                    ... NOT USED
Exchange Range Separation                   ... NOT USED
Finite Nucleus Model                        ... NOT USED
Auxiliary Coulomb fitting basis             ... AVAILABLE
   # of basis functions in Aux-J            ...    180
   # of shells in Aux-J                     ...     60
   Maximum angular momentum in Aux-J        ...      4
Auxiliary J/K fitting basis                 ... NOT available
Auxiliary Correlation fitting basis         ... NOT available
Auxiliary 'external' fitting basis          ... NOT available
Integral threshold                          ...     2.500000e-11
Primitive cut-off                           ...     2.500000e-12
Primitive pair pre-selection threshold      ...     2.500000e-12

Calculating pre-screening integrals         ... done (  0.0 sec) Dimension = 27
Organizing shell pair data                  ... done (  0.1 sec)
Shell pair information
Total number of shell pairs                 ...       378
Shell pairs after pre-screening             ...       372
Total number of primitive shell pairs       ...      1374
Primitive shell pairs kept                  ...      1125
          la=0 lb=0:    165 shell pairs
          la=1 lb=0:    108 shell pairs
          la=1 lb=1:     21 shell pairs
          la=2 lb=0:     54 shell pairs
          la=2 lb=1:     18 shell pairs
          la=2 lb=2:      6 shell pairs

Calculating one electron integrals          ... done (  0.0 sec)
Calculating RI/J V-Matrix + Cholesky decomp.... done (  0.3 sec)
Calculating Nuclear repulsion               ... done (  0.1 sec) ENN=     64.708719676037 Eh

SHARK setup successfully completed in   1.2 seconds

Maximum memory used throughout the entire GTOINT-calculation: 9.1 MB


           ************************************************************
           *        Program running with 4 parallel MPI-processes     *
           *              working on a common directory               *
           ************************************************************
-------------------------------------------------------------------------------
                                 ORCA SCF
-------------------------------------------------------------------------------

------------
SCF SETTINGS
------------
Hamiltonian:
 Density Functional     Method          .... DFT(GTOs)
 Exchange Functional    Exchange        .... PBE
   PBE kappa parameter   XKappa         ....  1.024500
   PBE mue parameter    XMuePBE         ....  0.123457
 Correlation Functional Correlation     .... PBE
   PBE beta parameter  CBetaPBE         ....  0.030000
 LDA part of GGA corr.  LDAOpt          .... PW91-LDA
 Gradients option       PostSCFGGA      .... off
 Hybrid DFT is turned on
   Fraction HF Exchange ScalHFX         ....  0.420000
   Scaling of DF-GGA-X  ScalDFX         ....  0.580000
   Scaling of DF-GGA-C  ScalDFC         ....  1.000000
   Scaling of DF-LDA-C  ScalLDAC        ....  1.000000
   Perturbative correction              ....  0.000000
   Density functional embedding theory  .... OFF
 RI-approximation to the Coulomb term is turned on
   Number of AuxJ basis functions       .... 180
   RIJ-ON(X) (HFX calculated with O(N)) .... on
   Number of AuxJ basis functions       .... 180
   RIJ-COSX (HFX calculated with COS-X)).... on


General Settings:
 Integral files         IntName         .... pbeh-3c
 Hartree-Fock type      HFTyp           .... RHF
 Total Charge           Charge          ....    1
 Multiplicity           Mult            ....    1
 Number of Electrons    NEL             ....   22
 Basis Dimension        Dim             ....   51
 Nuclear Repulsion      ENuc            ....     64.7087196760 Eh

Convergence Acceleration:
 DIIS                   CNVDIIS         .... on
   Start iteration      DIISMaxIt       ....    12
   Startup error        DIISStart       ....  0.200000
   # of expansion vecs  DIISMaxEq       ....     5
   Bias factor          DIISBfac        ....   1.050
   Max. coefficient     DIISMaxC        ....  10.000
 Trust-Rad. Augm. Hess. CNVTRAH         .... auto
   Auto Start mean grad. ratio tolernc. ....  1.125000
   Auto Start start iteration           ....    20
   Auto Start num. interpolation iter.  ....    10
   Max. Number of Micro iterations      ....    16
   Max. Number of Macro iterations      .... Maxiter - #DIIS iter
   Number of Davidson start vectors     ....     2
   Converg. threshold I  (grad. norm)   ....   1.000e-05
   Converg. threshold II (energy diff.) ....   1.000e-08
   Grad. Scal. Fac. for Micro threshold ....   0.100
   Minimum threshold for Micro iter.    ....   0.010
   NR start threshold (gradient norm)   ....   0.001
   Initial trust radius                 ....   0.400
   Minimum AH scaling param. (alpha)    ....   1.000
   Maximum AH scaling param. (alpha)    .... 1000.000
   Orbital update algorithm             .... Taylor
   White noise on init. David. guess    .... on
   Maximum white noise                  ....   0.010
   Quad. conv. algorithm                .... NR
   COSX micro iterations for RIJONX calc.... off
 SOSCF                  CNVSOSCF        .... on
   Start iteration      SOSCFMaxIt      ....   150
   Startup grad/error   SOSCFStart      ....  0.003300
 Level Shifting         CNVShift        .... on
   Level shift para.    LevelShift      ....    0.2500
   Turn off err/grad.   ShiftErr        ....    0.0010
 Zerner damping         CNVZerner       .... off
 Static damping         CNVDamp         .... on
   Fraction old density DampFac         ....    0.7000
   Max. Damping (<1)    DampMax         ....    0.9800
   Min. Damping (>=0)   DampMin         ....    0.0000
   Turn off err/grad.   DampErr         ....    0.1000
 Fernandez-Rico         CNVRico         .... off

SCF Procedure:
 Maximum # iterations   MaxIter         ....   125
 SCF integral mode      SCFMode         .... Direct
   Integral package                     .... SHARK and LIBINT hybrid scheme
 Reset frequency        DirectResetFreq ....    20
 Integral Threshold     Thresh          ....  2.500e-11 Eh
 Primitive CutOff       TCut            ....  2.500e-12 Eh

Convergence Tolerance:
 Convergence Check Mode ConvCheckMode   .... Total+1el-Energy
 Convergence forced     ConvForced      .... 0
 Energy Change          TolE            ....  1.000e-08 Eh
 1-El. energy change                    ....  1.000e-05 Eh
 Orbital Gradient       TolG            ....  1.000e-05
 Orbital Rotation angle TolX            ....  1.000e-05
 DIIS Error             TolErr          ....  5.000e-07


Diagonalization of the overlap matrix:
Smallest eigenvalue                        ... 6.486e-03
Time for diagonalization                   ...    0.001 sec
Threshold for overlap eigenvalues          ... 1.000e-08
Number of eigenvalues below threshold      ... 0
Time for construction of square roots      ...    0.329 sec
Total time needed                          ...    0.330 sec

--------------------------------
INITIAL GUESS: MINIMAL BASIS EHT
--------------------------------
The minimal basis has 18 functions
EHT matrix was diagonalized
Basis set overlap was calculated now projecting the orbitals
Using GuessMode=FMatrix for the initial guess
C*T matrix was formed
Effective Fockian was calculated
Effective Fockian was diagonalized
Initial density was built
                      ------------------
                      INITIAL GUESS DONE
                      ------------------
-------------------
DFT GRID GENERATION
-------------------

General Integration Accuracy     IntAcc      ... 4.959
Radial Grid Type                 RadialGrid  ... OptM3 with GC (2021)
Angular Grid (max. ang.)         AngularGrid ... 6 (Lebedev-590)
Angular grid pruning method      GridPruning ... 4 (adaptive)
Weight generation scheme         WeightScheme... Becke
Basis function cutoff            BFCut       ... 1.0000e-11
Integration weight cutoff        WCut        ... 1.0000e-14
Angular grids for H and He will be reduced by one unit
Partially contracted basis set               ... off
Rotationally invariant grid construction     ... off

Total number of grid points                  ...    70245
Total number of batches                      ...     1099
Average number of points per batch           ...       63
Average number of grid points per atom       ...    11708
Time for grid setup =    1.674 sec

--------------------
COSX GRID GENERATION
--------------------

GRIDX 1
-------
General Integration Accuracy     IntAcc      ... 4.020
Radial Grid Type                 RadialGrid  ... OptM3 with GC (2021)
Angular Grid (max. ang.)         AngularGrid ... 2 (Lebedev-110)
Angular grid pruning method      GridPruning ... 4 (adaptive)
Weight generation scheme         WeightScheme... Becke
Basis function cutoff            BFCut       ... 1.0000e-11
Integration weight cutoff        WCut        ... 1.0000e-14
Angular grids for H and He will be reduced by one unit
Partially contracted basis set               ... on
Rotationally invariant grid construction     ... off

Total number of grid points                  ...     7958
Total number of batches                      ...      128
Average number of points per batch           ...       62
Average number of grid points per atom       ...     1326
UseSFitting                                  ... on

GRIDX 2
-------
General Integration Accuracy     IntAcc      ... 4.338
Radial Grid Type                 RadialGrid  ... OptM3 with GC (2021)
Angular Grid (max. ang.)         AngularGrid ... 3 (Lebedev-194)
Angular grid pruning method      GridPruning ... 4 (adaptive)
Weight generation scheme         WeightScheme... Becke
Basis function cutoff            BFCut       ... 1.0000e-11
Integration weight cutoff        WCut        ... 1.0000e-14
Angular grids for H and He will be reduced by one unit
Partially contracted basis set               ... on
Rotationally invariant grid construction     ... off

Total number of grid points                  ...    17587
Total number of batches                      ...      277
Average number of points per batch           ...       63
Average number of grid points per atom       ...     2931
UseSFitting                                  ... on

GRIDX 3
-------
General Integration Accuracy     IntAcc      ... 4.871
Radial Grid Type                 RadialGrid  ... OptM3 with GC (2021)
Angular Grid (max. ang.)         AngularGrid ... 4 (Lebedev-302)
Angular grid pruning method      GridPruning ... 4 (adaptive)
Weight generation scheme         WeightScheme... Becke
Basis function cutoff            BFCut       ... 1.0000e-11
Integration weight cutoff        WCut        ... 1.0000e-14
Angular grids for H and He will be reduced by one unit
Partially contracted basis set               ... on
Rotationally invariant grid construction     ... off

Total number of grid points                  ...    33938
Total number of batches                      ...      533
Average number of points per batch           ...       63
Average number of grid points per atom       ...     5656
UseSFitting                                  ... on

Time for X-Grid setup             =    2.958 sec

--------------
SCF ITERATIONS
--------------
ITER       Energy         Delta-E        Max-DP      RMS-DP      [F,P]     Damp
               ***  Starting incremental Fock matrix formation  ***
  0   -152.0909191056   0.000000000000 0.11128737  0.00747903  0.6134079 0.7000
  1   -152.2677973707  -0.176878265059 0.07667300  0.00457304  0.3482211 0.7000
  2   -152.3638625545  -0.096065183780 0.05518041  0.00277156  0.2193973 0.7000
                               ***Turning on DIIS***
  3   -152.4309993931  -0.067136838618 0.03915371  0.00193876  0.1554563 0.7000
  4   -152.4785462704  -0.047546877341 0.02886453  0.00148926  0.1099035 0.7000
  5   -152.5118641447  -0.033317874304 0.07306991  0.00371284  0.0772135 0.0000
  6   -152.5903492488  -0.078485104102 0.00400305  0.00017929  0.0034768 0.0000
                      *** Initiating the SOSCF procedure ***
                           *** Shutting down DIIS ***
                      *** Re-Reading the Fockian *** 
                      *** Removing any level shift *** 
ITER      Energy       Delta-E        Grad      Rot      Max-DP    RMS-DP
  7   -152.59037353  -0.0000242850  0.000385  0.000385  0.001004  0.000062
               *** Restarting incremental Fock matrix formation ***
  8   -152.59037858  -0.0000050458  0.000393  0.000686  0.000923  0.000048
  9   -152.59037761   0.0000009670  0.000575  0.000341  0.000603  0.000029
 10   -152.59037948  -0.0000018630  0.000017  0.000023  0.000051  0.000003
 11   -152.59037948  -0.0000000038  0.000005  0.000009  0.000009  0.000001
                  ***Gradient check signals convergence***
              ***Rediagonalizing the Fockian in SOSCF/NRSCF***

               *****************************************************
               *                     SUCCESS                       *
               *           SCF CONVERGED AFTER  12 CYCLES          *
               *****************************************************

Old exchange energy                            =     -8.100446693 Eh
New exchange energy                            =     -8.100442769 Eh
Exchange energy change after final integration =      0.000003925 Eh
Total energy after final integration           =   -152.590375556 Eh
Final COS-X integration done in                =     0.871 sec

----------------
TOTAL SCF ENERGY
----------------

Total Energy       :         -152.59037556 Eh           -4152.19521 eV

Components:
Nuclear Repulsion  :           64.70871968 Eh            1760.81378 eV
Electronic Energy  :         -217.29909523 Eh           -5913.00899 eV
One Electron Energy:         -327.67249842 Eh           -8916.42198 eV
Two Electron Energy:          110.37340319 Eh            3003.41299 eV
Max COSX asymmetry :            0.00000308 Eh               0.00008 eV

Virial components:
Potential Energy   :         -304.14218050 Eh           -8276.12948 eV
Kinetic Energy     :          151.55180494 Eh            4123.93427 eV
Virial Ratio       :            2.00685291


DFT components:
N(Alpha)           :       10.999999736015 electrons
N(Beta)            :       10.999999736015 electrons
N(Total)           :       21.999999472029 electrons
E(X)               :      -10.784870041704 Eh       
E(C)               :       -0.953128038492 Eh       
E(XC)              :      -11.737998080196 Eh       
DFET-embed. en.    :        0.000000000000 Eh       

---------------
SCF CONVERGENCE
---------------

  Last Energy change         ...   -7.1572e-10  Tolerance :   1.0000e-08
  Last MAX-Density change    ...    5.4817e-16  Tolerance :   1.0000e-07
  Last RMS-Density change    ...    4.3333e-17  Tolerance :   5.0000e-09
  Last Orbital Gradient      ...    8.5659e-07  Tolerance :   1.0000e-05
  Last Orbital Rotation      ...    8.4924e-07  Tolerance :   1.0000e-05

             **** THE GBW FILE WAS UPDATED (pbeh-3c.gbw) ****
             **** DENSITY pbeh-3c.scfp WAS UPDATED ****
             **** ENERGY FILE WAS UPDATED (pbeh-3c.en.tmp) ****
             **** THE GBW FILE WAS UPDATED (pbeh-3c.gbw) ****
             **** DENSITY pbeh-3c.scfp WAS UPDATED ****
----------------
ORBITAL ENERGIES
----------------

  NO   OCC          E(Eh)            E(eV) 
   0   2.0000     -19.911332      -541.8149 
   1   2.0000     -10.917182      -297.0716 
   2   2.0000     -10.752786      -292.5982 
   3   2.0000      -1.587800       -43.2062 
   4   2.0000      -1.177445       -32.0399 
   5   2.0000      -0.919520       -25.0214 
   6   2.0000      -0.852271       -23.1915 
   7   2.0000      -0.852271       -23.1915 
   8   2.0000      -0.845924       -23.0188 
   9   2.0000      -0.750868       -20.4321 
  10   2.0000      -0.750868       -20.4321 
  11   0.0000      -0.278186        -7.5698 
  12   0.0000      -0.278186        -7.5698 
  13   0.0000      -0.111593        -3.0366 
  14   0.0000      -0.055271        -1.5040 
  15   0.0000      -0.025780        -0.7015 
  16   0.0000      -0.025779        -0.7015 
  17   0.0000       0.060858         1.6560 
  18   0.0000       0.227215         6.1828 
  19   0.0000       0.227222         6.1830 
  20   0.0000       0.282890         7.6978 
  21   0.0000       0.315567         8.5870 
  22   0.0000       0.315573         8.5872 
  23   0.0000       0.536454        14.5977 
  24   0.0000       0.572877        15.5888 
  25   0.0000       0.718011        19.5381 
  26   0.0000       0.718012        19.5381 
  27   0.0000       0.720483        19.6053 
  28   0.0000       0.819986        22.3130 
  29   0.0000       0.819988        22.3130 
  30   0.0000       0.832253        22.6468 
  31   0.0000       1.123166        30.5629 
  32   0.0000       1.157154        31.4878 
  33   0.0000       1.157154        31.4878 
  34   0.0000       1.211936        32.9785 
  35   0.0000       1.211936        32.9785 
  36   0.0000       1.670800        45.4648 
  37   0.0000       1.670800        45.4648 
  38   0.0000       1.694904        46.1207 
  39   0.0000       1.734726        47.2043 
  40   0.0000       1.734726        47.2043 
  41   0.0000       1.996104        54.3168 
  42   0.0000       2.002319        54.4859 
  43   0.0000       2.002319        54.4859 
  44   0.0000       2.584136        70.3179 
  45   0.0000       2.584136        70.3179 
  46   0.0000       2.661375        72.4197 
  47   0.0000       2.967016        80.7366 
  48   0.0000      13.204404       359.3101 
  49   0.0000      13.856457       377.0534 
  50   0.0000      25.376849       690.5392 

                    ********************************
                    * MULLIKEN POPULATION ANALYSIS *
                    ********************************

-----------------------
MULLIKEN ATOMIC CHARGES
-----------------------
   0 C :   -0.796654
   1 C :    0.598373
   2 O :    0.031748
   3 H :    0.388847
   4 H :    0.388847
   5 H :    0.388840
Sum of atomic charges:    1.0000000

--------------------------------
MULLIKEN REDUCED ORBITAL CHARGES
--------------------------------
  0 C s       :     3.482988  s :     3.482988
      pz      :     0.766338  p :     3.279828
      px      :     1.256740
      py      :     1.256750
      dz2     :     0.016235  d :     0.033839
      dxz     :     0.002021
      dyz     :     0.002021
      dx2y2   :     0.006781
      dxy     :     0.006781
  1 C s       :     3.124928  s :     3.124928
      pz      :     0.896794  p :     2.188698
      px      :     0.645953
      py      :     0.645951
      dz2     :     0.024724  d :     0.088001
      dxz     :     0.031599
      dyz     :     0.031599
      dx2y2   :     0.000039
      dxy     :     0.000039
  2 O s       :     3.768031  s :     3.768031
      pz      :     1.373546  p :     4.155850
      px      :     1.391152
      py      :     1.391153
      dz2     :     0.010839  d :     0.044371
      dxz     :     0.016766
      dyz     :     0.016766
      dx2y2   :    -0.000000
      dxy     :    -0.000000
  3 H s       :     0.611153  s :     0.611153
  4 H s       :     0.611153  s :     0.611153
  5 H s       :     0.611160  s :     0.611160


                     *******************************
                     * LOEWDIN POPULATION ANALYSIS *
                     *******************************

----------------------
LOEWDIN ATOMIC CHARGES
----------------------
   0 C :   -0.367748
   1 C :    0.412555
   2 O :    0.215753
   3 H :    0.246481
   4 H :    0.246481
   5 H :    0.246479

-------------------------------
LOEWDIN REDUCED ORBITAL CHARGES
-------------------------------
  0 C s       :     2.962755  s :     2.962755
      pz      :     0.978173  p :     3.337333
      px      :     1.179578
      py      :     1.179581
      dz2     :     0.037866  d :     0.067661
      dxz     :     0.005526
      dyz     :     0.005526
      dx2y2   :     0.009371
      dxy     :     0.009371
  1 C s       :     2.929832  s :     2.929832
      pz      :     1.134138  p :     2.477945
      px      :     0.671904
      py      :     0.671903
      dz2     :     0.058181  d :     0.179668
      dxz     :     0.060717
      dyz     :     0.060717
      dx2y2   :     0.000027
      dxy     :     0.000027
  2 O s       :     3.482450  s :     3.482450
      pz      :     1.511887  p :     4.230125
      px      :     1.359119
      py      :     1.359119
      dz2     :     0.031225  d :     0.071672
      dxz     :     0.020223
      dyz     :     0.020223
      dx2y2   :     0.000000
      dxy     :     0.000000
  3 H s       :     0.753519  s :     0.753519
  4 H s       :     0.753519  s :     0.753519
  5 H s       :     0.753521  s :     0.753521


                      *****************************
                      * MAYER POPULATION ANALYSIS *
                      *****************************

  NA   - Mulliken gross atomic population
  ZA   - Total nuclear charge
  QA   - Mulliken gross atomic charge
  VA   - Mayer's total valence
  BVA  - Mayer's bonded valence
  FA   - Mayer's free valence

  ATOM       NA         ZA         QA         VA         BVA        FA
  0 C      6.7967     6.0000    -0.7967     3.4720     3.4720     0.0000
  1 C      5.4016     6.0000     0.5984     3.6901     3.6901     0.0000
  2 O      7.9683     8.0000     0.0317     2.7061     2.7061    -0.0000
  3 H      0.6112     1.0000     0.3888     0.8250     0.8250     0.0000
  4 H      0.6112     1.0000     0.3888     0.8250     0.8250     0.0000
  5 H      0.6112     1.0000     0.3888     0.8250     0.8250     0.0000

  Mayer bond orders larger than 0.100000
B(  0-C ,  1-C ) :   1.0287 B(  0-C ,  3-H ) :   0.8070 B(  0-C ,  4-H ) :   0.8070 
B(  0-C ,  5-H ) :   0.8070 B(  1-C ,  2-O ) :   2.6328 

-------
TIMINGS
-------

Total SCF time: 0 days 0 hours 1 min 5 sec 

Total time                  ....      65.256 sec
Sum of individual times     ....      57.498 sec  ( 88.1%)

Fock matrix formation       ....      46.398 sec  ( 71.1%)
  Split-RI-J                ....       7.062 sec  ( 15.2% of F)
  Chain of spheres X        ....       7.058 sec  ( 15.2% of F)
  XC integration            ....      13.421 sec  ( 28.9% of F)
    Basis function eval.    ....       0.641 sec  (  4.8% of XC)
    Density eval.           ....       0.494 sec  (  3.7% of XC)
    XC-Functional eval.     ....       0.556 sec  (  4.1% of XC)
    XC-Potential eval.      ....       0.221 sec  (  1.6% of XC)
Diagonalization             ....       0.696 sec  (  1.1%)
Density matrix formation    ....       0.315 sec  (  0.5%)
Population analysis         ....       1.911 sec  (  2.9%)
Initial guess               ....       0.003 sec  (  0.0%)
Orbital Transformation      ....       0.000 sec  (  0.0%)
Orbital Orthonormalization  ....       0.000 sec  (  0.0%)
DIIS solution               ....       1.638 sec  (  2.5%)
SOSCF solution              ....       1.905 sec  (  2.9%)
Grid generation             ....       4.632 sec  (  7.1%)

Maximum memory used throughout the entire SCF-calculation: 45.5 MB


-------------------------------------------------------------------------------
                          DFT DISPERSION CORRECTION                            
                                                                               
                              DFTD3 V3.1  Rev 1                                
                          USING Becke-Johnson damping                          
-------------------------------------------------------------------------------
The PBEh-3c composite method is recognized
Using three-body term ABC
Active option DFTDOPT                   ...         4   

molecular C6(AA) [au] = 341.487455 


            DFT-D V3
 parameters
 s6 scaling factor         :     1.0000 
 a1 scaling factor         :     0.4860 
 s8 scaling factor         :     0.0000 
 a2 scaling factor         :     4.5000 
 Damping factor alpha9(ATM):    16.0000 
 ad hoc parameters k1-k3   :    16.0000     1.3333    -4.0000 

 Edisp/kcal,au: -0.888427963357  -0.001415799929 
 E6   /kcal   :  -0.888809939 
 E8   /kcal   :  -0.000000000 
 E6(ABC)      :   0.000381975 
 % E8         :   0.000000000 
 % E6(ABC)    :  -0.042994506 

-------------------------   ----------------
Dispersion correction           -0.001415800
-------------------------   ----------------

------------------   -----------------
gCP correction             0.005446136
------------------   -----------------

-------------------------   --------------------
FINAL SINGLE POINT ENERGY      -152.586345219287
-------------------------   --------------------


                            ***************************************
                            *     ORCA property calculations      *
                            ***************************************

                                    ---------------------
                                    Active property flags
                                    ---------------------
   (+) Dipole Moment


------------------------------------------------------------------------------
                       ORCA ELECTRIC PROPERTIES CALCULATION
------------------------------------------------------------------------------

Dipole Moment Calculation                       ... on
Quadrupole Moment Calculation                   ... off
Polarizability Calculation                      ... off
GBWName                                         ... pbeh-3c.gbw
Electron density                                ... pbeh-3c.scfp
The origin for moment calculation is the CENTER OF MASS  = ( 0.000000,  0.000000  1.560611)

-------------
DIPOLE MOMENT
-------------
                                X             Y             Z
Electronic contribution:      0.00001      -0.00000       3.34358
Nuclear contribution   :      0.00000       0.00000      -4.64260
                        -----------------------------------------
Total Dipole Moment    :      0.00001      -0.00000      -1.29902
                        -----------------------------------------
Magnitude (a.u.)       :      1.29902
Magnitude (Debye)      :      3.30185



--------------------
Rotational spectrum 
--------------------
 
Rotational constants in cm-1:     5.130074     0.309674     0.309674 
Rotational constants in MHz : 153795.743855  9283.781653  9283.781613 

 Dipole components along the rotational axes: 
x,y,z [a.u.] :    -1.299020    -0.000000     0.000005 
x,y,z [Debye]:    -3.301846    -0.000000     0.000014 

 

Timings for individual modules:

Sum of individual times         ...       67.925 sec (=   1.132 min)
GTO integral calculation        ...        1.854 sec (=   0.031 min)   2.7 %
SCF iterations                  ...       66.071 sec (=   1.101 min)  97.3 %
                             ****ORCA TERMINATED NORMALLY****
TOTAL RUN TIME: 0 days 0 hours 1 minutes 18 seconds 950 msec
