
                                 *****************
                                 * O   R   C   A *
                                 *****************

                                            #,                                       
                                            ###                                      
                                            ####                                     
                                            #####                                    
                                            ######                                   
                                           ########,                                 
                                     ,,################,,,,,                         
                               ,,#################################,,                 
                          ,,##########################################,,             
                       ,#########################################, ''#####,          
                    ,#############################################,,   '####,        
                  ,##################################################,,,,####,       
                ,###########''''           ''''###############################       
              ,#####''   ,,,,##########,,,,          '''####'''          '####       
            ,##' ,,,,###########################,,,                        '##       
           ' ,,###''''                  '''############,,,                           
         ,,##''                                '''############,,,,        ,,,,,,###''
      ,#''                                            '''#######################'''  
     '                                                          ''''####''''         
             ,#######,   #######,   ,#######,      ##                                
            ,#'     '#,  ##    ##  ,#'     '#,    #''#        ######   ,####,        
            ##       ##  ##   ,#'  ##            #'  '#       #        #'  '#        
            ##       ##  #######   ##           ,######,      #####,   #    #        
            '#,     ,#'  ##    ##  '#,     ,#' ,#      #,         ##   #,  ,#        
             '#######'   ##     ##  '#######'  #'      '#     #####' # '####'        



                  #######################################################
                  #                        -***-                        #
                  #          Department of theory and spectroscopy      #
                  #    Directorship and core code : Frank Neese         #
                  #        Max Planck Institute fuer Kohlenforschung    #
                  #                Kaiser Wilhelm Platz 1               #
                  #                 D-45470 Muelheim/Ruhr               #
                  #                      Germany                        #
                  #                                                     #
                  #                  All rights reserved                #
                  #                        -***-                        #
                  #######################################################


                         Program Version 5.0.3 -  RELEASE  -


 With contributions from (in alphabetic order):
   Daniel Aravena         : Magnetic Suceptibility
   Michael Atanasov       : Ab Initio Ligand Field Theory (pilot matlab implementation)
   Alexander A. Auer      : GIAO ZORA, VPT2 properties, NMR spectrum
   Ute Becker             : Parallelization
   Giovanni Bistoni       : ED, misc. LED, open-shell LED, HFLD
   Martin Brehm           : Molecular dynamics
   Dmytro Bykov           : SCF Hessian
   Vijay G. Chilkuri      : MRCI spin determinant printing, contributions to CSF-ICE
   Dipayan Datta          : RHF DLPNO-CCSD density
   Achintya Kumar Dutta   : EOM-CC, STEOM-CC
   Dmitry Ganyushin       : Spin-Orbit,Spin-Spin,Magnetic field MRCI
   Miquel Garcia          : C-PCM and meta-GGA Hessian, CC/C-PCM, Gaussian charge scheme
   Yang Guo               : DLPNO-NEVPT2, F12-NEVPT2, CIM, IAO-localization
   Andreas Hansen         : Spin unrestricted coupled pair/coupled cluster methods
   Benjamin Helmich-Paris : MC-RPA, TRAH-SCF, COSX integrals
   Lee Huntington         : MR-EOM, pCC
   Robert Izsak           : Overlap fitted RIJCOSX, COSX-SCS-MP3, EOM
   Marcus Kettner         : VPT2
   Christian Kollmar      : KDIIS, OOCD, Brueckner-CCSD(T), CCSD density, CASPT2, CASPT2-K
   Simone Kossmann        : Meta GGA functionals, TD-DFT gradient, OOMP2, MP2 Hessian
   Martin Krupicka        : Initial AUTO-CI
   Lucas Lang             : DCDCAS
   Marvin Lechner         : AUTO-CI (C++ implementation), FIC-MRCC
   Dagmar Lenk            : GEPOL surface, SMD
   Dimitrios Liakos       : Extrapolation schemes; Compound Job, initial MDCI parallelization
   Dimitrios Manganas     : Further ROCIS development; embedding schemes
   Dimitrios Pantazis     : SARC Basis sets
   Anastasios Papadopoulos: AUTO-CI, single reference methods and gradients
   Taras Petrenko         : DFT Hessian,TD-DFT gradient, ASA, ECA, R-Raman, ABS, FL, XAS/XES, NRVS
   Peter Pinski           : DLPNO-MP2, DLPNO-MP2 Gradient
   Christoph Reimann      : Effective Core Potentials
   Marius Retegan         : Local ZFS, SOC
   Christoph Riplinger    : Optimizer, TS searches, QM/MM, DLPNO-CCSD(T), (RO)-DLPNO pert. Triples
   Tobias Risthaus        : Range-separated hybrids, TD-DFT gradient, RPA, STAB
   Michael Roemelt        : Original ROCIS implementation
   Masaaki Saitow         : Open-shell DLPNO-CCSD energy and density
   Barbara Sandhoefer     : DKH picture change effects
   Avijit Sen             : IP-ROCIS
   Kantharuban Sivalingam : CASSCF convergence, NEVPT2, FIC-MRCI
   Bernardo de Souza      : ESD, SOC TD-DFT
   Georgi Stoychev        : AutoAux, RI-MP2 NMR, DLPNO-MP2 response
   Willem Van den Heuvel  : Paramagnetic NMR
   Boris Wezisla          : Elementary symmetry handling
   Frank Wennmohs         : Technical directorship


 We gratefully acknowledge several colleagues who have allowed us to
 interface, adapt or use parts of their codes:
   Stefan Grimme, W. Hujo, H. Kruse, P. Pracht,  : VdW corrections, initial TS optimization,
                  C. Bannwarth, S. Ehlert          DFT functionals, gCP, sTDA/sTD-DF
   Ed Valeev, F. Pavosevic, A. Kumar             : LibInt (2-el integral package), F12 methods
   Garnet Chan, S. Sharma, J. Yang, R. Olivares  : DMRG
   Ulf Ekstrom                                   : XCFun DFT Library
   Mihaly Kallay                                 : mrcc  (arbitrary order and MRCC methods)
   Jiri Pittner, Ondrej Demel                    : Mk-CCSD
   Frank Weinhold                                : gennbo (NPA and NBO analysis)
   Christopher J. Cramer and Donald G. Truhlar   : smd solvation model
   Lars Goerigk                                  : TD-DFT with DH, B97 family of functionals
   V. Asgeirsson, H. Jonsson                     : NEB implementation
   FAccTs GmbH                                   : IRC, NEB, NEB-TS, DLPNO-Multilevel, CI-OPT
                                                   MM, QMMM, 2- and 3-layer-ONIOM, Crystal-QMMM,
                                                   LR-CPCM, SF, NACMEs, symmetry and pop. for TD-DFT,
                                                   nearIR, NL-DFT gradient (VV10), updates on ESD,
                                                   ML-optimized integration grids
   S Lehtola, MJT Oliveira, MAL Marques          : LibXC Library
   Liviu Ungur et al                             : ANISO software


 Your calculation uses the libint2 library for the computation of 2-el integrals
 For citations please refer to: http://libint.valeyev.net

 Your ORCA version has been built with support for libXC version: 5.1.0
 For citations please refer to: https://tddft.org/programs/libxc/

 This ORCA versions uses:
   CBLAS   interface :  Fast vector & matrix operations
   LAPACKE interface :  Fast linear algebra routines
   SCALAPACK package :  Parallel linear algebra routines
   Shared memory     :  Shared parallel matrices
   BLAS/LAPACK       :  OpenBLAS 0.3.15  USE64BITINT DYNAMIC_ARCH NO_AFFINITY Haswell SINGLE_THREADED
        Core in use  :  Haswell
   Copyright (c) 2011-2014, The OpenBLAS Project




***************************************
The coordinates will be read from file: T1.xyz
***************************************


Your calculation utilizes the geometrical counterpoise correction gCP
Please cite in your paper:
H.Kruse, S. Grimme J.Chem.Phys., 136, (2012), 154101 
   

Your calculation utilizes the atom-pairwise dispersion correction
with the Becke-Johnson damping scheme (D3BJ)
Cite in your paper:
S.Grimme, S.Ehrlich, L.Goerigk, J Comput Chem, (2011), 32, 1456–1465 
S.Grimme, J.Antony, S.Ehrlich and H.Krieg, J.Chem.Phys., 132, (2010), 154104 
   

Your calculation employs the composite approach PBEh-3c.
Please cite in your paper:
S. Grimme, J. G. Brandenburg, C. Bannwarth, A. Hansen J.Chem.Phys., 143, (2015), 054107 
   

================================================================================

----- Orbital basis set information -----
Your calculation utilizes the basis: def2-mSVP

----- AuxJ basis set information -----
Your calculation utilizes the auxiliary basis: def2/J
   F. Weigend, Phys. Chem. Chem. Phys. 8, 1057 (2006).

================================================================================
                                        WARNINGS
                       Please study these warnings very carefully!
================================================================================


INFO   : the flag for use of the SHARK integral package has been found!

================================================================================
                                       INPUT FILE
================================================================================
NAME = pbeh-3c.inp
|  1> ! PBEh-3c def2/J TightSCF DefGrid3
|  2> 
|  3> %maxcore 60000
|  4> 
|  5> %pal
|  6> nprocs 4
|  7> end
|  8> 
|  9> *xyzfile 1 1 T1.xyz
| 10> 
| 11>                          ****END OF INPUT****
================================================================================

                       ****************************
                       * Single Point Calculation *
                       ****************************

---------------------------------
CARTESIAN COORDINATES (ANGSTROEM)
---------------------------------
  N     -0.424461    1.904041    0.000000
  N      1.572776    0.748481    0.000000
  C     -0.472920   -0.472950    0.000000
  C      0.933907   -0.423426    0.000000
  C     -1.093434    0.743095    0.000000
  C      0.959394    2.007840    0.000000
  C     -1.210441   -1.777678    0.000000
  O      1.713194   -1.456724    0.000000
  O      1.563876    3.028013    0.000000
  H     -0.928322    2.783934    0.000000
  H      2.590989    0.758733    0.000000
  H     -2.174232    0.820292    0.000000
  H     -0.994253   -2.375339   -0.888740
  H     -0.994253   -2.375339    0.888740
  H     -2.286480   -1.610691    0.000000
  H      1.244660   -2.302282    0.000000

----------------------------
CARTESIAN COORDINATES (A.U.)
----------------------------
  NO LB      ZA    FRAG     MASS         X           Y           Z
   0 N     7.0000    0    14.007   -0.802114    3.598116    0.000000
   1 N     7.0000    0    14.007    2.972116    1.414424    0.000000
   2 C     6.0000    0    12.011   -0.893690   -0.893746    0.000000
   3 C     6.0000    0    12.011    1.764828   -0.800159    0.000000
   4 C     6.0000    0    12.011   -2.066290    1.404246    0.000000
   5 C     6.0000    0    12.011    1.812992    3.794267    0.000000
   6 C     6.0000    0    12.011   -2.287402   -3.359324    0.000000
   7 O     8.0000    0    15.999    3.237467   -2.752809    0.000000
   8 O     8.0000    0    15.999    2.955298    5.722116    0.000000
   9 H     1.0000    0     1.008   -1.754274    5.260873    0.000000
  10 H     1.0000    0     1.008    4.896259    1.433797    0.000000
  11 H     1.0000    0     1.008   -4.108703    1.550127    0.000000
  12 H     1.0000    0     1.008   -1.878866   -4.488739   -1.679475
  13 H     1.0000    0     1.008   -1.878866   -4.488739    1.679475
  14 H     1.0000    0     1.008   -4.320822   -3.043766    0.000000
  15 H     1.0000    0     1.008    2.352067   -4.350683    0.000000

--------------------------------
INTERNAL COORDINATES (ANGSTROEM)
--------------------------------
 N      0   0   0     0.000000000000     0.00000000     0.00000000
 N      1   0   0     2.307438698953     0.00000000     0.00000000
 C      1   2   0     2.377484722518    61.11513734     0.00000000
 C      2   1   3     1.334735673140    91.45560577     0.00000000
 C      1   2   3     1.339895614388    89.89908937     0.00000000
 C      1   2   3     1.387742250699    34.34233750   180.00000085
 C      3   1   2     1.498749863745   151.68984435   180.00000000
 O      4   2   1     1.294215379794   114.38016059   180.00000000
 O      6   1   2     1.185812978791   124.93749238   180.00000000
 H      1   2   3     1.013946719866   149.84991681   180.00000085
 H      2   1   3     1.018264107444   149.37035700   180.00000085
 H      5   1   2     1.083551910862   115.86642536   180.00000000
 H      7   3   1     1.092609149286   112.26082917   118.48795718
 H      7   3   1     1.092609149286   112.26082917   241.51204282
 H      7   3   1     1.088919272188   110.65694558     0.00000000
 H      8   4   2     0.966691376036   113.98601001   180.00000000

---------------------------
INTERNAL COORDINATES (A.U.)
---------------------------
 N      0   0   0     0.000000000000     0.00000000     0.00000000
 N      1   0   0     4.360427211833     0.00000000     0.00000000
 C      1   2   0     4.492795013142    61.11513734     0.00000000
 C      2   1   3     2.522284883411    91.45560577     0.00000000
 C      1   2   3     2.532035759235    89.89908937     0.00000000
 C      1   2   3     2.622452798293    34.34233750   180.00000085
 C      3   1   2     2.832226785730   151.68984435   180.00000000
 O      4   2   1     2.445712626119   114.38016059   180.00000000
 O      6   1   2     2.240861775964   124.93749238   180.00000000
 H      1   2   3     1.916081614935   149.84991681   180.00000085
 H      2   1   3     1.924240295071   149.37035700   180.00000085
 H      5   1   2     2.047616363416   115.86642536   180.00000000
 H      7   3   1     2.064732063566   112.26082917   118.48795718
 H      7   3   1     2.064732063566   112.26082917   241.51204282
 H      7   3   1     2.057759206384   110.65694558     0.00000000
 H      8   4   2     1.826781956732   113.98601001   180.00000000

---------------------
BASIS SET INFORMATION
---------------------
There are 4 groups of distinct atoms

 Group   1 Type N   : 8s4p1d contracted to 4s2p1d pattern {5111/31/1}
 Group   2 Type C   : 8s4p1d contracted to 4s2p1d pattern {5111/31/1}
 Group   3 Type O   : 8s4p1d contracted to 4s2p1d pattern {5111/31/1}
 Group   4 Type H   : 4s contracted to 2s pattern {31}

Atom   0N    basis set group =>   1
Atom   1N    basis set group =>   1
Atom   2C    basis set group =>   2
Atom   3C    basis set group =>   2
Atom   4C    basis set group =>   2
Atom   5C    basis set group =>   2
Atom   6C    basis set group =>   2
Atom   7O    basis set group =>   3
Atom   8O    basis set group =>   3
Atom   9H    basis set group =>   4
Atom  10H    basis set group =>   4
Atom  11H    basis set group =>   4
Atom  12H    basis set group =>   4
Atom  13H    basis set group =>   4
Atom  14H    basis set group =>   4
Atom  15H    basis set group =>   4
---------------------------------
AUXILIARY/J BASIS SET INFORMATION
---------------------------------
There are 4 groups of distinct atoms

 Group   1 Type N   : 12s5p4d2f1g contracted to 6s4p3d1f1g pattern {711111/2111/211/2/1}
 Group   2 Type C   : 12s5p4d2f1g contracted to 6s4p3d1f1g pattern {711111/2111/211/2/1}
 Group   3 Type O   : 12s5p4d2f1g contracted to 6s4p3d1f1g pattern {711111/2111/211/2/1}
 Group   4 Type H   : 5s2p1d contracted to 3s1p1d pattern {311/2/1}

Atom   0N    basis set group =>   1
Atom   1N    basis set group =>   1
Atom   2C    basis set group =>   2
Atom   3C    basis set group =>   2
Atom   4C    basis set group =>   2
Atom   5C    basis set group =>   2
Atom   6C    basis set group =>   2
Atom   7O    basis set group =>   3
Atom   8O    basis set group =>   3
Atom   9H    basis set group =>   4
Atom  10H    basis set group =>   4
Atom  11H    basis set group =>   4
Atom  12H    basis set group =>   4
Atom  13H    basis set group =>   4
Atom  14H    basis set group =>   4
Atom  15H    basis set group =>   4


           ************************************************************
           *        Program running with 4 parallel MPI-processes     *
           *              working on a common directory               *
           ************************************************************
------------------------------------------------------------------------------
                           ORCA GTO INTEGRAL CALCULATION
                           -- RI-GTO INTEGRALS CHOSEN --
------------------------------------------------------------------------------
------------------------------------------------------------------------------
                   ___                                                        
                  /   \      - P O W E R E D   B Y -                         
                 /     \                                                     
                 |  |  |   _    _      __       _____    __    __             
                 |  |  |  | |  | |    /  \     |  _  \  |  |  /  |          
                  \  \/   | |  | |   /    \    | | | |  |  | /  /          
                 / \  \   | |__| |  /  /\  \   | |_| |  |  |/  /          
                |  |  |   |  __  | /  /__\  \  |    /   |      \           
                |  |  |   | |  | | |   __   |  |    \   |  |\   \          
                \     /   | |  | | |  |  |  |  | |\  \  |  | \   \       
                 \___/    |_|  |_| |__|  |__|  |_| \__\ |__|  \__/        
                                                                              
                      - O R C A' S   B I G   F R I E N D -                    
                                      &                                       
                       - I N T E G R A L  F E E D E R -                       
                                                                              
 v1 FN, 2020, v2 2021                                                         
------------------------------------------------------------------------------


Reading SHARK input file pbeh-3c.SHARKINP.tmp ... ok
----------------------
SHARK INTEGRAL PACKAGE
----------------------

Number of atoms                             ...     16
Number of basis functions                   ...    149
Number of shells                            ...     77
Maximum angular momentum                    ...      2
Integral batch strategy                     ... SHARK/LIBINT Hybrid
RI-J (if used) integral strategy            ... SPLIT-RIJ (Revised 2003 algorithm where possible)
Printlevel                                  ...      1
Contraction scheme used                     ... SEGMENTED contraction
Coulomb Range Separation                    ... NOT USED
Exchange Range Separation                   ... NOT USED
Finite Nucleus Model                        ... NOT USED
Auxiliary Coulomb fitting basis             ... AVAILABLE
   # of basis functions in Aux-J            ...    518
   # of shells in Aux-J                     ...    170
   Maximum angular momentum in Aux-J        ...      4
Auxiliary J/K fitting basis                 ... NOT available
Auxiliary Correlation fitting basis         ... NOT available
Auxiliary 'external' fitting basis          ... NOT available
Integral threshold                          ...     2.500000e-11
Primitive cut-off                           ...     2.500000e-12
Primitive pair pre-selection threshold      ...     2.500000e-12

Calculating pre-screening integrals         ... done (  0.1 sec) Dimension = 77
Organizing shell pair data                  ... done (  0.1 sec)
Shell pair information
Total number of shell pairs                 ...      3003
Shell pairs after pre-screening             ...      2673
Total number of primitive shell pairs       ...     10723
Primitive shell pairs kept                  ...      6771
          la=0 lb=0:   1049 shell pairs
          la=1 lb=0:    855 shell pairs
          la=1 lb=1:    169 shell pairs
          la=2 lb=0:    398 shell pairs
          la=2 lb=1:    158 shell pairs
          la=2 lb=2:     44 shell pairs

Calculating one electron integrals          ... done (  0.0 sec)
Calculating RI/J V-Matrix + Cholesky decomp.... done (  0.1 sec)
Calculating Nuclear repulsion               ... done (  0.0 sec) ENN=    455.906483085106 Eh

SHARK setup successfully completed in   0.9 seconds

Maximum memory used throughout the entire GTOINT-calculation: 11.3 MB


           ************************************************************
           *        Program running with 4 parallel MPI-processes     *
           *              working on a common directory               *
           ************************************************************
-------------------------------------------------------------------------------
                                 ORCA SCF
-------------------------------------------------------------------------------

------------
SCF SETTINGS
------------
Hamiltonian:
 Density Functional     Method          .... DFT(GTOs)
 Exchange Functional    Exchange        .... PBE
   PBE kappa parameter   XKappa         ....  1.024500
   PBE mue parameter    XMuePBE         ....  0.123457
 Correlation Functional Correlation     .... PBE
   PBE beta parameter  CBetaPBE         ....  0.030000
 LDA part of GGA corr.  LDAOpt          .... PW91-LDA
 Gradients option       PostSCFGGA      .... off
 Hybrid DFT is turned on
   Fraction HF Exchange ScalHFX         ....  0.420000
   Scaling of DF-GGA-X  ScalDFX         ....  0.580000
   Scaling of DF-GGA-C  ScalDFC         ....  1.000000
   Scaling of DF-LDA-C  ScalLDAC        ....  1.000000
   Perturbative correction              ....  0.000000
   Density functional embedding theory  .... OFF
 RI-approximation to the Coulomb term is turned on
   Number of AuxJ basis functions       .... 518
   RIJ-ON(X) (HFX calculated with O(N)) .... on
   Number of AuxJ basis functions       .... 518
   RIJ-COSX (HFX calculated with COS-X)).... on


General Settings:
 Integral files         IntName         .... pbeh-3c
 Hartree-Fock type      HFTyp           .... RHF
 Total Charge           Charge          ....    1
 Multiplicity           Mult            ....    1
 Number of Electrons    NEL             ....   66
 Basis Dimension        Dim             ....  149
 Nuclear Repulsion      ENuc            ....    455.9064830851 Eh

Convergence Acceleration:
 DIIS                   CNVDIIS         .... on
   Start iteration      DIISMaxIt       ....    12
   Startup error        DIISStart       ....  0.200000
   # of expansion vecs  DIISMaxEq       ....     5
   Bias factor          DIISBfac        ....   1.050
   Max. coefficient     DIISMaxC        ....  10.000
 Trust-Rad. Augm. Hess. CNVTRAH         .... auto
   Auto Start mean grad. ratio tolernc. ....  1.125000
   Auto Start start iteration           ....    20
   Auto Start num. interpolation iter.  ....    10
   Max. Number of Micro iterations      ....    16
   Max. Number of Macro iterations      .... Maxiter - #DIIS iter
   Number of Davidson start vectors     ....     2
   Converg. threshold I  (grad. norm)   ....   1.000e-05
   Converg. threshold II (energy diff.) ....   1.000e-08
   Grad. Scal. Fac. for Micro threshold ....   0.100
   Minimum threshold for Micro iter.    ....   0.010
   NR start threshold (gradient norm)   ....   0.001
   Initial trust radius                 ....   0.400
   Minimum AH scaling param. (alpha)    ....   1.000
   Maximum AH scaling param. (alpha)    .... 1000.000
   Orbital update algorithm             .... Taylor
   White noise on init. David. guess    .... on
   Maximum white noise                  ....   0.010
   Quad. conv. algorithm                .... NR
   COSX micro iterations for RIJONX calc.... off
 SOSCF                  CNVSOSCF        .... on
   Start iteration      SOSCFMaxIt      ....   150
   Startup grad/error   SOSCFStart      ....  0.003300
 Level Shifting         CNVShift        .... on
   Level shift para.    LevelShift      ....    0.2500
   Turn off err/grad.   ShiftErr        ....    0.0010
 Zerner damping         CNVZerner       .... off
 Static damping         CNVDamp         .... on
   Fraction old density DampFac         ....    0.7000
   Max. Damping (<1)    DampMax         ....    0.9800
   Min. Damping (>=0)   DampMin         ....    0.0000
   Turn off err/grad.   DampErr         ....    0.1000
 Fernandez-Rico         CNVRico         .... off

SCF Procedure:
 Maximum # iterations   MaxIter         ....   125
 SCF integral mode      SCFMode         .... Direct
   Integral package                     .... SHARK and LIBINT hybrid scheme
 Reset frequency        DirectResetFreq ....    20
 Integral Threshold     Thresh          ....  2.500e-11 Eh
 Primitive CutOff       TCut            ....  2.500e-12 Eh

Convergence Tolerance:
 Convergence Check Mode ConvCheckMode   .... Total+1el-Energy
 Convergence forced     ConvForced      .... 0
 Energy Change          TolE            ....  1.000e-08 Eh
 1-El. energy change                    ....  1.000e-05 Eh
 Orbital Gradient       TolG            ....  1.000e-05
 Orbital Rotation angle TolX            ....  1.000e-05
 DIIS Error             TolErr          ....  5.000e-07


Diagonalization of the overlap matrix:
Smallest eigenvalue                        ... 1.470e-03
Time for diagonalization                   ...    0.003 sec
Threshold for overlap eigenvalues          ... 1.000e-08
Number of eigenvalues below threshold      ... 0
Time for construction of square roots      ...    0.418 sec
Total time needed                          ...    0.538 sec

--------------------------------
INITIAL GUESS: MINIMAL BASIS EHT
--------------------------------
The minimal basis has 52 functions
EHT matrix was diagonalized
Basis set overlap was calculated now projecting the orbitals
Using GuessMode=FMatrix for the initial guess
C*T matrix was formed
Effective Fockian was calculated
Effective Fockian was diagonalized
Initial density was built
                      ------------------
                      INITIAL GUESS DONE
                      ------------------
-------------------
DFT GRID GENERATION
-------------------

General Integration Accuracy     IntAcc      ... 4.959
Radial Grid Type                 RadialGrid  ... OptM3 with GC (2021)
Angular Grid (max. ang.)         AngularGrid ... 6 (Lebedev-590)
Angular grid pruning method      GridPruning ... 4 (adaptive)
Weight generation scheme         WeightScheme... Becke
Basis function cutoff            BFCut       ... 1.0000e-11
Integration weight cutoff        WCut        ... 1.0000e-14
Angular grids for H and He will be reduced by one unit
Partially contracted basis set               ... off
Rotationally invariant grid construction     ... off

Total number of grid points                  ...   189588
Total number of batches                      ...     2970
Average number of points per batch           ...       63
Average number of grid points per atom       ...    11849
Time for grid setup =    3.923 sec

--------------------
COSX GRID GENERATION
--------------------

GRIDX 1
-------
General Integration Accuracy     IntAcc      ... 4.020
Radial Grid Type                 RadialGrid  ... OptM3 with GC (2021)
Angular Grid (max. ang.)         AngularGrid ... 2 (Lebedev-110)
Angular grid pruning method      GridPruning ... 4 (adaptive)
Weight generation scheme         WeightScheme... Becke
Basis function cutoff            BFCut       ... 1.0000e-11
Integration weight cutoff        WCut        ... 1.0000e-14
Angular grids for H and He will be reduced by one unit
Partially contracted basis set               ... on
Rotationally invariant grid construction     ... off

Total number of grid points                  ...    21526
Total number of batches                      ...      343
Average number of points per batch           ...       62
Average number of grid points per atom       ...     1345
UseSFitting                                  ... on

GRIDX 2
-------
General Integration Accuracy     IntAcc      ... 4.338
Radial Grid Type                 RadialGrid  ... OptM3 with GC (2021)
Angular Grid (max. ang.)         AngularGrid ... 3 (Lebedev-194)
Angular grid pruning method      GridPruning ... 4 (adaptive)
Weight generation scheme         WeightScheme... Becke
Basis function cutoff            BFCut       ... 1.0000e-11
Integration weight cutoff        WCut        ... 1.0000e-14
Angular grids for H and He will be reduced by one unit
Partially contracted basis set               ... on
Rotationally invariant grid construction     ... off

Total number of grid points                  ...    47372
Total number of batches                      ...      749
Average number of points per batch           ...       63
Average number of grid points per atom       ...     2961
UseSFitting                                  ... on

GRIDX 3
-------
General Integration Accuracy     IntAcc      ... 4.871
Radial Grid Type                 RadialGrid  ... OptM3 with GC (2021)
Angular Grid (max. ang.)         AngularGrid ... 4 (Lebedev-302)
Angular grid pruning method      GridPruning ... 4 (adaptive)
Weight generation scheme         WeightScheme... Becke
Basis function cutoff            BFCut       ... 1.0000e-11
Integration weight cutoff        WCut        ... 1.0000e-14
Angular grids for H and He will be reduced by one unit
Partially contracted basis set               ... on
Rotationally invariant grid construction     ... off

Total number of grid points                  ...    89265
Total number of batches                      ...     1403
Average number of points per batch           ...       63
Average number of grid points per atom       ...     5579
UseSFitting                                  ... on

Time for X-Grid setup             =    3.968 sec

--------------
SCF ITERATIONS
--------------
ITER       Energy         Delta-E        Max-DP      RMS-DP      [F,P]     Damp
               ***  Starting incremental Fock matrix formation  ***
  0   -452.0988264076   0.000000000000 0.20951778  0.00641272  0.5507292 0.7000
  1   -452.6248416507  -0.526015243094 0.11706343  0.00385902  0.2978793 0.7000
  2   -452.8895526917  -0.264711041006 0.06305685  0.00239451  0.2086351 0.7000
                               ***Turning on DIIS***
  3   -453.0774263561  -0.187873664403 0.04625269  0.00170371  0.1457729 0.7000
  4   -453.2131947079  -0.135768351786 0.03410524  0.00127603  0.1020107 0.7000
  5   -453.3091577161  -0.095963008222 0.08007369  0.00311466  0.0714889 0.0000
  6   -453.5371787535  -0.228021037370 0.00605844  0.00016009  0.0044817 0.0000
                      *** Initiating the SOSCF procedure ***
                           *** Shutting down DIIS ***
                      *** Re-Reading the Fockian *** 
                      *** Removing any level shift *** 
ITER      Energy       Delta-E        Grad      Rot      Max-DP    RMS-DP
  7   -453.53731935  -0.0001405984  0.000745  0.000745  0.001892  0.000070
               *** Restarting incremental Fock matrix formation ***
  8   -453.53736595  -0.0000465988  0.000520  0.001527  0.002160  0.000053
  9   -453.53737303  -0.0000070749  0.000426  0.000578  0.001332  0.000047
 10   -453.53737505  -0.0000020291  0.000223  0.000338  0.000602  0.000021
 11   -453.53737605  -0.0000009952  0.000012  0.000030  0.000071  0.000001
 12   -453.53737605  -0.0000000034  0.000012  0.000021  0.000033  0.000001
                  ***Gradient check signals convergence***
              ***Rediagonalizing the Fockian in SOSCF/NRSCF***

               *****************************************************
               *                     SUCCESS                       *
               *           SCF CONVERGED AFTER  13 CYCLES          *
               *****************************************************

Old exchange energy                            =    -24.312433609 Eh
New exchange energy                            =    -24.312424394 Eh
Exchange energy change after final integration =      0.000009215 Eh
Total energy after final integration           =   -453.537366841 Eh
Final COS-X integration done in                =     6.580 sec

----------------
TOTAL SCF ENERGY
----------------

Total Energy       :         -453.53736684 Eh          -12341.37918 eV

Components:
Nuclear Repulsion  :          455.90648309 Eh           12405.84611 eV
Electronic Energy  :         -909.44384993 Eh          -24747.22528 eV
One Electron Energy:        -1507.44531086 Eh          -41019.67231 eV
Two Electron Energy:          598.00146094 Eh           16272.44703 eV
Max COSX asymmetry :            0.00000111 Eh               0.00003 eV

Virial components:
Potential Energy   :         -903.92484364 Eh          -24597.04548 eV
Kinetic Energy     :          450.38747680 Eh           12255.66631 eV
Virial Ratio       :            2.00699373


DFT components:
N(Alpha)           :       32.999998925727 electrons
N(Beta)            :       32.999998925727 electrons
N(Total)           :       65.999997851454 electrons
E(X)               :      -32.365993242893 Eh       
E(C)               :       -2.943558733793 Eh       
E(XC)              :      -35.309551976686 Eh       
DFET-embed. en.    :        0.000000000000 Eh       

---------------
SCF CONVERGENCE
---------------

  Last Energy change         ...   -3.1059e-09  Tolerance :   1.0000e-08
  Last MAX-Density change    ...    1.3323e-15  Tolerance :   1.0000e-07
  Last RMS-Density change    ...    3.4965e-17  Tolerance :   5.0000e-09
  Last Orbital Gradient      ...    9.9104e-07  Tolerance :   1.0000e-05
  Last Orbital Rotation      ...    2.0321e-06  Tolerance :   1.0000e-05

             **** THE GBW FILE WAS UPDATED (pbeh-3c.gbw) ****
             **** DENSITY pbeh-3c.scfp WAS UPDATED ****
             **** ENERGY FILE WAS UPDATED (pbeh-3c.en.tmp) ****
             **** THE GBW FILE WAS UPDATED (pbeh-3c.gbw) ****
             **** DENSITY pbeh-3c.scfp WAS UPDATED ****
----------------
ORBITAL ENERGIES
----------------

  NO   OCC          E(Eh)            E(eV) 
   0   2.0000     -19.768209      -537.9203 
   1   2.0000     -19.660845      -534.9988 
   2   2.0000     -14.907801      -405.6619 
   3   2.0000     -14.903517      -405.5453 
   4   2.0000     -10.801804      -293.9320 
   5   2.0000     -10.787944      -293.5549 
   6   2.0000     -10.725269      -291.8494 
   7   2.0000     -10.665756      -290.2300 
   8   2.0000     -10.620902      -289.0094 
   9   2.0000      -1.445398       -39.3313 
  10   2.0000      -1.383815       -37.6555 
  11   2.0000      -1.294992       -35.2385 
  12   2.0000      -1.251156       -34.0457 
  13   2.0000      -1.115287       -30.3485 
  14   2.0000      -0.999836       -27.2069 
  15   2.0000      -0.983371       -26.7589 
  16   2.0000      -0.957826       -26.0638 
  17   2.0000      -0.863907       -23.5081 
  18   2.0000      -0.848893       -23.0995 
  19   2.0000      -0.836558       -22.7639 
  20   2.0000      -0.785357       -21.3706 
  21   2.0000      -0.758819       -20.6485 
  22   2.0000      -0.723939       -19.6994 
  23   2.0000      -0.695739       -18.9320 
  24   2.0000      -0.688326       -18.7303 
  25   2.0000      -0.669252       -18.2113 
  26   2.0000      -0.658141       -17.9089 
  27   2.0000      -0.646901       -17.6031 
  28   2.0000      -0.622458       -16.9379 
  29   2.0000      -0.606596       -16.5063 
  30   2.0000      -0.570165       -15.5150 
  31   2.0000      -0.532196       -14.4818 
  32   2.0000      -0.477439       -12.9918 
  33   0.0000      -0.229951        -6.2573 
  34   0.0000      -0.149424        -4.0660 
  35   0.0000      -0.077522        -2.1095 
  36   0.0000      -0.064828        -1.7640 
  37   0.0000      -0.033539        -0.9126 
  38   0.0000      -0.023850        -0.6490 
  39   0.0000       0.001181         0.0321 
  40   0.0000       0.019175         0.5218 
  41   0.0000       0.039871         1.0849 
  42   0.0000       0.064698         1.7605 
  43   0.0000       0.065055         1.7702 
  44   0.0000       0.074866         2.0372 
  45   0.0000       0.092714         2.5229 
  46   0.0000       0.122579         3.3356 
  47   0.0000       0.146240         3.9794 
  48   0.0000       0.189189         5.1481 
  49   0.0000       0.194146         5.2830 
  50   0.0000       0.214990         5.8502 
  51   0.0000       0.254014         6.9121 
  52   0.0000       0.271381         7.3846 
  53   0.0000       0.335866         9.1394 
  54   0.0000       0.343986         9.3603 
  55   0.0000       0.346023         9.4158 
  56   0.0000       0.354797         9.6545 
  57   0.0000       0.385263        10.4836 
  58   0.0000       0.389158        10.5895 
  59   0.0000       0.422921        11.5083 
  60   0.0000       0.440517        11.9871 
  61   0.0000       0.469931        12.7875 
  62   0.0000       0.489843        13.3293 
  63   0.0000       0.526471        14.3260 
  64   0.0000       0.534361        14.5407 
  65   0.0000       0.570297        15.5186 
  66   0.0000       0.609840        16.5946 
  67   0.0000       0.645669        17.5696 
  68   0.0000       0.660949        17.9853 
  69   0.0000       0.677672        18.4404 
  70   0.0000       0.740392        20.1471 
  71   0.0000       0.756561        20.5871 
  72   0.0000       0.757335        20.6081 
  73   0.0000       0.789519        21.4839 
  74   0.0000       0.809939        22.0396 
  75   0.0000       0.823437        22.4069 
  76   0.0000       0.831163        22.6171 
  77   0.0000       0.873324        23.7644 
  78   0.0000       0.887040        24.1376 
  79   0.0000       0.895271        24.3616 
  80   0.0000       0.901490        24.5308 
  81   0.0000       0.943793        25.6819 
  82   0.0000       0.963182        26.2095 
  83   0.0000       0.977547        26.6004 
  84   0.0000       1.012891        27.5622 
  85   0.0000       1.033887        28.1335 
  86   0.0000       1.050917        28.5969 
  87   0.0000       1.107375        30.1332 
  88   0.0000       1.160074        31.5672 
  89   0.0000       1.164166        31.6786 
  90   0.0000       1.179697        32.1012 
  91   0.0000       1.226870        33.3848 
  92   0.0000       1.252150        34.0727 
  93   0.0000       1.274538        34.6819 
  94   0.0000       1.299915        35.3725 
  95   0.0000       1.307152        35.5694 
  96   0.0000       1.356844        36.9216 
  97   0.0000       1.435145        39.0523 
  98   0.0000       1.481630        40.3172 
  99   0.0000       1.552255        42.2390 
 100   0.0000       1.552470        42.2449 
 101   0.0000       1.579819        42.9891 
 102   0.0000       1.662355        45.2350 
 103   0.0000       1.675941        45.6047 
 104   0.0000       1.693073        46.0709 
 105   0.0000       1.693404        46.0799 
 106   0.0000       1.726425        46.9784 
 107   0.0000       1.757347        47.8198 
 108   0.0000       1.816997        49.4430 
 109   0.0000       1.823199        49.6118 
 110   0.0000       1.866898        50.8009 
 111   0.0000       1.872088        50.9421 
 112   0.0000       1.900800        51.7234 
 113   0.0000       1.978005        53.8242 
 114   0.0000       2.017480        54.8984 
 115   0.0000       2.028300        55.1928 
 116   0.0000       2.029892        55.2362 
 117   0.0000       2.090007        56.8720 
 118   0.0000       2.141155        58.2638 
 119   0.0000       2.152650        58.5766 
 120   0.0000       2.185034        59.4578 
 121   0.0000       2.187817        59.5335 
 122   0.0000       2.217981        60.3543 
 123   0.0000       2.218494        60.3683 
 124   0.0000       2.272971        61.8507 
 125   0.0000       2.327719        63.3405 
 126   0.0000       2.417376        65.7801 
 127   0.0000       2.419156        65.8286 
 128   0.0000       2.467622        67.1474 
 129   0.0000       2.535918        69.0058 
 130   0.0000       2.552728        69.4633 
 131   0.0000       2.569363        69.9159 
 132   0.0000       2.633234        71.6539 
 133   0.0000       2.683933        73.0335 
 134   0.0000       2.716475        73.9191 
 135   0.0000       2.784789        75.7779 
 136   0.0000       2.842823        77.3572 
 137   0.0000       2.903091        78.9971 
 138   0.0000       3.108933        84.5984 
 139   0.0000       3.358377        91.3861 
 140   0.0000      13.229121       359.9827 
 141   0.0000      13.671543       372.0216 
 142   0.0000      13.781912       375.0249 
 143   0.0000      13.784845       375.1047 
 144   0.0000      14.095043       383.5456 
 145   0.0000      19.085502       519.3429 
 146   0.0000      19.190902       522.2110 
 147   0.0000      25.473059       693.1572 
 148   0.0000      25.572892       695.8738 

                    ********************************
                    * MULLIKEN POPULATION ANALYSIS *
                    ********************************

-----------------------
MULLIKEN ATOMIC CHARGES
-----------------------
   0 N :   -0.667086
   1 N :   -0.696495
   2 C :   -0.159148
   3 C :    0.686564
   4 C :    0.122421
   5 C :    0.708255
   6 C :   -0.749217
   7 O :   -0.504249
   8 O :   -0.309184
   9 H :    0.441734
  10 H :    0.450887
  11 H :    0.330397
  12 H :    0.273211
  13 H :    0.273211
  14 H :    0.292829
  15 H :    0.505871
Sum of atomic charges:    1.0000000

--------------------------------
MULLIKEN REDUCED ORBITAL CHARGES
--------------------------------
  0 N s       :     3.590872  s :     3.590872
      pz      :     1.583319  p :     4.040523
      px      :     1.202080
      py      :     1.255124
      dz2     :     0.004346  d :     0.035691
      dxz     :     0.004212
      dyz     :     0.003814
      dx2y2   :     0.011777
      dxy     :     0.011542
  1 N s       :     3.604759  s :     3.604759
      pz      :     1.593095  p :     4.059182
      px      :     1.315460
      py      :     1.150627
      dz2     :     0.004410  d :     0.032553
      dxz     :     0.001849
      dyz     :     0.005802
      dx2y2   :     0.012100
      dxy     :     0.008393
  2 C s       :     3.186045  s :     3.186045
      pz      :     1.144951  p :     2.930146
      px      :     0.823333
      py      :     0.961861
      dz2     :     0.003934  d :     0.042958
      dxz     :     0.003266
      dyz     :     0.007810
      dx2y2   :     0.017586
      dxy     :     0.010362
  3 C s       :     2.918949  s :     2.918949
      pz      :     0.758418  p :     2.283909
      px      :     0.858861
      py      :     0.666630
      dz2     :     0.006321  d :     0.110578
      dxz     :     0.016416
      dyz     :     0.022653
      dx2y2   :     0.028942
      dxy     :     0.036246
  4 C s       :     3.156977  s :     3.156977
      pz      :     0.803770  p :     2.659239
      px      :     1.020066
      py      :     0.835403
      dz2     :     0.004872  d :     0.061362
      dxz     :     0.003566
      dyz     :     0.016446
      dx2y2   :     0.018718
      dxy     :     0.017760
  5 C s       :     2.792184  s :     2.792184
      pz      :     0.805702  p :     2.352195
      px      :     0.767953
      py      :     0.778540
      dz2     :     0.006911  d :     0.147366
      dxz     :     0.016846
      dyz     :     0.025554
      dx2y2   :     0.059183
      dxy     :     0.038871
  6 C s       :     3.445999  s :     3.445999
      pz      :     1.158033  p :     3.266845
      px      :     1.151992
      py      :     0.956820
      dz2     :     0.007480  d :     0.036373
      dxz     :     0.002163
      dyz     :     0.012446
      dx2y2   :     0.008048
      dxy     :     0.006237
  7 O s       :     3.783929  s :     3.783929
      pz      :     1.765459  p :     4.688405
      px      :     1.628618
      py      :     1.294328
      dz2     :     0.004852  d :     0.031915
      dxz     :     0.005292
      dyz     :     0.002359
      dx2y2   :     0.004141
      dxy     :     0.015271
  8 O s       :     3.757685  s :     3.757685
      pz      :     1.411729  p :     4.516525
      px      :     1.648356
      py      :     1.456440
      dz2     :     0.003004  d :     0.034974
      dxz     :     0.003591
      dyz     :     0.010224
      dx2y2   :     0.008839
      dxy     :     0.009316
  9 H s       :     0.558266  s :     0.558266
 10 H s       :     0.549113  s :     0.549113
 11 H s       :     0.669603  s :     0.669603
 12 H s       :     0.726789  s :     0.726789
 13 H s       :     0.726789  s :     0.726789
 14 H s       :     0.707171  s :     0.707171
 15 H s       :     0.494129  s :     0.494129


                     *******************************
                     * LOEWDIN POPULATION ANALYSIS *
                     *******************************

----------------------
LOEWDIN ATOMIC CHARGES
----------------------
   0 N :   -0.131769
   1 N :   -0.128029
   2 C :   -0.164083
   3 C :    0.211781
   4 C :    0.066201
   5 C :    0.158896
   6 C :   -0.353711
   7 O :   -0.185720
   8 O :   -0.153456
   9 H :    0.313550
  10 H :    0.321148
  11 H :    0.181233
  12 H :    0.158585
  13 H :    0.158585
  14 H :    0.172361
  15 H :    0.374430

-------------------------------
LOEWDIN REDUCED ORBITAL CHARGES
-------------------------------
  0 N s       :     3.090128  s :     3.090128
      pz      :     1.523615  p :     3.955950
      px      :     1.209485
      py      :     1.222850
      dz2     :     0.006945  d :     0.085691
      dxz     :     0.009018
      dyz     :     0.006874
      dx2y2   :     0.032258
      dxy     :     0.030595
  1 N s       :     3.096630  s :     3.096630
      pz      :     1.530320  p :     3.952809
      px      :     1.239700
      py      :     1.182790
      dz2     :     0.007310  d :     0.078590
      dxz     :     0.002494
      dyz     :     0.012035
      dx2y2   :     0.031351
      dxy     :     0.025400
  2 C s       :     2.845693  s :     2.845693
      pz      :     1.098145  p :     3.212956
      px      :     1.032715
      py      :     1.082095
      dz2     :     0.007786  d :     0.105434
      dxz     :     0.006520
      dyz     :     0.013871
      dx2y2   :     0.046142
      dxy     :     0.031116
  3 C s       :     2.802650  s :     2.802650
      pz      :     0.781762  p :     2.739447
      px      :     1.049506
      py      :     0.908179
      dz2     :     0.015084  d :     0.246123
      dxz     :     0.031873
      dyz     :     0.045704
      dx2y2   :     0.069996
      dxy     :     0.083466
  4 C s       :     2.880020  s :     2.880020
      pz      :     0.823983  p :     2.918514
      px      :     1.084596
      py      :     1.009935
      dz2     :     0.009343  d :     0.135265
      dxz     :     0.005491
      dyz     :     0.034620
      dx2y2   :     0.044535
      dxy     :     0.041277
  5 C s       :     2.772600  s :     2.772600
      pz      :     0.824609  p :     2.738709
      px      :     0.939381
      py      :     0.974719
      dz2     :     0.017213  d :     0.329795
      dxz     :     0.033600
      dyz     :     0.050654
      dx2y2   :     0.138356
      dxy     :     0.089972
  6 C s       :     2.940087  s :     2.940087
      pz      :     1.149606  p :     3.344812
      px      :     1.138265
      py      :     1.056941
      dz2     :     0.012734  d :     0.068813
      dxz     :     0.003202
      dyz     :     0.023006
      dx2y2   :     0.015948
      dxy     :     0.013923
  7 O s       :     3.445012  s :     3.445012
      pz      :     1.742204  p :     4.682186
      px      :     1.647357
      py      :     1.292625
      dz2     :     0.007621  d :     0.058523
      dxz     :     0.005826
      dyz     :     0.005314
      dx2y2   :     0.011506
      dxy     :     0.028257
  8 O s       :     3.506048  s :     3.506048
      pz      :     1.403636  p :     4.584500
      px      :     1.658633
      py      :     1.522232
      dz2     :     0.007327  d :     0.062908
      dxz     :     0.004861
      dyz     :     0.013712
      dx2y2   :     0.016181
      dxy     :     0.020827
  9 H s       :     0.686450  s :     0.686450
 10 H s       :     0.678852  s :     0.678852
 11 H s       :     0.818767  s :     0.818767
 12 H s       :     0.841415  s :     0.841415
 13 H s       :     0.841415  s :     0.841415
 14 H s       :     0.827639  s :     0.827639
 15 H s       :     0.625570  s :     0.625570


                      *****************************
                      * MAYER POPULATION ANALYSIS *
                      *****************************

  NA   - Mulliken gross atomic population
  ZA   - Total nuclear charge
  QA   - Mulliken gross atomic charge
  VA   - Mayer's total valence
  BVA  - Mayer's bonded valence
  FA   - Mayer's free valence

  ATOM       NA         ZA         QA         VA         BVA        FA
  0 N      7.6671     7.0000    -0.6671     3.1505     3.1505     0.0000
  1 N      7.6965     7.0000    -0.6965     3.0913     3.0913     0.0000
  2 C      6.1591     6.0000    -0.1591     3.7284     3.7284    -0.0000
  3 C      5.3134     6.0000     0.6866     3.7632     3.7632     0.0000
  4 C      5.8776     6.0000     0.1224     3.6133     3.6133     0.0000
  5 C      5.2917     6.0000     0.7083     4.1036     4.1036     0.0000
  6 C      6.7492     6.0000    -0.7492     3.6406     3.6406    -0.0000
  7 O      8.5042     8.0000    -0.5042     2.1446     2.1446    -0.0000
  8 O      8.3092     8.0000    -0.3092     2.3276     2.3276    -0.0000
  9 H      0.5583     1.0000     0.4417     0.7921     0.7921     0.0000
 10 H      0.5491     1.0000     0.4509     0.7891     0.7891    -0.0000
 11 H      0.6696     1.0000     0.3304     0.8572     0.8572    -0.0000
 12 H      0.7268     1.0000     0.2732     0.8854     0.8854     0.0000
 13 H      0.7268     1.0000     0.2732     0.8854     0.8854     0.0000
 14 H      0.7072     1.0000     0.2928     0.8910     0.8910    -0.0000
 15 H      0.4941     1.0000     0.5059     0.7327     0.7327    -0.0000

  Mayer bond orders larger than 0.100000
B(  0-N ,  4-C ) :   1.1924 B(  0-N ,  5-C ) :   0.9980 B(  0-N ,  9-H ) :   0.7731 
B(  1-N ,  3-C ) :   1.1976 B(  1-N ,  5-C ) :   0.9655 B(  1-N , 10-H ) :   0.7617 
B(  2-C ,  3-C ) :   1.2217 B(  2-C ,  4-C ) :   1.4749 B(  2-C ,  6-C ) :   0.9367 
B(  3-C ,  7-O ) :   1.3065 B(  4-C , 11-H ) :   0.8705 B(  5-C ,  8-O ) :   2.1431 
B(  6-C , 12-H ) :   0.8969 B(  6-C , 13-H ) :   0.8969 B(  6-C , 14-H ) :   0.9027 
B(  7-O , 15-H ) :   0.7076 

-------
TIMINGS
-------

Total SCF time: 0 days 0 hours 1 min 33 sec 

Total time                  ....      93.805 sec
Sum of individual times     ....      88.887 sec  ( 94.8%)

Fock matrix formation       ....      76.901 sec  ( 82.0%)
  Split-RI-J                ....       8.365 sec  ( 10.9% of F)
  Chain of spheres X        ....      39.036 sec  ( 50.8% of F)
  XC integration            ....      16.655 sec  ( 21.7% of F)
    Basis function eval.    ....       4.302 sec  ( 25.8% of XC)
    Density eval.           ....       2.732 sec  ( 16.4% of XC)
    XC-Functional eval.     ....       1.672 sec  ( 10.0% of XC)
    XC-Potential eval.      ....       1.875 sec  ( 11.3% of XC)
Diagonalization             ....       0.993 sec  (  1.1%)
Density matrix formation    ....       0.168 sec  (  0.2%)
Population analysis         ....       0.015 sec  (  0.0%)
Initial guess               ....       0.032 sec  (  0.0%)
Orbital Transformation      ....       0.000 sec  (  0.0%)
Orbital Orthonormalization  ....       0.000 sec  (  0.0%)
DIIS solution               ....       1.837 sec  (  2.0%)
SOSCF solution              ....       1.048 sec  (  1.1%)
Grid generation             ....       7.891 sec  (  8.4%)

Maximum memory used throughout the entire SCF-calculation: 56.2 MB


-------------------------------------------------------------------------------
                          DFT DISPERSION CORRECTION                            
                                                                               
                              DFTD3 V3.1  Rev 1                                
                          USING Becke-Johnson damping                          
-------------------------------------------------------------------------------
The PBEh-3c composite method is recognized
Using three-body term ABC
Active option DFTDOPT                   ...         4   

molecular C6(AA) [au] = 2612.800653 


            DFT-D V3
 parameters
 s6 scaling factor         :     1.0000 
 a1 scaling factor         :     0.4860 
 s8 scaling factor         :     0.0000 
 a2 scaling factor         :     4.5000 
 Damping factor alpha9(ATM):    16.0000 
 ad hoc parameters k1-k3   :    16.0000     1.3333    -4.0000 

 Edisp/kcal,au: -5.433605764473  -0.008659001034 
 E6   /kcal   :  -5.447812815 
 E8   /kcal   :  -0.000000000 
 E6(ABC)      :   0.014207051 
 % E8         :   0.000000000 
 % E6(ABC)    :  -0.261466356 

-------------------------   ----------------
Dispersion correction           -0.008659001
-------------------------   ----------------

------------------   -----------------
gCP correction             0.031348544
------------------   -----------------

-------------------------   --------------------
FINAL SINGLE POINT ENERGY      -453.514677298584
-------------------------   --------------------


                            ***************************************
                            *     ORCA property calculations      *
                            ***************************************

                                    ---------------------
                                    Active property flags
                                    ---------------------
   (+) Dipole Moment


------------------------------------------------------------------------------
                       ORCA ELECTRIC PROPERTIES CALCULATION
------------------------------------------------------------------------------

Dipole Moment Calculation                       ... on
Quadrupole Moment Calculation                   ... off
Polarizability Calculation                      ... off
GBWName                                         ... pbeh-3c.gbw
Electron density                                ... pbeh-3c.scfp
The origin for moment calculation is the CENTER OF MASS  = ( 0.807670,  0.875290  0.000000)

-------------
DIPOLE MOMENT
-------------
                                X             Y             Z
Electronic contribution:      4.77761       5.55183      -0.00000
Nuclear contribution   :     -6.09232      -7.05760       0.00000
                        -----------------------------------------
Total Dipole Moment    :     -1.31471      -1.50577      -0.00000
                        -----------------------------------------
Magnitude (a.u.)       :      1.99895
Magnitude (Debye)      :      5.08093



--------------------
Rotational spectrum 
--------------------
 
Rotational constants in cm-1:     0.104473     0.047152     0.032690 
Rotational constants in MHz :  3132.021707  1413.589499   980.007919 

 Dipole components along the rotational axes: 
x,y,z [a.u.] :     1.830945     0.802150    -0.000000 
x,y,z [Debye]:     4.653891     2.038904    -0.000000 

 

Timings for individual modules:

Sum of individual times         ...       96.304 sec (=   1.605 min)
GTO integral calculation        ...        1.397 sec (=   0.023 min)   1.5 %
SCF iterations                  ...       94.907 sec (=   1.582 min)  98.5 %
                             ****ORCA TERMINATED NORMALLY****
TOTAL RUN TIME: 0 days 0 hours 1 minutes 38 seconds 555 msec
