
                                 *****************
                                 * O   R   C   A *
                                 *****************

                                            #,                                       
                                            ###                                      
                                            ####                                     
                                            #####                                    
                                            ######                                   
                                           ########,                                 
                                     ,,################,,,,,                         
                               ,,#################################,,                 
                          ,,##########################################,,             
                       ,#########################################, ''#####,          
                    ,#############################################,,   '####,        
                  ,##################################################,,,,####,       
                ,###########''''           ''''###############################       
              ,#####''   ,,,,##########,,,,          '''####'''          '####       
            ,##' ,,,,###########################,,,                        '##       
           ' ,,###''''                  '''############,,,                           
         ,,##''                                '''############,,,,        ,,,,,,###''
      ,#''                                            '''#######################'''  
     '                                                          ''''####''''         
             ,#######,   #######,   ,#######,      ##                                
            ,#'     '#,  ##    ##  ,#'     '#,    #''#        ######   ,####,        
            ##       ##  ##   ,#'  ##            #'  '#       #        #'  '#        
            ##       ##  #######   ##           ,######,      #####,   #    #        
            '#,     ,#'  ##    ##  '#,     ,#' ,#      #,         ##   #,  ,#        
             '#######'   ##     ##  '#######'  #'      '#     #####' # '####'        



                  #######################################################
                  #                        -***-                        #
                  #          Department of theory and spectroscopy      #
                  #    Directorship and core code : Frank Neese         #
                  #        Max Planck Institute fuer Kohlenforschung    #
                  #                Kaiser Wilhelm Platz 1               #
                  #                 D-45470 Muelheim/Ruhr               #
                  #                      Germany                        #
                  #                                                     #
                  #                  All rights reserved                #
                  #                        -***-                        #
                  #######################################################


                         Program Version 5.0.3 -  RELEASE  -


 With contributions from (in alphabetic order):
   Daniel Aravena         : Magnetic Suceptibility
   Michael Atanasov       : Ab Initio Ligand Field Theory (pilot matlab implementation)
   Alexander A. Auer      : GIAO ZORA, VPT2 properties, NMR spectrum
   Ute Becker             : Parallelization
   Giovanni Bistoni       : ED, misc. LED, open-shell LED, HFLD
   Martin Brehm           : Molecular dynamics
   Dmytro Bykov           : SCF Hessian
   Vijay G. Chilkuri      : MRCI spin determinant printing, contributions to CSF-ICE
   Dipayan Datta          : RHF DLPNO-CCSD density
   Achintya Kumar Dutta   : EOM-CC, STEOM-CC
   Dmitry Ganyushin       : Spin-Orbit,Spin-Spin,Magnetic field MRCI
   Miquel Garcia          : C-PCM and meta-GGA Hessian, CC/C-PCM, Gaussian charge scheme
   Yang Guo               : DLPNO-NEVPT2, F12-NEVPT2, CIM, IAO-localization
   Andreas Hansen         : Spin unrestricted coupled pair/coupled cluster methods
   Benjamin Helmich-Paris : MC-RPA, TRAH-SCF, COSX integrals
   Lee Huntington         : MR-EOM, pCC
   Robert Izsak           : Overlap fitted RIJCOSX, COSX-SCS-MP3, EOM
   Marcus Kettner         : VPT2
   Christian Kollmar      : KDIIS, OOCD, Brueckner-CCSD(T), CCSD density, CASPT2, CASPT2-K
   Simone Kossmann        : Meta GGA functionals, TD-DFT gradient, OOMP2, MP2 Hessian
   Martin Krupicka        : Initial AUTO-CI
   Lucas Lang             : DCDCAS
   Marvin Lechner         : AUTO-CI (C++ implementation), FIC-MRCC
   Dagmar Lenk            : GEPOL surface, SMD
   Dimitrios Liakos       : Extrapolation schemes; Compound Job, initial MDCI parallelization
   Dimitrios Manganas     : Further ROCIS development; embedding schemes
   Dimitrios Pantazis     : SARC Basis sets
   Anastasios Papadopoulos: AUTO-CI, single reference methods and gradients
   Taras Petrenko         : DFT Hessian,TD-DFT gradient, ASA, ECA, R-Raman, ABS, FL, XAS/XES, NRVS
   Peter Pinski           : DLPNO-MP2, DLPNO-MP2 Gradient
   Christoph Reimann      : Effective Core Potentials
   Marius Retegan         : Local ZFS, SOC
   Christoph Riplinger    : Optimizer, TS searches, QM/MM, DLPNO-CCSD(T), (RO)-DLPNO pert. Triples
   Tobias Risthaus        : Range-separated hybrids, TD-DFT gradient, RPA, STAB
   Michael Roemelt        : Original ROCIS implementation
   Masaaki Saitow         : Open-shell DLPNO-CCSD energy and density
   Barbara Sandhoefer     : DKH picture change effects
   Avijit Sen             : IP-ROCIS
   Kantharuban Sivalingam : CASSCF convergence, NEVPT2, FIC-MRCI
   Bernardo de Souza      : ESD, SOC TD-DFT
   Georgi Stoychev        : AutoAux, RI-MP2 NMR, DLPNO-MP2 response
   Willem Van den Heuvel  : Paramagnetic NMR
   Boris Wezisla          : Elementary symmetry handling
   Frank Wennmohs         : Technical directorship


 We gratefully acknowledge several colleagues who have allowed us to
 interface, adapt or use parts of their codes:
   Stefan Grimme, W. Hujo, H. Kruse, P. Pracht,  : VdW corrections, initial TS optimization,
                  C. Bannwarth, S. Ehlert          DFT functionals, gCP, sTDA/sTD-DF
   Ed Valeev, F. Pavosevic, A. Kumar             : LibInt (2-el integral package), F12 methods
   Garnet Chan, S. Sharma, J. Yang, R. Olivares  : DMRG
   Ulf Ekstrom                                   : XCFun DFT Library
   Mihaly Kallay                                 : mrcc  (arbitrary order and MRCC methods)
   Jiri Pittner, Ondrej Demel                    : Mk-CCSD
   Frank Weinhold                                : gennbo (NPA and NBO analysis)
   Christopher J. Cramer and Donald G. Truhlar   : smd solvation model
   Lars Goerigk                                  : TD-DFT with DH, B97 family of functionals
   V. Asgeirsson, H. Jonsson                     : NEB implementation
   FAccTs GmbH                                   : IRC, NEB, NEB-TS, DLPNO-Multilevel, CI-OPT
                                                   MM, QMMM, 2- and 3-layer-ONIOM, Crystal-QMMM,
                                                   LR-CPCM, SF, NACMEs, symmetry and pop. for TD-DFT,
                                                   nearIR, NL-DFT gradient (VV10), updates on ESD,
                                                   ML-optimized integration grids
   S Lehtola, MJT Oliveira, MAL Marques          : LibXC Library
   Liviu Ungur et al                             : ANISO software


 Your calculation uses the libint2 library for the computation of 2-el integrals
 For citations please refer to: http://libint.valeyev.net

 Your ORCA version has been built with support for libXC version: 5.1.0
 For citations please refer to: https://tddft.org/programs/libxc/

 This ORCA versions uses:
   CBLAS   interface :  Fast vector & matrix operations
   LAPACKE interface :  Fast linear algebra routines
   SCALAPACK package :  Parallel linear algebra routines
   Shared memory     :  Shared parallel matrices
   BLAS/LAPACK       :  OpenBLAS 0.3.15  USE64BITINT DYNAMIC_ARCH NO_AFFINITY Haswell SINGLE_THREADED
        Core in use  :  Haswell
   Copyright (c) 2011-2014, The OpenBLAS Project




***************************************
The coordinates will be read from file: P_GX.xyz
***************************************


Your calculation utilizes the geometrical counterpoise correction gCP
Please cite in your paper:
H.Kruse, S. Grimme J.Chem.Phys., 136, (2012), 154101 
   

Your calculation utilizes the atom-pairwise dispersion correction
with the Becke-Johnson damping scheme (D3BJ)
Cite in your paper:
S.Grimme, S.Ehrlich, L.Goerigk, J Comput Chem, (2011), 32, 1456–1465 
S.Grimme, J.Antony, S.Ehrlich and H.Krieg, J.Chem.Phys., 132, (2010), 154104 
   

Your calculation employs the composite approach PBEh-3c.
Please cite in your paper:
S. Grimme, J. G. Brandenburg, C. Bannwarth, A. Hansen J.Chem.Phys., 143, (2015), 054107 
   

================================================================================

----- Orbital basis set information -----
Your calculation utilizes the basis: def2-mSVP

----- AuxJ basis set information -----
Your calculation utilizes the auxiliary basis: def2/J
   F. Weigend, Phys. Chem. Chem. Phys. 8, 1057 (2006).

================================================================================
                                        WARNINGS
                       Please study these warnings very carefully!
================================================================================


INFO   : the flag for use of the SHARK integral package has been found!

================================================================================
                                       INPUT FILE
================================================================================
NAME = pbeh-3c.inp
|  1> ! PBEh-3c def2/J TightSCF DefGrid3
|  2> 
|  3> %maxcore 60000
|  4> 
|  5> %pal
|  6> nprocs 4
|  7> end
|  8> 
|  9> *xyzfile 0 1 P_GX.xyz
| 10> 
| 11>                          ****END OF INPUT****
================================================================================

                       ****************************
                       * Single Point Calculation *
                       ****************************

---------------------------------
CARTESIAN COORDINATES (ANGSTROEM)
---------------------------------
  C     -1.801562    0.701406    0.161353
  C     -1.145392   -0.534908   -0.446163
  C      0.040757   -1.070994    0.366691
  C      1.406272   -0.563125   -0.093607
  C      1.573980    0.950383   -0.034934
  H     -2.629713    1.052644   -0.453142
  H      1.577292   -0.903644   -1.117698
  H      2.178944   -1.032392    0.518333
  H     -1.096226    1.521672    0.273083
  H     -2.196492    0.470962    1.150800
  H      0.053901   -2.160780    0.312738
  H     -0.104037   -0.819306    1.421278
  H     -1.903360   -1.314167   -0.535112
  H     -0.814112   -0.318761   -1.465120
  H      2.589079    1.239469   -0.303598
  H      0.897420    1.454236   -0.723139
  H      1.373247    1.327302    0.968232

----------------------------
CARTESIAN COORDINATES (A.U.)
----------------------------
  NO LB      ZA    FRAG     MASS         X           Y           Z
   0 C     6.0000    0    12.011   -3.404458    1.325465    0.304914
   1 C     6.0000    0    12.011   -2.164477   -1.010829   -0.843125
   2 C     6.0000    0    12.011    0.077020   -2.023885    0.692946
   3 C     6.0000    0    12.011    2.657469   -1.064152   -0.176891
   4 C     6.0000    0    12.011    2.974391    1.795964   -0.066015
   5 H     1.0000    0     1.008   -4.969437    1.989209   -0.856314
   6 H     1.0000    0     1.008    2.980650   -1.707639   -2.112142
   7 H     1.0000    0     1.008    4.117607   -1.950938    0.979508
   8 H     1.0000    0     1.008   -2.071567    2.875544    0.516053
   9 H     1.0000    0     1.008   -4.150768    0.889989    2.174697
  10 H     1.0000    0     1.008    0.101858   -4.083282    0.590990
  11 H     1.0000    0     1.008   -0.196601   -1.548264    2.685827
  12 H     1.0000    0     1.008   -3.596829   -2.483415   -1.011215
  13 H     1.0000    0     1.008   -1.538448   -0.602371   -2.768675
  14 H     1.0000    0     1.008    4.892650    2.342257   -0.573717
  15 H     1.0000    0     1.008    1.695878    2.748108   -1.366534
  16 H     1.0000    0     1.008    2.595061    2.508237    1.829694

--------------------------------
INTERNAL COORDINATES (ANGSTROEM)
--------------------------------
 C      0   0   0     0.000000000000     0.00000000     0.00000000
 C      1   0   0     1.525813494005     0.00000000     0.00000000
 C      2   1   0     1.534623383917   113.86267103     0.00000000
 C      3   2   1     1.527886124851   114.52535197   265.37844733
 C      4   3   2     1.523901131162   114.63838326    59.91480715
 H      1   2   3     1.089406329539   111.31943332   179.38154209
 H      4   3   2     1.092686231827   108.58101708   297.54995540
 H      4   3   2     1.091652005207   108.71223851   182.30730661
 H      1   2   3     1.087574722284   111.90797390    58.51298618
 H      1   2   3     1.089990472880   110.23934791   298.89169219
 H      3   2   1     1.091199897700   109.38995434   144.21280393
 H      3   2   1     1.093830714093   109.14615794    28.40454562
 H      2   1   3     1.090720722853   108.21056862   121.75312297
 H      2   1   3     1.093041228896   109.95502848   237.12049389
 H      5   4   3     1.089117457887   110.89741913   175.74992123
 H      5   4   3     1.088681434545   111.52601067   295.50524339
 H      5   4   3     1.090276796402   111.00905242    55.85373267

---------------------------
INTERNAL COORDINATES (A.U.)
---------------------------
 C      0   0   0     0.000000000000     0.00000000     0.00000000
 C      1   0   0     2.883369635112     0.00000000     0.00000000
 C      2   1   0     2.900017914315   113.86267103     0.00000000
 C      3   2   1     2.887286339787   114.52535197   265.37844733
 C      4   3   2     2.879755793068   114.63838326    59.91480715
 H      1   2   3     2.058679611389   111.31943332   179.38154209
 H      4   3   2     2.064877728459   108.58101708   297.54995540
 H      4   3   2     2.062923323388   108.71223851   182.30730661
 H      1   2   3     2.055218375293   111.90797390    58.51298618
 H      1   2   3     2.059783482327   110.23934791   298.89169219
 H      3   2   1     2.062068964016   109.38995434   144.21280393
 H      3   2   1     2.067040486508   109.14615794    28.40454562
 H      2   1   3     2.061163454784   108.21056862   121.75312297
 H      2   1   3     2.065548575698   109.95502848   237.12049389
 H      5   4   3     2.058133723078   110.89741913   175.74992123
 H      5   4   3     2.057309758374   111.52601067   295.50524339
 H      5   4   3     2.060324555369   111.00905242    55.85373267

---------------------
BASIS SET INFORMATION
---------------------
There are 2 groups of distinct atoms

 Group   1 Type C   : 8s4p1d contracted to 4s2p1d pattern {5111/31/1}
 Group   2 Type H   : 4s contracted to 2s pattern {31}

Atom   0C    basis set group =>   1
Atom   1C    basis set group =>   1
Atom   2C    basis set group =>   1
Atom   3C    basis set group =>   1
Atom   4C    basis set group =>   1
Atom   5H    basis set group =>   2
Atom   6H    basis set group =>   2
Atom   7H    basis set group =>   2
Atom   8H    basis set group =>   2
Atom   9H    basis set group =>   2
Atom  10H    basis set group =>   2
Atom  11H    basis set group =>   2
Atom  12H    basis set group =>   2
Atom  13H    basis set group =>   2
Atom  14H    basis set group =>   2
Atom  15H    basis set group =>   2
Atom  16H    basis set group =>   2
---------------------------------
AUXILIARY/J BASIS SET INFORMATION
---------------------------------
There are 2 groups of distinct atoms

 Group   1 Type C   : 12s5p4d2f1g contracted to 6s4p3d1f1g pattern {711111/2111/211/2/1}
 Group   2 Type H   : 5s2p1d contracted to 3s1p1d pattern {311/2/1}

Atom   0C    basis set group =>   1
Atom   1C    basis set group =>   1
Atom   2C    basis set group =>   1
Atom   3C    basis set group =>   1
Atom   4C    basis set group =>   1
Atom   5H    basis set group =>   2
Atom   6H    basis set group =>   2
Atom   7H    basis set group =>   2
Atom   8H    basis set group =>   2
Atom   9H    basis set group =>   2
Atom  10H    basis set group =>   2
Atom  11H    basis set group =>   2
Atom  12H    basis set group =>   2
Atom  13H    basis set group =>   2
Atom  14H    basis set group =>   2
Atom  15H    basis set group =>   2
Atom  16H    basis set group =>   2


           ************************************************************
           *        Program running with 4 parallel MPI-processes     *
           *              working on a common directory               *
           ************************************************************
------------------------------------------------------------------------------
                           ORCA GTO INTEGRAL CALCULATION
                           -- RI-GTO INTEGRALS CHOSEN --
------------------------------------------------------------------------------
------------------------------------------------------------------------------
                   ___                                                        
                  /   \      - P O W E R E D   B Y -                         
                 /     \                                                     
                 |  |  |   _    _      __       _____    __    __             
                 |  |  |  | |  | |    /  \     |  _  \  |  |  /  |          
                  \  \/   | |  | |   /    \    | | | |  |  | /  /          
                 / \  \   | |__| |  /  /\  \   | |_| |  |  |/  /          
                |  |  |   |  __  | /  /__\  \  |    /   |      \           
                |  |  |   | |  | | |   __   |  |    \   |  |\   \          
                \     /   | |  | | |  |  |  |  | |\  \  |  | \   \       
                 \___/    |_|  |_| |__|  |__|  |_| \__\ |__|  \__/        
                                                                              
                      - O R C A' S   B I G   F R I E N D -                    
                                      &                                       
                       - I N T E G R A L  F E E D E R -                       
                                                                              
 v1 FN, 2020, v2 2021                                                         
------------------------------------------------------------------------------


Reading SHARK input file pbeh-3c.SHARKINP.tmp ... ok
----------------------
SHARK INTEGRAL PACKAGE
----------------------

Number of atoms                             ...     17
Number of basis functions                   ...     99
Number of shells                            ...     59
Maximum angular momentum                    ...      2
Integral batch strategy                     ... SHARK/LIBINT Hybrid
RI-J (if used) integral strategy            ... SPLIT-RIJ (Revised 2003 algorithm where possible)
Printlevel                                  ...      1
Contraction scheme used                     ... SEGMENTED contraction
Coulomb Range Separation                    ... NOT USED
Exchange Range Separation                   ... NOT USED
Finite Nucleus Model                        ... NOT USED
Auxiliary Coulomb fitting basis             ... AVAILABLE
   # of basis functions in Aux-J            ...    377
   # of shells in Aux-J                     ...    135
   Maximum angular momentum in Aux-J        ...      4
Auxiliary J/K fitting basis                 ... NOT available
Auxiliary Correlation fitting basis         ... NOT available
Auxiliary 'external' fitting basis          ... NOT available
Integral threshold                          ...     2.500000e-11
Primitive cut-off                           ...     2.500000e-12
Primitive pair pre-selection threshold      ...     2.500000e-12

Calculating pre-screening integrals         ... done (  0.1 sec) Dimension = 59
Organizing shell pair data                  ... done (  0.4 sec)
Shell pair information
Total number of shell pairs                 ...      1770
Shell pairs after pre-screening             ...      1712
Total number of primitive shell pairs       ...      6542
Primitive shell pairs kept                  ...      4696
          la=0 lb=0:    936 shell pairs
          la=1 lb=0:    440 shell pairs
          la=1 lb=1:     55 shell pairs
          la=2 lb=0:    216 shell pairs
          la=2 lb=1:     50 shell pairs
          la=2 lb=2:     15 shell pairs

Calculating one electron integrals          ... done (  0.0 sec)
Calculating RI/J V-Matrix + Cholesky decomp.... done (  1.3 sec)
Calculating Nuclear repulsion               ... done (  0.1 sec) ENN=    191.595941247565 Eh

SHARK setup successfully completed in   3.8 seconds

Maximum memory used throughout the entire GTOINT-calculation: 10.4 MB


           ************************************************************
           *        Program running with 4 parallel MPI-processes     *
           *              working on a common directory               *
           ************************************************************
-------------------------------------------------------------------------------
                                 ORCA SCF
-------------------------------------------------------------------------------

------------
SCF SETTINGS
------------
Hamiltonian:
 Density Functional     Method          .... DFT(GTOs)
 Exchange Functional    Exchange        .... PBE
   PBE kappa parameter   XKappa         ....  1.024500
   PBE mue parameter    XMuePBE         ....  0.123457
 Correlation Functional Correlation     .... PBE
   PBE beta parameter  CBetaPBE         ....  0.030000
 LDA part of GGA corr.  LDAOpt          .... PW91-LDA
 Gradients option       PostSCFGGA      .... off
 Hybrid DFT is turned on
   Fraction HF Exchange ScalHFX         ....  0.420000
   Scaling of DF-GGA-X  ScalDFX         ....  0.580000
   Scaling of DF-GGA-C  ScalDFC         ....  1.000000
   Scaling of DF-LDA-C  ScalLDAC        ....  1.000000
   Perturbative correction              ....  0.000000
   Density functional embedding theory  .... OFF
 RI-approximation to the Coulomb term is turned on
   Number of AuxJ basis functions       .... 377
   RIJ-ON(X) (HFX calculated with O(N)) .... on
   Number of AuxJ basis functions       .... 377
   RIJ-COSX (HFX calculated with COS-X)).... on


General Settings:
 Integral files         IntName         .... pbeh-3c
 Hartree-Fock type      HFTyp           .... RHF
 Total Charge           Charge          ....    0
 Multiplicity           Mult            ....    1
 Number of Electrons    NEL             ....   42
 Basis Dimension        Dim             ....   99
 Nuclear Repulsion      ENuc            ....    191.5959412476 Eh

Convergence Acceleration:
 DIIS                   CNVDIIS         .... on
   Start iteration      DIISMaxIt       ....    12
   Startup error        DIISStart       ....  0.200000
   # of expansion vecs  DIISMaxEq       ....     5
   Bias factor          DIISBfac        ....   1.050
   Max. coefficient     DIISMaxC        ....  10.000
 Trust-Rad. Augm. Hess. CNVTRAH         .... auto
   Auto Start mean grad. ratio tolernc. ....  1.125000
   Auto Start start iteration           ....    20
   Auto Start num. interpolation iter.  ....    10
   Max. Number of Micro iterations      ....    16
   Max. Number of Macro iterations      .... Maxiter - #DIIS iter
   Number of Davidson start vectors     ....     2
   Converg. threshold I  (grad. norm)   ....   1.000e-05
   Converg. threshold II (energy diff.) ....   1.000e-08
   Grad. Scal. Fac. for Micro threshold ....   0.100
   Minimum threshold for Micro iter.    ....   0.010
   NR start threshold (gradient norm)   ....   0.001
   Initial trust radius                 ....   0.400
   Minimum AH scaling param. (alpha)    ....   1.000
   Maximum AH scaling param. (alpha)    .... 1000.000
   Orbital update algorithm             .... Taylor
   White noise on init. David. guess    .... on
   Maximum white noise                  ....   0.010
   Quad. conv. algorithm                .... NR
   COSX micro iterations for RIJONX calc.... off
 SOSCF                  CNVSOSCF        .... on
   Start iteration      SOSCFMaxIt      ....   150
   Startup grad/error   SOSCFStart      ....  0.003300
 Level Shifting         CNVShift        .... on
   Level shift para.    LevelShift      ....    0.2500
   Turn off err/grad.   ShiftErr        ....    0.0010
 Zerner damping         CNVZerner       .... off
 Static damping         CNVDamp         .... on
   Fraction old density DampFac         ....    0.7000
   Max. Damping (<1)    DampMax         ....    0.9800
   Min. Damping (>=0)   DampMin         ....    0.0000
   Turn off err/grad.   DampErr         ....    0.1000
 Fernandez-Rico         CNVRico         .... off

SCF Procedure:
 Maximum # iterations   MaxIter         ....   125
 SCF integral mode      SCFMode         .... Direct
   Integral package                     .... SHARK and LIBINT hybrid scheme
 Reset frequency        DirectResetFreq ....    20
 Integral Threshold     Thresh          ....  2.500e-11 Eh
 Primitive CutOff       TCut            ....  2.500e-12 Eh

Convergence Tolerance:
 Convergence Check Mode ConvCheckMode   .... Total+1el-Energy
 Convergence forced     ConvForced      .... 0
 Energy Change          TolE            ....  1.000e-08 Eh
 1-El. energy change                    ....  1.000e-05 Eh
 Orbital Gradient       TolG            ....  1.000e-05
 Orbital Rotation angle TolX            ....  1.000e-05
 DIIS Error             TolErr          ....  5.000e-07


Diagonalization of the overlap matrix:
Smallest eigenvalue                        ... 6.660e-03
Time for diagonalization                   ...    0.003 sec
Threshold for overlap eigenvalues          ... 1.000e-08
Number of eigenvalues below threshold      ... 0
Time for construction of square roots      ...    0.214 sec
Total time needed                          ...    0.217 sec

--------------------------------
INITIAL GUESS: MINIMAL BASIS EHT
--------------------------------
The minimal basis has 37 functions
EHT matrix was diagonalized
Basis set overlap was calculated now projecting the orbitals
Using GuessMode=FMatrix for the initial guess
C*T matrix was formed
Effective Fockian was calculated
Effective Fockian was diagonalized
Initial density was built
                      ------------------
                      INITIAL GUESS DONE
                      ------------------
-------------------
DFT GRID GENERATION
-------------------

General Integration Accuracy     IntAcc      ... 4.959
Radial Grid Type                 RadialGrid  ... OptM3 with GC (2021)
Angular Grid (max. ang.)         AngularGrid ... 6 (Lebedev-590)
Angular grid pruning method      GridPruning ... 4 (adaptive)
Weight generation scheme         WeightScheme... Becke
Basis function cutoff            BFCut       ... 1.0000e-11
Integration weight cutoff        WCut        ... 1.0000e-14
Angular grids for H and He will be reduced by one unit
Partially contracted basis set               ... off
Rotationally invariant grid construction     ... off

Total number of grid points                  ...   175344
Total number of batches                      ...     2747
Average number of points per batch           ...       63
Average number of grid points per atom       ...    10314
Time for grid setup =    4.770 sec

--------------------
COSX GRID GENERATION
--------------------

GRIDX 1
-------
General Integration Accuracy     IntAcc      ... 4.020
Radial Grid Type                 RadialGrid  ... OptM3 with GC (2021)
Angular Grid (max. ang.)         AngularGrid ... 2 (Lebedev-110)
Angular grid pruning method      GridPruning ... 4 (adaptive)
Weight generation scheme         WeightScheme... Becke
Basis function cutoff            BFCut       ... 1.0000e-11
Integration weight cutoff        WCut        ... 1.0000e-14
Angular grids for H and He will be reduced by one unit
Partially contracted basis set               ... on
Rotationally invariant grid construction     ... off

Total number of grid points                  ...    18017
Total number of batches                      ...      291
Average number of points per batch           ...       61
Average number of grid points per atom       ...     1060
UseSFitting                                  ... on

GRIDX 2
-------
General Integration Accuracy     IntAcc      ... 4.338
Radial Grid Type                 RadialGrid  ... OptM3 with GC (2021)
Angular Grid (max. ang.)         AngularGrid ... 3 (Lebedev-194)
Angular grid pruning method      GridPruning ... 4 (adaptive)
Weight generation scheme         WeightScheme... Becke
Basis function cutoff            BFCut       ... 1.0000e-11
Integration weight cutoff        WCut        ... 1.0000e-14
Angular grids for H and He will be reduced by one unit
Partially contracted basis set               ... on
Rotationally invariant grid construction     ... off

Total number of grid points                  ...    39369
Total number of batches                      ...      624
Average number of points per batch           ...       63
Average number of grid points per atom       ...     2316
UseSFitting                                  ... on

GRIDX 3
-------
General Integration Accuracy     IntAcc      ... 4.871
Radial Grid Type                 RadialGrid  ... OptM3 with GC (2021)
Angular Grid (max. ang.)         AngularGrid ... 4 (Lebedev-302)
Angular grid pruning method      GridPruning ... 4 (adaptive)
Weight generation scheme         WeightScheme... Becke
Basis function cutoff            BFCut       ... 1.0000e-11
Integration weight cutoff        WCut        ... 1.0000e-14
Angular grids for H and He will be reduced by one unit
Partially contracted basis set               ... on
Rotationally invariant grid construction     ... off

Total number of grid points                  ...    79314
Total number of batches                      ...     1249
Average number of points per batch           ...       63
Average number of grid points per atom       ...     4666
UseSFitting                                  ... on

Time for X-Grid setup             =    4.730 sec

--------------
SCF ITERATIONS
--------------
ITER       Energy         Delta-E        Max-DP      RMS-DP      [F,P]     Damp
               ***  Starting incremental Fock matrix formation  ***
  0   -196.9747613108   0.000000000000 0.02357272  0.00216516  0.4029411 0.7000
  1   -197.0826773146  -0.107916003788 0.01729026  0.00164769  0.2854486 0.7000
                      *** Initiating the SOSCF procedure ***
                      *** Re-Reading the Fockian *** 
                      *** Removing any level shift *** 
ITER      Energy       Delta-E        Grad      Rot      Max-DP    RMS-DP
  2   -197.15983397  -0.0771566506  0.002630  0.002630  0.040619  0.004069
               *** Restarting incremental Fock matrix formation ***
  3   -197.34411636  -0.1842823996  0.005837  0.006140  0.007744  0.000723
  4   -197.34460579  -0.0004894277  0.001894  0.001910  0.003502  0.000217
  5   -197.34472077  -0.0001149757  0.001045  0.000468  0.000639  0.000065
  6   -197.34473087  -0.0000101000  0.000071  0.000063  0.000200  0.000010
  7   -197.34473097  -0.0000000993  0.000029  0.000018  0.000080  0.000003
  8   -197.34473101  -0.0000000416  0.000006  0.000006  0.000017  0.000001
                  ***Gradient check signals convergence***
              ***Rediagonalizing the Fockian in SOSCF/NRSCF***

               *****************************************************
               *                     SUCCESS                       *
               *           SCF CONVERGED AFTER   9 CYCLES          *
               *****************************************************

Old exchange energy                            =    -12.685955927 Eh
New exchange energy                            =    -12.685954794 Eh
Exchange energy change after final integration =      0.000001133 Eh
Total energy after final integration           =   -197.344729877 Eh
Final COS-X integration done in                =     2.269 sec

----------------
TOTAL SCF ENERGY
----------------

Total Energy       :         -197.34472988 Eh           -5370.02311 eV

Components:
Nuclear Repulsion  :          191.59594125 Eh            5213.59062 eV
Electronic Energy  :         -388.94067112 Eh          -10583.61372 eV
One Electron Energy:         -643.47747594 Eh          -17509.91231 eV
Two Electron Energy:          254.53680482 Eh            6926.29859 eV
Max COSX asymmetry :            0.00000133 Eh               0.00004 eV

Virial components:
Potential Energy   :         -393.02826694 Eh          -10694.84286 eV
Kinetic Energy     :          195.68353707 Eh            5324.81975 eV
Virial Ratio       :            2.00848918


DFT components:
N(Alpha)           :       20.999988716845 electrons
N(Beta)            :       20.999988716845 electrons
N(Total)           :       41.999977433690 electrons
E(X)               :      -16.795663994988 Eh       
E(C)               :       -1.763432906997 Eh       
E(XC)              :      -18.559096901985 Eh       
DFET-embed. en.    :        0.000000000000 Eh       

---------------
SCF CONVERGENCE
---------------

  Last Energy change         ...   -7.6250e-10  Tolerance :   1.0000e-08
  Last MAX-Density change    ...    1.1102e-15  Tolerance :   1.0000e-07
  Last RMS-Density change    ...    4.2637e-17  Tolerance :   5.0000e-09
  Last Orbital Gradient      ...    2.3844e-06  Tolerance :   1.0000e-05
  Last Orbital Rotation      ...    2.0578e-06  Tolerance :   1.0000e-05

             **** THE GBW FILE WAS UPDATED (pbeh-3c.gbw) ****
             **** DENSITY pbeh-3c.scfp WAS UPDATED ****
             **** ENERGY FILE WAS UPDATED (pbeh-3c.en.tmp) ****
             **** THE GBW FILE WAS UPDATED (pbeh-3c.gbw) ****
             **** DENSITY pbeh-3c.scfp WAS UPDATED ****
----------------
ORBITAL ENERGIES
----------------

  NO   OCC          E(Eh)            E(eV) 
   0   2.0000     -10.427231      -283.7394 
   1   2.0000     -10.426857      -283.7292 
   2   2.0000     -10.424995      -283.6785 
   3   2.0000     -10.418682      -283.5067 
   4   2.0000     -10.417578      -283.4767 
   5   2.0000      -0.892080       -24.2747 
   6   2.0000      -0.830347       -22.5949 
   7   2.0000      -0.759868       -20.6771 
   8   2.0000      -0.680723       -18.5234 
   9   2.0000      -0.630913       -17.1680 
  10   2.0000      -0.526698       -14.3322 
  11   2.0000      -0.507555       -13.8113 
  12   2.0000      -0.488476       -13.2921 
  13   2.0000      -0.456654       -12.4262 
  14   2.0000      -0.443052       -12.0561 
  15   2.0000      -0.422790       -11.5047 
  16   2.0000      -0.409787       -11.1509 
  17   2.0000      -0.393129       -10.6976 
  18   2.0000      -0.367212        -9.9923 
  19   2.0000      -0.361464        -9.8359 
  20   2.0000      -0.354329        -9.6418 
  21   0.0000       0.136371         3.7108 
  22   0.0000       0.165771         4.5109 
  23   0.0000       0.176747         4.8095 
  24   0.0000       0.184499         5.0205 
  25   0.0000       0.190936         5.1956 
  26   0.0000       0.207866         5.6563 
  27   0.0000       0.218110         5.9351 
  28   0.0000       0.224873         6.1191 
  29   0.0000       0.225568         6.1380 
  30   0.0000       0.237037         6.4501 
  31   0.0000       0.246216         6.6999 
  32   0.0000       0.265854         7.2343 
  33   0.0000       0.266580         7.2540 
  34   0.0000       0.278937         7.5903 
  35   0.0000       0.314732         8.5643 
  36   0.0000       0.340995         9.2789 
  37   0.0000       0.505801        13.7635 
  38   0.0000       0.511276        13.9125 
  39   0.0000       0.513223        13.9655 
  40   0.0000       0.537793        14.6341 
  41   0.0000       0.542004        14.7487 
  42   0.0000       0.573019        15.5927 
  43   0.0000       0.581547        15.8247 
  44   0.0000       0.643577        17.5126 
  45   0.0000       0.652462        17.7544 
  46   0.0000       0.676054        18.3964 
  47   0.0000       0.707816        19.2606 
  48   0.0000       0.714431        19.4407 
  49   0.0000       0.754396        20.5282 
  50   0.0000       0.860550        23.4168 
  51   0.0000       0.894801        24.3488 
  52   0.0000       0.970960        26.4212 
  53   0.0000       0.998332        27.1660 
  54   0.0000       1.014799        27.6141 
  55   0.0000       1.018298        27.7093 
  56   0.0000       1.038088        28.2478 
  57   0.0000       1.047810        28.5124 
  58   0.0000       1.066382        29.0177 
  59   0.0000       1.076053        29.2809 
  60   0.0000       1.083822        29.4923 
  61   0.0000       1.085928        29.5496 
  62   0.0000       1.091763        29.7084 
  63   0.0000       1.117348        30.4046 
  64   0.0000       1.155244        31.4358 
  65   0.0000       1.203400        32.7462 
  66   0.0000       1.435137        39.0521 
  67   0.0000       1.482244        40.3339 
  68   0.0000       1.514343        41.2074 
  69   0.0000       1.545712        42.0610 
  70   0.0000       1.578262        42.9467 
  71   0.0000       1.703620        46.3579 
  72   0.0000       1.721788        46.8522 
  73   0.0000       1.793375        48.8002 
  74   0.0000       1.939225        52.7690 
  75   0.0000       1.966257        53.5046 
  76   0.0000       1.975385        53.7530 
  77   0.0000       2.018917        54.9375 
  78   0.0000       2.053468        55.8777 
  79   0.0000       2.070876        56.3514 
  80   0.0000       2.133113        58.0449 
  81   0.0000       2.200190        59.8702 
  82   0.0000       2.247472        61.1568 
  83   0.0000       2.318472        63.0888 
  84   0.0000       2.388226        64.9869 
  85   0.0000       2.406462        65.4832 
  86   0.0000       2.426242        66.0214 
  87   0.0000       2.452679        66.7408 
  88   0.0000       2.482278        67.5462 
  89   0.0000       2.538271        69.0699 
  90   0.0000       2.664111        72.4941 
  91   0.0000       2.676056        72.8192 
  92   0.0000       2.732232        74.3478 
  93   0.0000       2.767508        75.3077 
  94   0.0000      13.558324       368.9408 
  95   0.0000      13.714177       373.1817 
  96   0.0000      13.902624       378.3096 
  97   0.0000      14.036914       381.9639 
  98   0.0000      14.060332       382.6011 

                    ********************************
                    * MULLIKEN POPULATION ANALYSIS *
                    ********************************

-----------------------
MULLIKEN ATOMIC CHARGES
-----------------------
   0 C :   -0.648358
   1 C :   -0.428052
   2 C :   -0.412392
   3 C :   -0.418706
   4 C :   -0.647618
   5 H :    0.216519
   6 H :    0.205506
   7 H :    0.212215
   8 H :    0.218965
   9 H :    0.210461
  10 H :    0.217321
  11 H :    0.204438
  12 H :    0.217272
  13 H :    0.208408
  14 H :    0.221854
  15 H :    0.213874
  16 H :    0.208293
Sum of atomic charges:   -0.0000000

--------------------------------
MULLIKEN REDUCED ORBITAL CHARGES
--------------------------------
  0 C s       :     3.376524  s :     3.376524
      pz      :     1.104386  p :     3.234496
      px      :     1.102698
      py      :     1.027413
      dz2     :     0.008318  d :     0.037337
      dxz     :     0.008753
      dyz     :     0.004702
      dx2y2   :     0.004352
      dxy     :     0.011212
  1 C s       :     3.323860  s :     3.323860
      pz      :     1.045070  p :     3.060735
      px      :     1.011503
      py      :     1.004163
      dz2     :     0.011865  d :     0.043456
      dxz     :     0.007395
      dyz     :     0.005143
      dx2y2   :     0.005280
      dxy     :     0.013773
  2 C s       :     3.320892  s :     3.320892
      pz      :     1.048275  p :     3.048214
      px      :     0.910801
      py      :     1.089138
      dz2     :     0.013402  d :     0.043286
      dxz     :     0.007676
      dyz     :     0.002655
      dx2y2   :     0.013651
      dxy     :     0.005902
  3 C s       :     3.318833  s :     3.318833
      pz      :     1.105554  p :     3.055528
      px      :     0.998300
      py      :     0.951675
      dz2     :     0.009761  d :     0.044344
      dxz     :     0.008083
      dyz     :     0.007395
      dx2y2   :     0.009752
      dxy     :     0.009353
  4 C s       :     3.375112  s :     3.375112
      pz      :     1.122644  p :     3.235256
      px      :     1.135099
      py      :     0.977513
      dz2     :     0.007779  d :     0.037250
      dxz     :     0.005658
      dyz     :     0.008182
      dx2y2   :     0.008737
      dxy     :     0.006893
  5 H s       :     0.783481  s :     0.783481
  6 H s       :     0.794494  s :     0.794494
  7 H s       :     0.787785  s :     0.787785
  8 H s       :     0.781035  s :     0.781035
  9 H s       :     0.789539  s :     0.789539
 10 H s       :     0.782679  s :     0.782679
 11 H s       :     0.795562  s :     0.795562
 12 H s       :     0.782728  s :     0.782728
 13 H s       :     0.791592  s :     0.791592
 14 H s       :     0.778146  s :     0.778146
 15 H s       :     0.786126  s :     0.786126
 16 H s       :     0.791707  s :     0.791707


                     *******************************
                     * LOEWDIN POPULATION ANALYSIS *
                     *******************************

----------------------
LOEWDIN ATOMIC CHARGES
----------------------
   0 C :   -0.364998
   1 C :   -0.249061
   2 C :   -0.243341
   3 C :   -0.245551
   4 C :   -0.365719
   5 H :    0.124834
   6 H :    0.118625
   7 H :    0.121303
   8 H :    0.124056
   9 H :    0.122706
  10 H :    0.123484
  11 H :    0.118979
  12 H :    0.123140
  13 H :    0.119298
  14 H :    0.126290
  15 H :    0.123303
  16 H :    0.122651

-------------------------------
LOEWDIN REDUCED ORBITAL CHARGES
-------------------------------
  0 C s       :     2.952189  s :     2.952189
      pz      :     1.125324  p :     3.343109
      px      :     1.119231
      py      :     1.098554
      dz2     :     0.014869  d :     0.069700
      dxz     :     0.015186
      dyz     :     0.009628
      dx2y2   :     0.008935
      dxy     :     0.021082
  1 C s       :     2.910974  s :     2.910974
      pz      :     1.092930  p :     3.250008
      px      :     1.074539
      py      :     1.082539
      dz2     :     0.021988  d :     0.088079
      dxz     :     0.015938
      dyz     :     0.011244
      dx2y2   :     0.011627
      dxy     :     0.027281
  2 C s       :     2.912800  s :     2.912800
      pz      :     1.093477  p :     3.242604
      px      :     1.053817
      py      :     1.095311
      dz2     :     0.024806  d :     0.087937
      dxz     :     0.017542
      dyz     :     0.005151
      dx2y2   :     0.027231
      dxy     :     0.013208
  3 C s       :     2.910252  s :     2.910252
      pz      :     1.106168  p :     3.244799
      px      :     1.072153
      py      :     1.066478
      dz2     :     0.018540  d :     0.090499
      dxz     :     0.015239
      dyz     :     0.013991
      dx2y2   :     0.022806
      dxy     :     0.019923
  4 C s       :     2.951403  s :     2.951403
      pz      :     1.130840  p :     3.344883
      px      :     1.130051
      py      :     1.083992
      dz2     :     0.013816  d :     0.069433
      dxz     :     0.009020
      dyz     :     0.015564
      dx2y2   :     0.017511
      dxy     :     0.013522
  5 H s       :     0.875166  s :     0.875166
  6 H s       :     0.881375  s :     0.881375
  7 H s       :     0.878697  s :     0.878697
  8 H s       :     0.875944  s :     0.875944
  9 H s       :     0.877294  s :     0.877294
 10 H s       :     0.876516  s :     0.876516
 11 H s       :     0.881021  s :     0.881021
 12 H s       :     0.876860  s :     0.876860
 13 H s       :     0.880702  s :     0.880702
 14 H s       :     0.873710  s :     0.873710
 15 H s       :     0.876697  s :     0.876697
 16 H s       :     0.877349  s :     0.877349


                      *****************************
                      * MAYER POPULATION ANALYSIS *
                      *****************************

  NA   - Mulliken gross atomic population
  ZA   - Total nuclear charge
  QA   - Mulliken gross atomic charge
  VA   - Mayer's total valence
  BVA  - Mayer's bonded valence
  FA   - Mayer's free valence

  ATOM       NA         ZA         QA         VA         BVA        FA
  0 C      6.6484     6.0000    -0.6484     3.7400     3.7400    -0.0000
  1 C      6.4281     6.0000    -0.4281     3.7309     3.7309     0.0000
  2 C      6.4124     6.0000    -0.4124     3.7146     3.7146    -0.0000
  3 C      6.4187     6.0000    -0.4187     3.7694     3.7694    -0.0000
  4 C      6.6476     6.0000    -0.6476     3.7369     3.7369    -0.0000
  5 H      0.7835     1.0000     0.2165     0.9137     0.9137    -0.0000
  6 H      0.7945     1.0000     0.2055     0.9074     0.9074    -0.0000
  7 H      0.7878     1.0000     0.2122     0.9068     0.9068     0.0000
  8 H      0.7810     1.0000     0.2190     0.9121     0.9121     0.0000
  9 H      0.7895     1.0000     0.2105     0.9137     0.9137    -0.0000
 10 H      0.7827     1.0000     0.2173     0.9082     0.9082    -0.0000
 11 H      0.7956     1.0000     0.2044     0.9114     0.9114    -0.0000
 12 H      0.7827     1.0000     0.2173     0.9059     0.9059    -0.0000
 13 H      0.7916     1.0000     0.2084     0.9092     0.9092     0.0000
 14 H      0.7781     1.0000     0.2219     0.9109     0.9109    -0.0000
 15 H      0.7861     1.0000     0.2139     0.9126     0.9126     0.0000
 16 H      0.7917     1.0000     0.2083     0.9150     0.9150    -0.0000

  Mayer bond orders larger than 0.100000
B(  0-C ,  1-C ) :   0.9926 B(  0-C ,  5-H ) :   0.9315 B(  0-C ,  8-H ) :   0.9222 
B(  0-C ,  9-H ) :   0.9293 B(  1-C ,  2-C ) :   0.9533 B(  1-C , 12-H ) :   0.9286 
B(  1-C , 13-H ) :   0.9233 B(  2-C ,  3-C ) :   0.9968 B(  2-C , 10-H ) :   0.9298 
B(  2-C , 11-H ) :   0.9221 B(  3-C ,  4-C ) :   0.9927 B(  3-C ,  6-H ) :   0.9202 
B(  3-C ,  7-H ) :   0.9236 B(  4-C , 14-H ) :   0.9298 B(  4-C , 15-H ) :   0.9244 
B(  4-C , 16-H ) :   0.9286 

-------
TIMINGS
-------

Total SCF time: 0 days 0 hours 1 min 12 sec 

Total time                  ....      72.876 sec
Sum of individual times     ....      65.204 sec  ( 89.5%)

Fock matrix formation       ....      51.154 sec  ( 70.2%)
  Split-RI-J                ....       6.065 sec  ( 11.9% of F)
  Chain of spheres X        ....      16.725 sec  ( 32.7% of F)
  XC integration            ....      14.700 sec  ( 28.7% of F)
    Basis function eval.    ....       2.207 sec  ( 15.0% of XC)
    Density eval.           ....       1.269 sec  (  8.6% of XC)
    XC-Functional eval.     ....       1.002 sec  (  6.8% of XC)
    XC-Potential eval.      ....       0.808 sec  (  5.5% of XC)
Diagonalization             ....       1.435 sec  (  2.0%)
Density matrix formation    ....       0.196 sec  (  0.3%)
Population analysis         ....       0.637 sec  (  0.9%)
Initial guess               ....       0.191 sec  (  0.3%)
Orbital Transformation      ....       0.000 sec  (  0.0%)
Orbital Orthonormalization  ....       0.000 sec  (  0.0%)
DIIS solution               ....       0.301 sec  (  0.4%)
SOSCF solution              ....       1.790 sec  (  2.5%)
Grid generation             ....       9.500 sec  ( 13.0%)

Maximum memory used throughout the entire SCF-calculation: 52.5 MB


-------------------------------------------------------------------------------
                          DFT DISPERSION CORRECTION                            
                                                                               
                              DFTD3 V3.1  Rev 1                                
                          USING Becke-Johnson damping                          
-------------------------------------------------------------------------------
The PBEh-3c composite method is recognized
Using three-body term ABC
Active option DFTDOPT                   ...         4   

molecular C6(AA) [au] = 1797.998128 


            DFT-D V3
 parameters
 s6 scaling factor         :     1.0000 
 a1 scaling factor         :     0.4860 
 s8 scaling factor         :     0.0000 
 a2 scaling factor         :     4.5000 
 Damping factor alpha9(ATM):    16.0000 
 ad hoc parameters k1-k3   :    16.0000     1.3333    -4.0000 

 Edisp/kcal,au: -4.589546010518  -0.007313906340 
 E6   /kcal   :  -4.619572067 
 E8   /kcal   :  -0.000000000 
 E6(ABC)      :   0.030026057 
 % E8         :   0.000000000 
 % E6(ABC)    :  -0.654227165 

-------------------------   ----------------
Dispersion correction           -0.007313906
-------------------------   ----------------

------------------   -----------------
gCP correction             0.022332631
------------------   -----------------

-------------------------   --------------------
FINAL SINGLE POINT ENERGY      -197.329711152540
-------------------------   --------------------


                            ***************************************
                            *     ORCA property calculations      *
                            ***************************************

                                    ---------------------
                                    Active property flags
                                    ---------------------
   (+) Dipole Moment


------------------------------------------------------------------------------
                       ORCA ELECTRIC PROPERTIES CALCULATION
------------------------------------------------------------------------------

Dipole Moment Calculation                       ... on
Quadrupole Moment Calculation                   ... off
Polarizability Calculation                      ... off
GBWName                                         ... pbeh-3c.gbw
Electron density                                ... pbeh-3c.scfp
The origin for moment calculation is the CENTER OF MASS  = ( 0.021342, -0.149059 -0.013446)

-------------
DIPOLE MOMENT
-------------
                                X             Y             Z
Electronic contribution:      0.20904      -1.41870      -0.13212
Nuclear contribution   :     -0.19662       1.37328       0.12388
                        -----------------------------------------
Total Dipole Moment    :      0.01242      -0.04541      -0.00824
                        -----------------------------------------
Magnitude (a.u.)       :      0.04779
Magnitude (Debye)      :      0.12148



--------------------
Rotational spectrum 
--------------------
 
Rotational constants in cm-1:     0.243189     0.107967     0.085144 
Rotational constants in MHz :  7290.635598  3236.780810  2552.557090 

 Dipole components along the rotational axes: 
x,y,z [a.u.] :    -0.012346    -0.045396    -0.008432 
x,y,z [Debye]:    -0.031380    -0.115387    -0.021432 

 

Timings for individual modules:

Sum of individual times         ...       79.174 sec (=   1.320 min)
GTO integral calculation        ...        4.646 sec (=   0.077 min)   5.9 %
SCF iterations                  ...       74.528 sec (=   1.242 min)  94.1 %
                             ****ORCA TERMINATED NORMALLY****
TOTAL RUN TIME: 0 days 0 hours 1 minutes 21 seconds 121 msec
