
                                 *****************
                                 * O   R   C   A *
                                 *****************

                                            #,                                       
                                            ###                                      
                                            ####                                     
                                            #####                                    
                                            ######                                   
                                           ########,                                 
                                     ,,################,,,,,                         
                               ,,#################################,,                 
                          ,,##########################################,,             
                       ,#########################################, ''#####,          
                    ,#############################################,,   '####,        
                  ,##################################################,,,,####,       
                ,###########''''           ''''###############################       
              ,#####''   ,,,,##########,,,,          '''####'''          '####       
            ,##' ,,,,###########################,,,                        '##       
           ' ,,###''''                  '''############,,,                           
         ,,##''                                '''############,,,,        ,,,,,,###''
      ,#''                                            '''#######################'''  
     '                                                          ''''####''''         
             ,#######,   #######,   ,#######,      ##                                
            ,#'     '#,  ##    ##  ,#'     '#,    #''#        ######   ,####,        
            ##       ##  ##   ,#'  ##            #'  '#       #        #'  '#        
            ##       ##  #######   ##           ,######,      #####,   #    #        
            '#,     ,#'  ##    ##  '#,     ,#' ,#      #,         ##   #,  ,#        
             '#######'   ##     ##  '#######'  #'      '#     #####' # '####'        



                  #######################################################
                  #                        -***-                        #
                  #          Department of theory and spectroscopy      #
                  #    Directorship and core code : Frank Neese         #
                  #        Max Planck Institute fuer Kohlenforschung    #
                  #                Kaiser Wilhelm Platz 1               #
                  #                 D-45470 Muelheim/Ruhr               #
                  #                      Germany                        #
                  #                                                     #
                  #                  All rights reserved                #
                  #                        -***-                        #
                  #######################################################


                         Program Version 5.0.3 -  RELEASE  -


 With contributions from (in alphabetic order):
   Daniel Aravena         : Magnetic Suceptibility
   Michael Atanasov       : Ab Initio Ligand Field Theory (pilot matlab implementation)
   Alexander A. Auer      : GIAO ZORA, VPT2 properties, NMR spectrum
   Ute Becker             : Parallelization
   Giovanni Bistoni       : ED, misc. LED, open-shell LED, HFLD
   Martin Brehm           : Molecular dynamics
   Dmytro Bykov           : SCF Hessian
   Vijay G. Chilkuri      : MRCI spin determinant printing, contributions to CSF-ICE
   Dipayan Datta          : RHF DLPNO-CCSD density
   Achintya Kumar Dutta   : EOM-CC, STEOM-CC
   Dmitry Ganyushin       : Spin-Orbit,Spin-Spin,Magnetic field MRCI
   Miquel Garcia          : C-PCM and meta-GGA Hessian, CC/C-PCM, Gaussian charge scheme
   Yang Guo               : DLPNO-NEVPT2, F12-NEVPT2, CIM, IAO-localization
   Andreas Hansen         : Spin unrestricted coupled pair/coupled cluster methods
   Benjamin Helmich-Paris : MC-RPA, TRAH-SCF, COSX integrals
   Lee Huntington         : MR-EOM, pCC
   Robert Izsak           : Overlap fitted RIJCOSX, COSX-SCS-MP3, EOM
   Marcus Kettner         : VPT2
   Christian Kollmar      : KDIIS, OOCD, Brueckner-CCSD(T), CCSD density, CASPT2, CASPT2-K
   Simone Kossmann        : Meta GGA functionals, TD-DFT gradient, OOMP2, MP2 Hessian
   Martin Krupicka        : Initial AUTO-CI
   Lucas Lang             : DCDCAS
   Marvin Lechner         : AUTO-CI (C++ implementation), FIC-MRCC
   Dagmar Lenk            : GEPOL surface, SMD
   Dimitrios Liakos       : Extrapolation schemes; Compound Job, initial MDCI parallelization
   Dimitrios Manganas     : Further ROCIS development; embedding schemes
   Dimitrios Pantazis     : SARC Basis sets
   Anastasios Papadopoulos: AUTO-CI, single reference methods and gradients
   Taras Petrenko         : DFT Hessian,TD-DFT gradient, ASA, ECA, R-Raman, ABS, FL, XAS/XES, NRVS
   Peter Pinski           : DLPNO-MP2, DLPNO-MP2 Gradient
   Christoph Reimann      : Effective Core Potentials
   Marius Retegan         : Local ZFS, SOC
   Christoph Riplinger    : Optimizer, TS searches, QM/MM, DLPNO-CCSD(T), (RO)-DLPNO pert. Triples
   Tobias Risthaus        : Range-separated hybrids, TD-DFT gradient, RPA, STAB
   Michael Roemelt        : Original ROCIS implementation
   Masaaki Saitow         : Open-shell DLPNO-CCSD energy and density
   Barbara Sandhoefer     : DKH picture change effects
   Avijit Sen             : IP-ROCIS
   Kantharuban Sivalingam : CASSCF convergence, NEVPT2, FIC-MRCI
   Bernardo de Souza      : ESD, SOC TD-DFT
   Georgi Stoychev        : AutoAux, RI-MP2 NMR, DLPNO-MP2 response
   Willem Van den Heuvel  : Paramagnetic NMR
   Boris Wezisla          : Elementary symmetry handling
   Frank Wennmohs         : Technical directorship


 We gratefully acknowledge several colleagues who have allowed us to
 interface, adapt or use parts of their codes:
   Stefan Grimme, W. Hujo, H. Kruse, P. Pracht,  : VdW corrections, initial TS optimization,
                  C. Bannwarth, S. Ehlert          DFT functionals, gCP, sTDA/sTD-DF
   Ed Valeev, F. Pavosevic, A. Kumar             : LibInt (2-el integral package), F12 methods
   Garnet Chan, S. Sharma, J. Yang, R. Olivares  : DMRG
   Ulf Ekstrom                                   : XCFun DFT Library
   Mihaly Kallay                                 : mrcc  (arbitrary order and MRCC methods)
   Jiri Pittner, Ondrej Demel                    : Mk-CCSD
   Frank Weinhold                                : gennbo (NPA and NBO analysis)
   Christopher J. Cramer and Donald G. Truhlar   : smd solvation model
   Lars Goerigk                                  : TD-DFT with DH, B97 family of functionals
   V. Asgeirsson, H. Jonsson                     : NEB implementation
   FAccTs GmbH                                   : IRC, NEB, NEB-TS, DLPNO-Multilevel, CI-OPT
                                                   MM, QMMM, 2- and 3-layer-ONIOM, Crystal-QMMM,
                                                   LR-CPCM, SF, NACMEs, symmetry and pop. for TD-DFT,
                                                   nearIR, NL-DFT gradient (VV10), updates on ESD,
                                                   ML-optimized integration grids
   S Lehtola, MJT Oliveira, MAL Marques          : LibXC Library
   Liviu Ungur et al                             : ANISO software


 Your calculation uses the libint2 library for the computation of 2-el integrals
 For citations please refer to: http://libint.valeyev.net

 Your ORCA version has been built with support for libXC version: 5.1.0
 For citations please refer to: https://tddft.org/programs/libxc/

 This ORCA versions uses:
   CBLAS   interface :  Fast vector & matrix operations
   LAPACKE interface :  Fast linear algebra routines
   SCALAPACK package :  Parallel linear algebra routines
   Shared memory     :  Shared parallel matrices
   BLAS/LAPACK       :  OpenBLAS 0.3.15  USE64BITINT DYNAMIC_ARCH NO_AFFINITY Haswell SINGLE_THREADED
        Core in use  :  Haswell
   Copyright (c) 2011-2014, The OpenBLAS Project




***************************************
The coordinates will be read from file: 56.xyz
***************************************


Your calculation utilizes the geometrical counterpoise correction gCP
Please cite in your paper:
H.Kruse, S. Grimme J.Chem.Phys., 136, (2012), 154101 
   

Your calculation utilizes the atom-pairwise dispersion correction
with the Becke-Johnson damping scheme (D3BJ)
Cite in your paper:
S.Grimme, S.Ehrlich, L.Goerigk, J Comput Chem, (2011), 32, 1456–1465 
S.Grimme, J.Antony, S.Ehrlich and H.Krieg, J.Chem.Phys., 132, (2010), 154104 
   

Your calculation employs the composite approach PBEh-3c.
Please cite in your paper:
S. Grimme, J. G. Brandenburg, C. Bannwarth, A. Hansen J.Chem.Phys., 143, (2015), 054107 
   

================================================================================

----- Orbital basis set information -----
Your calculation utilizes the basis: def2-mSVP

----- AuxJ basis set information -----
Your calculation utilizes the auxiliary basis: def2/J
   F. Weigend, Phys. Chem. Chem. Phys. 8, 1057 (2006).

================================================================================
                                        WARNINGS
                       Please study these warnings very carefully!
================================================================================


INFO   : the flag for use of the SHARK integral package has been found!

================================================================================
                                       INPUT FILE
================================================================================
NAME = pbeh-3c.inp
|  1> ! PBEh-3c def2/J TightSCF DefGrid3
|  2> 
|  3> %maxcore 60000
|  4> 
|  5> %pal
|  6> nprocs 4
|  7> end
|  8> 
|  9> *xyzfile 0 1 56.xyz
| 10> 
| 11>                          ****END OF INPUT****
================================================================================

                       ****************************
                       * Single Point Calculation *
                       ****************************

---------------------------------
CARTESIAN COORDINATES (ANGSTROEM)
---------------------------------
  C      0.965855    1.273198   -1.398379
  H      1.555489    2.176853   -1.470705
  C      1.591727    0.028036   -1.436324
  H      2.666683   -0.034570   -1.534813
  C      0.831559   -1.137044   -1.341820
  H      1.317459   -2.102667   -1.365605
  C     -0.554012   -1.056515   -1.211535
  H     -1.143161   -1.960345   -1.137881
  C     -1.179871    0.188578   -1.174839
  H     -2.254692    0.250609   -1.073378
  C     -0.419921    1.353307   -1.266991
  H     -0.905195    2.319316   -1.237494
  N      0.548605   -0.037811    2.135686
  H      0.683223    0.006230    1.132615
  H      0.690098    0.907336    2.468159
  C     -0.827494   -0.444194    2.413122
  H     -0.985371   -0.472741    3.489678
  H     -1.598796    0.196186    1.973003
  H     -0.982186   -1.453762    2.037501

----------------------------
CARTESIAN COORDINATES (A.U.)
----------------------------
  NO LB      ZA    FRAG     MASS         X           Y           Z
   0 C     6.0000    0    12.011    1.825202    2.405996   -2.642554
   1 H     1.0000    0     1.008    2.939448    4.113656   -2.779229
   2 C     6.0000    0    12.011    3.007929    0.052981   -2.714259
   3 H     1.0000    0     1.008    5.039302   -0.065328   -2.900377
   4 C     6.0000    0    12.011    1.571418   -2.148702   -2.535673
   5 H     1.0000    0     1.008    2.489637   -3.973465   -2.580619
   6 C     6.0000    0    12.011   -1.046931   -1.996525   -2.289470
   7 H     1.0000    0     1.008   -2.160260   -3.704515   -2.150283
   8 C     6.0000    0    12.011   -2.229633    0.356360   -2.220124
   9 H     1.0000    0     1.008   -4.260751    0.473583   -2.028390
  10 C     6.0000    0    12.011   -0.793535    2.557380   -2.394266
  11 H     1.0000    0     1.008   -1.710571    4.382872   -2.338524
  12 N     7.0000    0    14.007    1.036713   -0.071452    4.035863
  13 H     1.0000    0     1.008    1.291105    0.011772    2.140333
  14 H     1.0000    0     1.008    1.304095    1.714616    4.664144
  15 C     6.0000    0    12.011   -1.563738   -0.839405    4.560140
  16 H     1.0000    0     1.008   -1.862081   -0.893351    6.594535
  17 H     1.0000    0     1.008   -3.021288    0.370739    3.728436
  18 H     1.0000    0     1.008   -1.856063   -2.747212    3.850318

--------------------------------
INTERNAL COORDINATES (ANGSTROEM)
--------------------------------
 C      0   0   0     0.000000000000     0.00000000     0.00000000
 H      1   0   0     1.081429814939     0.00000000     0.00000000
 C      1   2   0     1.394124769189   119.98214204     0.00000000
 H      3   1   2     1.081272541010   120.03347417     0.19782897
 C      3   1   2     1.394345609293   119.98004394   179.94055217
 H      5   3   1     1.081246339824   119.98239511   180.34666395
 C      5   3   1     1.394010383851   119.99630916     0.09967078
 H      7   5   3     1.081401393853   119.97264084   180.02405676
 C      7   5   3     1.394024091730   120.01962449   359.95929756
 H      9   7   5     1.081379995596   119.99603101   180.02362952
 C      9   7   5     1.393776037490   119.99028919   359.93089738
 H     11   9   7     1.081450029394   119.99941236   180.06425549
 N      5   3   1     3.658063748411    81.69249923   287.43344686
 H     13   5   3     1.013021969914    20.19577256    24.24045872
 H     13   5   3     1.011859807801   125.60719065    21.14574340
 C     13   5   3     1.461426458328    99.77290526   143.42230144
 H     16  13   5     1.088444622669   109.36820340   162.62674118
 H     16  13   5     1.094851249631   115.11208649   284.53376034
 H     16  13   5     1.088231785592   109.04413162    45.64095157

---------------------------
INTERNAL COORDINATES (A.U.)
---------------------------
 C      0   0   0     0.000000000000     0.00000000     0.00000000
 H      1   0   0     2.043606183292     0.00000000     0.00000000
 C      1   2   0     2.634514010284   119.98214204     0.00000000
 H      3   1   2     2.043308978637   120.03347417     0.19782897
 C      3   1   2     2.634931337600   119.98004394   179.94055217
 H      5   3   1     2.043259465573   119.98239511   180.34666395
 C      5   3   1     2.634297853321   119.99630916     0.09967078
 H      7   5   3     2.043552475222   119.97264084   180.02405676
 C      7   5   3     2.634323757457   120.01962449   359.95929756
 H      9   7   5     2.043512038377   119.99603101   180.02362952
 C      9   7   5     2.633855002877   119.99028919   359.93089738
 H     11   9   7     2.043644383076   119.99941236   180.06425549
 N      5   3   1     6.912738664922    81.69249923   287.43344686
 H     13   5   3     1.914334090783    20.19577256    24.24045872
 H     13   5   3     1.912137922666   125.60719065    21.14574340
 C     13   5   3     2.761695771106    99.77290526   143.42230144
 H     16  13   5     2.056862248783   109.36820340   162.62674118
 H     16  13   5     2.068969019184   115.11208649   284.53376034
 H     16  13   5     2.056460044996   109.04413162    45.64095157

---------------------
BASIS SET INFORMATION
---------------------
There are 3 groups of distinct atoms

 Group   1 Type C   : 8s4p1d contracted to 4s2p1d pattern {5111/31/1}
 Group   2 Type H   : 4s contracted to 2s pattern {31}
 Group   3 Type N   : 8s4p1d contracted to 4s2p1d pattern {5111/31/1}

Atom   0C    basis set group =>   1
Atom   1H    basis set group =>   2
Atom   2C    basis set group =>   1
Atom   3H    basis set group =>   2
Atom   4C    basis set group =>   1
Atom   5H    basis set group =>   2
Atom   6C    basis set group =>   1
Atom   7H    basis set group =>   2
Atom   8C    basis set group =>   1
Atom   9H    basis set group =>   2
Atom  10C    basis set group =>   1
Atom  11H    basis set group =>   2
Atom  12N    basis set group =>   3
Atom  13H    basis set group =>   2
Atom  14H    basis set group =>   2
Atom  15C    basis set group =>   1
Atom  16H    basis set group =>   2
Atom  17H    basis set group =>   2
Atom  18H    basis set group =>   2
---------------------------------
AUXILIARY/J BASIS SET INFORMATION
---------------------------------
There are 3 groups of distinct atoms

 Group   1 Type C   : 12s5p4d2f1g contracted to 6s4p3d1f1g pattern {711111/2111/211/2/1}
 Group   2 Type H   : 5s2p1d contracted to 3s1p1d pattern {311/2/1}
 Group   3 Type N   : 12s5p4d2f1g contracted to 6s4p3d1f1g pattern {711111/2111/211/2/1}

Atom   0C    basis set group =>   1
Atom   1H    basis set group =>   2
Atom   2C    basis set group =>   1
Atom   3H    basis set group =>   2
Atom   4C    basis set group =>   1
Atom   5H    basis set group =>   2
Atom   6C    basis set group =>   1
Atom   7H    basis set group =>   2
Atom   8C    basis set group =>   1
Atom   9H    basis set group =>   2
Atom  10C    basis set group =>   1
Atom  11H    basis set group =>   2
Atom  12N    basis set group =>   3
Atom  13H    basis set group =>   2
Atom  14H    basis set group =>   2
Atom  15C    basis set group =>   1
Atom  16H    basis set group =>   2
Atom  17H    basis set group =>   2
Atom  18H    basis set group =>   2


           ************************************************************
           *        Program running with 4 parallel MPI-processes     *
           *              working on a common directory               *
           ************************************************************
------------------------------------------------------------------------------
                           ORCA GTO INTEGRAL CALCULATION
                           -- RI-GTO INTEGRALS CHOSEN --
------------------------------------------------------------------------------
------------------------------------------------------------------------------
                   ___                                                        
                  /   \      - P O W E R E D   B Y -                         
                 /     \                                                     
                 |  |  |   _    _      __       _____    __    __             
                 |  |  |  | |  | |    /  \     |  _  \  |  |  /  |          
                  \  \/   | |  | |   /    \    | | | |  |  | /  /          
                 / \  \   | |__| |  /  /\  \   | |_| |  |  |/  /          
                |  |  |   |  __  | /  /__\  \  |    /   |      \           
                |  |  |   | |  | | |   __   |  |    \   |  |\   \          
                \     /   | |  | | |  |  |  |  | |\  \  |  | \   \       
                 \___/    |_|  |_| |__|  |__|  |_| \__\ |__|  \__/        
                                                                              
                      - O R C A' S   B I G   F R I E N D -                    
                                      &                                       
                       - I N T E G R A L  F E E D E R -                       
                                                                              
 v1 FN, 2020, v2 2021                                                         
------------------------------------------------------------------------------


Reading SHARK input file pbeh-3c.SHARKINP.tmp ... ok
----------------------
SHARK INTEGRAL PACKAGE
----------------------

Number of atoms                             ...     19
Number of basis functions                   ...    142
Number of shells                            ...     78
Maximum angular momentum                    ...      2
Integral batch strategy                     ... SHARK/LIBINT Hybrid
RI-J (if used) integral strategy            ... SPLIT-RIJ (Revised 2003 algorithm where possible)
Printlevel                                  ...      1
Contraction scheme used                     ... SEGMENTED contraction
Coulomb Range Separation                    ... NOT USED
Exchange Range Separation                   ... NOT USED
Finite Nucleus Model                        ... NOT USED
Auxiliary Coulomb fitting basis             ... AVAILABLE
   # of basis functions in Aux-J            ...    513
   # of shells in Aux-J                     ...    175
   Maximum angular momentum in Aux-J        ...      4
Auxiliary J/K fitting basis                 ... NOT available
Auxiliary Correlation fitting basis         ... NOT available
Auxiliary 'external' fitting basis          ... NOT available
Integral threshold                          ...     2.500000e-11
Primitive cut-off                           ...     2.500000e-12
Primitive pair pre-selection threshold      ...     2.500000e-12

Calculating pre-screening integrals         ... done (  0.2 sec) Dimension = 78
Organizing shell pair data                  ... done (  0.3 sec)
Shell pair information
Total number of shell pairs                 ...      3081
Shell pairs after pre-screening             ...      2764
Total number of primitive shell pairs       ...     11163
Primitive shell pairs kept                  ...      6993
          la=0 lb=0:   1255 shell pairs
          la=1 lb=0:    831 shell pairs
          la=1 lb=1:    136 shell pairs
          la=2 lb=0:    378 shell pairs
          la=2 lb=1:    128 shell pairs
          la=2 lb=2:     36 shell pairs

Calculating one electron integrals          ... done (  0.1 sec)
Calculating RI/J V-Matrix + Cholesky decomp.... done (  0.3 sec)
Calculating Nuclear repulsion               ... done (  0.0 sec) ENN=    347.254155419356 Eh

SHARK setup successfully completed in   2.6 seconds

Maximum memory used throughout the entire GTOINT-calculation: 11.4 MB


           ************************************************************
           *        Program running with 4 parallel MPI-processes     *
           *              working on a common directory               *
           ************************************************************
-------------------------------------------------------------------------------
                                 ORCA SCF
-------------------------------------------------------------------------------

------------
SCF SETTINGS
------------
Hamiltonian:
 Density Functional     Method          .... DFT(GTOs)
 Exchange Functional    Exchange        .... PBE
   PBE kappa parameter   XKappa         ....  1.024500
   PBE mue parameter    XMuePBE         ....  0.123457
 Correlation Functional Correlation     .... PBE
   PBE beta parameter  CBetaPBE         ....  0.030000
 LDA part of GGA corr.  LDAOpt          .... PW91-LDA
 Gradients option       PostSCFGGA      .... off
 Hybrid DFT is turned on
   Fraction HF Exchange ScalHFX         ....  0.420000
   Scaling of DF-GGA-X  ScalDFX         ....  0.580000
   Scaling of DF-GGA-C  ScalDFC         ....  1.000000
   Scaling of DF-LDA-C  ScalLDAC        ....  1.000000
   Perturbative correction              ....  0.000000
   Density functional embedding theory  .... OFF
 RI-approximation to the Coulomb term is turned on
   Number of AuxJ basis functions       .... 513
   RIJ-ON(X) (HFX calculated with O(N)) .... on
   Number of AuxJ basis functions       .... 513
   RIJ-COSX (HFX calculated with COS-X)).... on


General Settings:
 Integral files         IntName         .... pbeh-3c
 Hartree-Fock type      HFTyp           .... RHF
 Total Charge           Charge          ....    0
 Multiplicity           Mult            ....    1
 Number of Electrons    NEL             ....   60
 Basis Dimension        Dim             ....  142
 Nuclear Repulsion      ENuc            ....    347.2541554194 Eh

Convergence Acceleration:
 DIIS                   CNVDIIS         .... on
   Start iteration      DIISMaxIt       ....    12
   Startup error        DIISStart       ....  0.200000
   # of expansion vecs  DIISMaxEq       ....     5
   Bias factor          DIISBfac        ....   1.050
   Max. coefficient     DIISMaxC        ....  10.000
 Trust-Rad. Augm. Hess. CNVTRAH         .... auto
   Auto Start mean grad. ratio tolernc. ....  1.125000
   Auto Start start iteration           ....    20
   Auto Start num. interpolation iter.  ....    10
   Max. Number of Micro iterations      ....    16
   Max. Number of Macro iterations      .... Maxiter - #DIIS iter
   Number of Davidson start vectors     ....     2
   Converg. threshold I  (grad. norm)   ....   1.000e-05
   Converg. threshold II (energy diff.) ....   1.000e-08
   Grad. Scal. Fac. for Micro threshold ....   0.100
   Minimum threshold for Micro iter.    ....   0.010
   NR start threshold (gradient norm)   ....   0.001
   Initial trust radius                 ....   0.400
   Minimum AH scaling param. (alpha)    ....   1.000
   Maximum AH scaling param. (alpha)    .... 1000.000
   Orbital update algorithm             .... Taylor
   White noise on init. David. guess    .... on
   Maximum white noise                  ....   0.010
   Quad. conv. algorithm                .... NR
   COSX micro iterations for RIJONX calc.... off
 SOSCF                  CNVSOSCF        .... on
   Start iteration      SOSCFMaxIt      ....   150
   Startup grad/error   SOSCFStart      ....  0.003300
 Level Shifting         CNVShift        .... on
   Level shift para.    LevelShift      ....    0.2500
   Turn off err/grad.   ShiftErr        ....    0.0010
 Zerner damping         CNVZerner       .... off
 Static damping         CNVDamp         .... on
   Fraction old density DampFac         ....    0.7000
   Max. Damping (<1)    DampMax         ....    0.9800
   Min. Damping (>=0)   DampMin         ....    0.0000
   Turn off err/grad.   DampErr         ....    0.1000
 Fernandez-Rico         CNVRico         .... off

SCF Procedure:
 Maximum # iterations   MaxIter         ....   125
 SCF integral mode      SCFMode         .... Direct
   Integral package                     .... SHARK and LIBINT hybrid scheme
 Reset frequency        DirectResetFreq ....    20
 Integral Threshold     Thresh          ....  2.500e-11 Eh
 Primitive CutOff       TCut            ....  2.500e-12 Eh

Convergence Tolerance:
 Convergence Check Mode ConvCheckMode   .... Total+1el-Energy
 Convergence forced     ConvForced      .... 0
 Energy Change          TolE            ....  1.000e-08 Eh
 1-El. energy change                    ....  1.000e-05 Eh
 Orbital Gradient       TolG            ....  1.000e-05
 Orbital Rotation angle TolX            ....  1.000e-05
 DIIS Error             TolErr          ....  5.000e-07


Diagonalization of the overlap matrix:
Smallest eigenvalue                        ... 4.832e-04
Time for diagonalization                   ...    0.038 sec
Threshold for overlap eigenvalues          ... 1.000e-08
Number of eigenvalues below threshold      ... 0
Time for construction of square roots      ...    0.326 sec
Total time needed                          ...    0.644 sec

--------------------------------
INITIAL GUESS: MINIMAL BASIS EHT
--------------------------------
The minimal basis has 51 functions
EHT matrix was diagonalized
Basis set overlap was calculated now projecting the orbitals
Using GuessMode=FMatrix for the initial guess
C*T matrix was formed
Effective Fockian was calculated
Effective Fockian was diagonalized
Initial density was built
                      ------------------
                      INITIAL GUESS DONE
                      ------------------
-------------------
DFT GRID GENERATION
-------------------

General Integration Accuracy     IntAcc      ... 4.959
Radial Grid Type                 RadialGrid  ... OptM3 with GC (2021)
Angular Grid (max. ang.)         AngularGrid ... 6 (Lebedev-590)
Angular grid pruning method      GridPruning ... 4 (adaptive)
Weight generation scheme         WeightScheme... Becke
Basis function cutoff            BFCut       ... 1.0000e-11
Integration weight cutoff        WCut        ... 1.0000e-14
Angular grids for H and He will be reduced by one unit
Partially contracted basis set               ... off
Rotationally invariant grid construction     ... off

Total number of grid points                  ...   209796
Total number of batches                      ...     3287
Average number of points per batch           ...       63
Average number of grid points per atom       ...    11042
Time for grid setup =    4.500 sec

--------------------
COSX GRID GENERATION
--------------------

GRIDX 1
-------
General Integration Accuracy     IntAcc      ... 4.020
Radial Grid Type                 RadialGrid  ... OptM3 with GC (2021)
Angular Grid (max. ang.)         AngularGrid ... 2 (Lebedev-110)
Angular grid pruning method      GridPruning ... 4 (adaptive)
Weight generation scheme         WeightScheme... Becke
Basis function cutoff            BFCut       ... 1.0000e-11
Integration weight cutoff        WCut        ... 1.0000e-14
Angular grids for H and He will be reduced by one unit
Partially contracted basis set               ... on
Rotationally invariant grid construction     ... off

Total number of grid points                  ...    22638
Total number of batches                      ...      365
Average number of points per batch           ...       62
Average number of grid points per atom       ...     1191
UseSFitting                                  ... on

GRIDX 2
-------
General Integration Accuracy     IntAcc      ... 4.338
Radial Grid Type                 RadialGrid  ... OptM3 with GC (2021)
Angular Grid (max. ang.)         AngularGrid ... 3 (Lebedev-194)
Angular grid pruning method      GridPruning ... 4 (adaptive)
Weight generation scheme         WeightScheme... Becke
Basis function cutoff            BFCut       ... 1.0000e-11
Integration weight cutoff        WCut        ... 1.0000e-14
Angular grids for H and He will be reduced by one unit
Partially contracted basis set               ... on
Rotationally invariant grid construction     ... off

Total number of grid points                  ...    49497
Total number of batches                      ...      780
Average number of points per batch           ...       63
Average number of grid points per atom       ...     2605
UseSFitting                                  ... on

GRIDX 3
-------
General Integration Accuracy     IntAcc      ... 4.871
Radial Grid Type                 RadialGrid  ... OptM3 with GC (2021)
Angular Grid (max. ang.)         AngularGrid ... 4 (Lebedev-302)
Angular grid pruning method      GridPruning ... 4 (adaptive)
Weight generation scheme         WeightScheme... Becke
Basis function cutoff            BFCut       ... 1.0000e-11
Integration weight cutoff        WCut        ... 1.0000e-14
Angular grids for H and He will be reduced by one unit
Partially contracted basis set               ... on
Rotationally invariant grid construction     ... off

Total number of grid points                  ...    96240
Total number of batches                      ...     1513
Average number of points per batch           ...       63
Average number of grid points per atom       ...     5065
UseSFitting                                  ... on

Time for X-Grid setup             =    5.217 sec

--------------
SCF ITERATIONS
--------------
ITER       Energy         Delta-E        Max-DP      RMS-DP      [F,P]     Damp
               ***  Starting incremental Fock matrix formation  ***
  0   -326.5764378370   0.000000000000 0.10475645  0.00347853  0.4089131 0.7000
  1   -326.8215068949  -0.245069057926 0.06484655  0.00249481  0.2887083 0.7000
  2   -326.9876813599  -0.166174464940 0.03494007  0.00178392  0.2027219 0.7000
                               ***Turning on DIIS***
  3   -327.1047383474  -0.117056987484 0.02219910  0.00129943  0.1423297 0.7000
  4   -327.1880083935  -0.083270046190 0.05818808  0.00339537  0.0999217 0.0000
  5   -327.3881101010  -0.200101707403 0.01186402  0.00029229  0.0083264 0.0000
  6   -327.3885086488  -0.000398547817 0.00431615  0.00010643  0.0048567 0.0000
                      *** Initiating the SOSCF procedure ***
                           *** Shutting down DIIS ***
                      *** Re-Reading the Fockian *** 
                      *** Removing any level shift *** 
ITER      Energy       Delta-E        Grad      Rot      Max-DP    RMS-DP
  7   -327.38859084  -0.0000821915  0.001233  0.001233  0.004120  0.000065
               *** Restarting incremental Fock matrix formation ***
  8   -327.38860124  -0.0000103992  0.000549  0.001303  0.002557  0.000043
  9   -327.38860415  -0.0000029068  0.000144  0.000540  0.001016  0.000017
 10   -327.38860434  -0.0000001928  0.000063  0.000077  0.000123  0.000003
 11   -327.38860440  -0.0000000650  0.000020  0.000058  0.000114  0.000002
 12   -327.38860441  -0.0000000030  0.000010  0.000016  0.000020  0.000001
 13   -327.38860441  -0.0000000018  0.000006  0.000011  0.000021  0.000000
                  ***Gradient check signals convergence***
              ***Rediagonalizing the Fockian in SOSCF/NRSCF***

               *****************************************************
               *                     SUCCESS                       *
               *           SCF CONVERGED AFTER  14 CYCLES          *
               *****************************************************

Old exchange energy                            =    -19.646638011 Eh
New exchange energy                            =    -19.646636545 Eh
Exchange energy change after final integration =      0.000001466 Eh
Total energy after final integration           =   -327.388602946 Eh
Final COS-X integration done in                =     4.875 sec

----------------
TOTAL SCF ENERGY
----------------

Total Energy       :         -327.38860295 Eh           -8908.69680 eV

Components:
Nuclear Repulsion  :          347.25415542 Eh            9449.26596 eV
Electronic Energy  :         -674.64275837 Eh          -18357.96276 eV
One Electron Energy:        -1128.96343209 Eh          -30720.65680 eV
Two Electron Energy:          454.32067373 Eh           12362.69404 eV
Max COSX asymmetry :            0.00000057 Eh               0.00002 eV

Virial components:
Potential Energy   :         -652.15330891 Eh          -17745.99372 eV
Kinetic Energy     :          324.76470597 Eh            8837.29693 eV
Virial Ratio       :            2.00807938


DFT components:
N(Alpha)           :       30.000011626707 electrons
N(Beta)            :       30.000011626707 electrons
N(Total)           :       60.000023253415 electrons
E(X)               :      -26.073191018872 Eh       
E(C)               :       -2.564932928051 Eh       
E(XC)              :      -28.638123946923 Eh       
DFET-embed. en.    :        0.000000000000 Eh       

---------------
SCF CONVERGENCE
---------------

  Last Energy change         ...   -2.5460e-09  Tolerance :   1.0000e-08
  Last MAX-Density change    ...    5.8981e-16  Tolerance :   1.0000e-07
  Last RMS-Density change    ...    2.8279e-17  Tolerance :   5.0000e-09
  Last Orbital Gradient      ...    1.0366e-06  Tolerance :   1.0000e-05
  Last Orbital Rotation      ...    2.7056e-06  Tolerance :   1.0000e-05

             **** THE GBW FILE WAS UPDATED (pbeh-3c.gbw) ****
             **** DENSITY pbeh-3c.scfp WAS UPDATED ****
             **** ENERGY FILE WAS UPDATED (pbeh-3c.en.tmp) ****
             **** THE GBW FILE WAS UPDATED (pbeh-3c.gbw) ****
             **** DENSITY pbeh-3c.scfp WAS UPDATED ****
----------------
ORBITAL ENERGIES
----------------

  NO   OCC          E(Eh)            E(eV) 
   0   2.0000     -14.588408      -396.9708 
   1   2.0000     -10.456509      -284.5361 
   2   2.0000     -10.456128      -284.5257 
   3   2.0000     -10.455913      -284.5199 
   4   2.0000     -10.455558      -284.5102 
   5   2.0000     -10.455350      -284.5046 
   6   2.0000     -10.454992      -284.4948 
   7   2.0000     -10.434597      -283.9398 
   8   2.0000      -0.961079       -26.1523 
   9   2.0000      -0.950223       -25.8569 
  10   2.0000      -0.843032       -22.9401 
  11   2.0000      -0.842924       -22.9371 
  12   2.0000      -0.722013       -19.6470 
  13   2.0000      -0.685993       -18.6668 
  14   2.0000      -0.685910       -18.6646 
  15   2.0000      -0.599044       -16.3008 
  16   2.0000      -0.532613       -14.4931 
  17   2.0000      -0.532145       -14.4804 
  18   2.0000      -0.515663       -14.0319 
  19   2.0000      -0.488844       -13.3021 
  20   2.0000      -0.488651       -13.2969 
  21   2.0000      -0.482073       -13.1179 
  22   2.0000      -0.440392       -11.9837 
  23   2.0000      -0.427234       -11.6256 
  24   2.0000      -0.405146       -11.0246 
  25   2.0000      -0.404998       -11.0205 
  26   2.0000      -0.402927       -10.9642 
  27   2.0000      -0.300964        -8.1897 
  28   2.0000      -0.300260        -8.1705 
  29   2.0000      -0.269957        -7.3459 
  30   0.0000       0.010913         0.2970 
  31   0.0000       0.011294         0.3073 
  32   0.0000       0.134128         3.6498 
  33   0.0000       0.151098         4.1116 
  34   0.0000       0.186417         5.0727 
  35   0.0000       0.192456         5.2370 
  36   0.0000       0.196231         5.3397 
  37   0.0000       0.210881         5.7384 
  38   0.0000       0.215255         5.8574 
  39   0.0000       0.220136         5.9902 
  40   0.0000       0.227681         6.1955 
  41   0.0000       0.239959         6.5296 
  42   0.0000       0.242314         6.5937 
  43   0.0000       0.252617         6.8741 
  44   0.0000       0.278163         7.5692 
  45   0.0000       0.321294         8.7429 
  46   0.0000       0.321646         8.7524 
  47   0.0000       0.323324         8.7981 
  48   0.0000       0.323984         8.8160 
  49   0.0000       0.443204        12.0602 
  50   0.0000       0.485619        13.2144 
  51   0.0000       0.536866        14.6089 
  52   0.0000       0.539099        14.6696 
  53   0.0000       0.559999        15.2383 
  54   0.0000       0.583115        15.8674 
  55   0.0000       0.583368        15.8742 
  56   0.0000       0.592313        16.1176 
  57   0.0000       0.607169        16.5219 
  58   0.0000       0.613781        16.7018 
  59   0.0000       0.614398        16.7186 
  60   0.0000       0.625988        17.0340 
  61   0.0000       0.649238        17.6667 
  62   0.0000       0.657443        17.8899 
  63   0.0000       0.669781        18.2257 
  64   0.0000       0.686115        18.6701 
  65   0.0000       0.727520        19.7968 
  66   0.0000       0.748302        20.3623 
  67   0.0000       0.773514        21.0484 
  68   0.0000       0.844379        22.9767 
  69   0.0000       0.869671        23.6650 
  70   0.0000       0.928189        25.2573 
  71   0.0000       0.937296        25.5051 
  72   0.0000       0.939372        25.5616 
  73   0.0000       0.960712        26.1423 
  74   0.0000       0.961901        26.1747 
  75   0.0000       0.963845        26.2276 
  76   0.0000       1.003922        27.3181 
  77   0.0000       1.026645        27.9364 
  78   0.0000       1.034632        28.1538 
  79   0.0000       1.040167        28.3044 
  80   0.0000       1.048658        28.5354 
  81   0.0000       1.053098        28.6563 
  82   0.0000       1.080118        29.3915 
  83   0.0000       1.083345        29.4793 
  84   0.0000       1.092562        29.7301 
  85   0.0000       1.111731        30.2517 
  86   0.0000       1.127668        30.6854 
  87   0.0000       1.135948        30.9107 
  88   0.0000       1.174973        31.9727 
  89   0.0000       1.285414        34.9779 
  90   0.0000       1.298374        35.3305 
  91   0.0000       1.299082        35.3498 
  92   0.0000       1.306004        35.5382 
  93   0.0000       1.471669        40.0462 
  94   0.0000       1.529877        41.6301 
  95   0.0000       1.530365        41.6434 
  96   0.0000       1.553638        42.2766 
  97   0.0000       1.560166        42.4543 
  98   0.0000       1.564539        42.5733 
  99   0.0000       1.575835        42.8806 
 100   0.0000       1.593744        43.3680 
 101   0.0000       1.666464        45.3468 
 102   0.0000       1.809606        49.2419 
 103   0.0000       1.810029        49.2534 
 104   0.0000       1.931956        52.5712 
 105   0.0000       1.991567        54.1933 
 106   0.0000       2.053794        55.8866 
 107   0.0000       2.053976        55.8915 
 108   0.0000       2.115533        57.5666 
 109   0.0000       2.124425        57.8086 
 110   0.0000       2.128645        57.9234 
 111   0.0000       2.151117        58.5349 
 112   0.0000       2.188832        59.5611 
 113   0.0000       2.194105        59.7046 
 114   0.0000       2.198598        59.8269 
 115   0.0000       2.205349        60.0106 
 116   0.0000       2.253513        61.3212 
 117   0.0000       2.365804        64.3768 
 118   0.0000       2.366770        64.4031 
 119   0.0000       2.369724        64.4835 
 120   0.0000       2.421310        65.8872 
 121   0.0000       2.467677        67.1489 
 122   0.0000       2.572589        70.0037 
 123   0.0000       2.575515        70.0833 
 124   0.0000       2.579635        70.1954 
 125   0.0000       2.722475        74.0823 
 126   0.0000       2.735370        74.4332 
 127   0.0000       2.737208        74.4832 
 128   0.0000       2.741964        74.6126 
 129   0.0000       2.782915        75.7270 
 130   0.0000       2.783088        75.7317 
 131   0.0000       2.832883        77.0867 
 132   0.0000       3.052150        83.0532 
 133   0.0000       3.443909        93.7135 
 134   0.0000      13.285145       361.5072 
 135   0.0000      13.628828       370.8593 
 136   0.0000      13.643799       371.2666 
 137   0.0000      13.752589       374.2270 
 138   0.0000      14.097947       383.6246 
 139   0.0000      14.100173       383.6852 
 140   0.0000      14.536118       395.5479 
 141   0.0000      19.173164       521.7283 

                    ********************************
                    * MULLIKEN POPULATION ANALYSIS *
                    ********************************

-----------------------
MULLIKEN ATOMIC CHARGES
-----------------------
   0 C :   -0.229702
   1 H :    0.224911
   2 C :   -0.228555
   3 H :    0.227068
   4 C :   -0.224557
   5 H :    0.227648
   6 C :   -0.224865
   7 H :    0.225873
   8 C :   -0.220794
   9 H :    0.225151
  10 C :   -0.226103
  11 H :    0.224091
  12 N :   -0.745932
  13 H :    0.344345
  14 H :    0.305446
  15 C :   -0.496775
  16 H :    0.209091
  17 H :    0.174891
  18 H :    0.208767
Sum of atomic charges:    0.0000000

--------------------------------
MULLIKEN REDUCED ORBITAL CHARGES
--------------------------------
  0 C s       :     3.248353  s :     3.248353
      pz      :     0.993536  p :     2.941712
      px      :     0.943428
      py      :     1.004748
      dz2     :     0.003863  d :     0.039636
      dxz     :     0.005485
      dyz     :     0.003769
      dx2y2   :     0.011754
      dxy     :     0.014766
  1 H s       :     0.775089  s :     0.775089
  2 C s       :     3.249314  s :     3.249314
      pz      :     0.991949  p :     2.939607
      px      :     1.049413
      py      :     0.898244
      dz2     :     0.003813  d :     0.039634
      dxz     :     0.002482
      dyz     :     0.006825
      dx2y2   :     0.015394
      dxy     :     0.011121
  3 H s       :     0.772932  s :     0.772932
  4 C s       :     3.249426  s :     3.249426
      pz      :     0.985909  p :     2.935495
      px      :     0.929082
      py      :     1.020504
      dz2     :     0.003932  d :     0.039635
      dxz     :     0.005876
      dyz     :     0.003300
      dx2y2   :     0.012612
      dxy     :     0.013916
  5 H s       :     0.772352  s :     0.772352
  6 C s       :     3.247527  s :     3.247527
      pz      :     0.988869  p :     2.937717
      px      :     0.945009
      py      :     1.003839
      dz2     :     0.003868  d :     0.039622
      dxz     :     0.005451
      dyz     :     0.003783
      dx2y2   :     0.011769
      dxy     :     0.014752
  7 H s       :     0.774127  s :     0.774127
  8 C s       :     3.246283  s :     3.246283
      pz      :     0.987985  p :     2.934880
      px      :     1.047437
      py      :     0.899458
      dz2     :     0.003807  d :     0.039631
      dxz     :     0.002505
      dyz     :     0.006814
      dx2y2   :     0.015384
      dxy     :     0.011120
  9 H s       :     0.774849  s :     0.774849
 10 C s       :     3.247582  s :     3.247582
      pz      :     0.991086  p :     2.938909
      px      :     0.929094
      py      :     1.018729
      dz2     :     0.003915  d :     0.039612
      dxz     :     0.005884
      dyz     :     0.003289
      dx2y2   :     0.012636
      dxy     :     0.013887
 11 H s       :     0.775909  s :     0.775909
 12 N s       :     3.628500  s :     3.628500
      pz      :     1.314155  p :     4.080565
      px      :     1.361986
      py      :     1.404425
      dz2     :     0.014720  d :     0.036867
      dxz     :     0.002590
      dyz     :     0.002648
      dx2y2   :     0.014191
      dxy     :     0.002718
 13 H s       :     0.655655  s :     0.655655
 14 H s       :     0.694554  s :     0.694554
 15 C s       :     3.333168  s :     3.333168
      pz      :     1.125488  p :     3.111162
      px      :     0.878973
      py      :     1.106701
      dz2     :     0.013184  d :     0.052445
      dxz     :     0.008340
      dyz     :     0.004112
      dx2y2   :     0.014202
      dxy     :     0.012608
 16 H s       :     0.790909  s :     0.790909
 17 H s       :     0.825109  s :     0.825109
 18 H s       :     0.791233  s :     0.791233


                     *******************************
                     * LOEWDIN POPULATION ANALYSIS *
                     *******************************

----------------------
LOEWDIN ATOMIC CHARGES
----------------------
   0 C :   -0.140718
   1 H :    0.137749
   2 C :   -0.138838
   3 H :    0.139164
   4 C :   -0.135688
   5 H :    0.139704
   6 C :   -0.136931
   7 H :    0.138366
   8 C :   -0.136010
   9 H :    0.137837
  10 C :   -0.139082
  11 H :    0.137383
  12 N :   -0.486989
  13 H :    0.227149
  14 H :    0.214699
  15 C :   -0.277550
  16 H :    0.114847
  17 H :    0.088204
  18 H :    0.116704

-------------------------------
LOEWDIN REDUCED ORBITAL CHARGES
-------------------------------
  0 C s       :     2.895123  s :     2.895123
      pz      :     0.985449  p :     3.156083
      px      :     1.086253
      py      :     1.084380
      dz2     :     0.006356  d :     0.089512
      dxz     :     0.011021
      dyz     :     0.006890
      dx2y2   :     0.030042
      dxy     :     0.035203
  1 H s       :     0.862251  s :     0.862251
  2 C s       :     2.895207  s :     2.895207
      pz      :     0.983256  p :     3.154163
      px      :     1.081393
      py      :     1.089514
      dz2     :     0.006264  d :     0.089468
      dxz     :     0.003682
      dyz     :     0.014245
      dx2y2   :     0.036319
      dxy     :     0.028958
  3 H s       :     0.860836  s :     0.860836
  4 C s       :     2.895242  s :     2.895242
      pz      :     0.979796  p :     3.150994
      px      :     1.086981
      py      :     1.084217
      dz2     :     0.006458  d :     0.089452
      dxz     :     0.011992
      dyz     :     0.005788
      dx2y2   :     0.031498
      dxy     :     0.033717
  5 H s       :     0.860296  s :     0.860296
  6 C s       :     2.894945  s :     2.894945
      pz      :     0.981677  p :     3.152559
      px      :     1.086980
      py      :     1.083901
      dz2     :     0.006351  d :     0.089427
      dxz     :     0.010913
      dyz     :     0.006881
      dx2y2   :     0.030033
      dxy     :     0.035249
  7 H s       :     0.861634  s :     0.861634
  8 C s       :     2.894801  s :     2.894801
      pz      :     0.980965  p :     3.151712
      px      :     1.080587
      py      :     1.090160
      dz2     :     0.006254  d :     0.089498
      dxz     :     0.003732
      dyz     :     0.014205
      dx2y2   :     0.036349
      dxy     :     0.028958
  9 H s       :     0.862163  s :     0.862163
 10 C s       :     2.894911  s :     2.894911
      pz      :     0.984381  p :     3.154688
      px      :     1.087393
      py      :     1.082913
      dz2     :     0.006434  d :     0.089483
      dxz     :     0.012043
      dyz     :     0.005769
      dx2y2   :     0.031531
      dxy     :     0.033705
 11 H s       :     0.862617  s :     0.862617
 12 N s       :     3.253593  s :     3.253593
      pz      :     1.319182  p :     4.168427
      px      :     1.431736
      py      :     1.417508
      dz2     :     0.023270  d :     0.064970
      dxz     :     0.006744
      dyz     :     0.004765
      dx2y2   :     0.023480
      dxy     :     0.006712
 13 H s       :     0.772851  s :     0.772851
 14 H s       :     0.785301  s :     0.785301
 15 C s       :     2.946980  s :     2.946980
      pz      :     1.130206  p :     3.230644
      px      :     0.981129
      py      :     1.119309
      dz2     :     0.023711  d :     0.099926
      dxz     :     0.016407
      dyz     :     0.006705
      dx2y2   :     0.028327
      dxy     :     0.024775
 16 H s       :     0.885153  s :     0.885153
 17 H s       :     0.911796  s :     0.911796
 18 H s       :     0.883296  s :     0.883296


                      *****************************
                      * MAYER POPULATION ANALYSIS *
                      *****************************

  NA   - Mulliken gross atomic population
  ZA   - Total nuclear charge
  QA   - Mulliken gross atomic charge
  VA   - Mayer's total valence
  BVA  - Mayer's bonded valence
  FA   - Mayer's free valence

  ATOM       NA         ZA         QA         VA         BVA        FA
  0 C      6.2297     6.0000    -0.2297     3.8162     3.8162     0.0000
  1 H      0.7751     1.0000     0.2249     0.9107     0.9107     0.0000
  2 C      6.2286     6.0000    -0.2286     3.8166     3.8166     0.0000
  3 H      0.7729     1.0000     0.2271     0.9103     0.9103     0.0000
  4 C      6.2246     6.0000    -0.2246     3.8179     3.8179     0.0000
  5 H      0.7724     1.0000     0.2276     0.9101     0.9101     0.0000
  6 C      6.2249     6.0000    -0.2249     3.8181     3.8181     0.0000
  7 H      0.7741     1.0000     0.2259     0.9102     0.9102     0.0000
  8 C      6.2208     6.0000    -0.2208     3.8184     3.8184     0.0000
  9 H      0.7748     1.0000     0.2252     0.9103     0.9103     0.0000
 10 C      6.2261     6.0000    -0.2261     3.8169     3.8169     0.0000
 11 H      0.7759     1.0000     0.2241     0.9108     0.9108     0.0000
 12 N      7.7459     7.0000    -0.7459     2.7625     2.7625    -0.0000
 13 H      0.6557     1.0000     0.3443     0.8394     0.8394     0.0000
 14 H      0.6946     1.0000     0.3054     0.8668     0.8668    -0.0000
 15 C      6.4968     6.0000    -0.4968     3.8050     3.8050    -0.0000
 16 H      0.7909     1.0000     0.2091     0.9112     0.9112     0.0000
 17 H      0.8251     1.0000     0.1749     0.9113     0.9113     0.0000
 18 H      0.7912     1.0000     0.2088     0.9140     0.9140    -0.0000

  Mayer bond orders larger than 0.100000
B(  0-C ,  1-H ) :   0.9190 B(  0-C ,  2-C ) :   1.4240 B(  0-C , 10-C ) :   1.4224 
B(  2-C ,  3-H ) :   0.9185 B(  2-C ,  4-C ) :   1.4227 B(  4-C ,  5-H ) :   0.9182 
B(  4-C ,  6-C ) :   1.4252 B(  6-C ,  7-H ) :   0.9183 B(  6-C ,  8-C ) :   1.4227 
B(  8-C ,  9-H ) :   0.9182 B(  8-C , 10-C ) :   1.4257 B( 10-C , 11-H ) :   0.9191 
B( 12-N , 13-H ) :   0.8428 B( 12-N , 14-H ) :   0.8720 B( 12-N , 15-C ) :   1.0435 
B( 15-C , 16-H ) :   0.9273 B( 15-C , 17-H ) :   0.9168 B( 15-C , 18-H ) :   0.9282 


-------
TIMINGS
-------

Total SCF time: 0 days 0 hours 1 min 41 sec 

Total time                  ....     101.813 sec
Sum of individual times     ....      93.977 sec  ( 92.3%)

Fock matrix formation       ....      78.296 sec  ( 76.9%)
  Split-RI-J                ....       8.412 sec  ( 10.7% of F)
  Chain of spheres X        ....      33.855 sec  ( 43.2% of F)
  XC integration            ....      20.368 sec  ( 26.0% of F)
    Basis function eval.    ....       4.189 sec  ( 20.6% of XC)
    Density eval.           ....       2.567 sec  ( 12.6% of XC)
    XC-Functional eval.     ....       1.785 sec  (  8.8% of XC)
    XC-Potential eval.      ....       1.375 sec  (  6.8% of XC)
Diagonalization             ....       1.903 sec  (  1.9%)
Density matrix formation    ....       0.027 sec  (  0.0%)
Population analysis         ....       0.907 sec  (  0.9%)
Initial guess               ....       0.106 sec  (  0.1%)
Orbital Transformation      ....       0.000 sec  (  0.0%)
Orbital Orthonormalization  ....       0.000 sec  (  0.0%)
DIIS solution               ....       2.220 sec  (  2.2%)
SOSCF solution              ....       0.800 sec  (  0.8%)
Grid generation             ....       9.718 sec  (  9.5%)

Maximum memory used throughout the entire SCF-calculation: 56.9 MB


-------------------------------------------------------------------------------
                          DFT DISPERSION CORRECTION                            
                                                                               
                              DFTD3 V3.1  Rev 1                                
                          USING Becke-Johnson damping                          
-------------------------------------------------------------------------------
The PBEh-3c composite method is recognized
Using three-body term ABC
Active option DFTDOPT                   ...         4   

molecular C6(AA) [au] = 3328.861142 


            DFT-D V3
 parameters
 s6 scaling factor         :     1.0000 
 a1 scaling factor         :     0.4860 
 s8 scaling factor         :     0.0000 
 a2 scaling factor         :     4.5000 
 Damping factor alpha9(ATM):    16.0000 
 ad hoc parameters k1-k3   :    16.0000     1.3333    -4.0000 

 Edisp/kcal,au: -6.216297826993  -0.009906300097 
 E6   /kcal   :  -6.280662341 
 E8   /kcal   :  -0.000000000 
 E6(ABC)      :   0.064364514 
 % E8         :   0.000000000 
 % E6(ABC)    :  -1.035415538 

-------------------------   ----------------
Dispersion correction           -0.009906300
-------------------------   ----------------

------------------   -----------------
gCP correction             0.024729393
------------------   -----------------

-------------------------   --------------------
FINAL SINGLE POINT ENERGY      -327.373779853118
-------------------------   --------------------


                            ***************************************
                            *     ORCA property calculations      *
                            ***************************************

                                    ---------------------
                                    Active property flags
                                    ---------------------
   (+) Dipole Moment


------------------------------------------------------------------------------
                       ORCA ELECTRIC PROPERTIES CALCULATION
------------------------------------------------------------------------------

Dipole Moment Calculation                       ... on
Quadrupole Moment Calculation                   ... off
Polarizability Calculation                      ... off
GBWName                                         ... pbeh-3c.gbw
Electron density                                ... pbeh-3c.scfp
The origin for moment calculation is the CENTER OF MASS  = ( 0.201117,  0.030606 -0.551119)

-------------
DIPOLE MOMENT
-------------
                                X             Y             Z
Electronic contribution:      1.68574       0.71175      -6.50130
Nuclear contribution   :     -1.99320      -0.32463       6.10130
                        -----------------------------------------
Total Dipole Moment    :     -0.30746       0.38711      -0.40000
                        -----------------------------------------
Magnitude (a.u.)       :      0.63591
Magnitude (Debye)      :      1.61637



--------------------
Rotational spectrum 
--------------------
 
Rotational constants in cm-1:     0.088631     0.043302     0.042308 
Rotational constants in MHz :  2657.086917  1298.156691  1268.359800 

 Dipole components along the rotational axes: 
x,y,z [a.u.] :    -0.378336    -0.312661     0.404341 
x,y,z [Debye]:    -0.961655    -0.794722     1.027754 

 

Timings for individual modules:

Sum of individual times         ...      106.375 sec (=   1.773 min)
GTO integral calculation        ...        3.079 sec (=   0.051 min)   2.9 %
SCF iterations                  ...      103.295 sec (=   1.722 min)  97.1 %
                             ****ORCA TERMINATED NORMALLY****
TOTAL RUN TIME: 0 days 0 hours 1 minutes 51 seconds 48 msec
