
                                 *****************
                                 * O   R   C   A *
                                 *****************

                                            #,                                       
                                            ###                                      
                                            ####                                     
                                            #####                                    
                                            ######                                   
                                           ########,                                 
                                     ,,################,,,,,                         
                               ,,#################################,,                 
                          ,,##########################################,,             
                       ,#########################################, ''#####,          
                    ,#############################################,,   '####,        
                  ,##################################################,,,,####,       
                ,###########''''           ''''###############################       
              ,#####''   ,,,,##########,,,,          '''####'''          '####       
            ,##' ,,,,###########################,,,                        '##       
           ' ,,###''''                  '''############,,,                           
         ,,##''                                '''############,,,,        ,,,,,,###''
      ,#''                                            '''#######################'''  
     '                                                          ''''####''''         
             ,#######,   #######,   ,#######,      ##                                
            ,#'     '#,  ##    ##  ,#'     '#,    #''#        ######   ,####,        
            ##       ##  ##   ,#'  ##            #'  '#       #        #'  '#        
            ##       ##  #######   ##           ,######,      #####,   #    #        
            '#,     ,#'  ##    ##  '#,     ,#' ,#      #,         ##   #,  ,#        
             '#######'   ##     ##  '#######'  #'      '#     #####' # '####'        



                  #######################################################
                  #                        -***-                        #
                  #          Department of theory and spectroscopy      #
                  #    Directorship and core code : Frank Neese         #
                  #        Max Planck Institute fuer Kohlenforschung    #
                  #                Kaiser Wilhelm Platz 1               #
                  #                 D-45470 Muelheim/Ruhr               #
                  #                      Germany                        #
                  #                                                     #
                  #                  All rights reserved                #
                  #                        -***-                        #
                  #######################################################


                         Program Version 5.0.3 -  RELEASE  -


 With contributions from (in alphabetic order):
   Daniel Aravena         : Magnetic Suceptibility
   Michael Atanasov       : Ab Initio Ligand Field Theory (pilot matlab implementation)
   Alexander A. Auer      : GIAO ZORA, VPT2 properties, NMR spectrum
   Ute Becker             : Parallelization
   Giovanni Bistoni       : ED, misc. LED, open-shell LED, HFLD
   Martin Brehm           : Molecular dynamics
   Dmytro Bykov           : SCF Hessian
   Vijay G. Chilkuri      : MRCI spin determinant printing, contributions to CSF-ICE
   Dipayan Datta          : RHF DLPNO-CCSD density
   Achintya Kumar Dutta   : EOM-CC, STEOM-CC
   Dmitry Ganyushin       : Spin-Orbit,Spin-Spin,Magnetic field MRCI
   Miquel Garcia          : C-PCM and meta-GGA Hessian, CC/C-PCM, Gaussian charge scheme
   Yang Guo               : DLPNO-NEVPT2, F12-NEVPT2, CIM, IAO-localization
   Andreas Hansen         : Spin unrestricted coupled pair/coupled cluster methods
   Benjamin Helmich-Paris : MC-RPA, TRAH-SCF, COSX integrals
   Lee Huntington         : MR-EOM, pCC
   Robert Izsak           : Overlap fitted RIJCOSX, COSX-SCS-MP3, EOM
   Marcus Kettner         : VPT2
   Christian Kollmar      : KDIIS, OOCD, Brueckner-CCSD(T), CCSD density, CASPT2, CASPT2-K
   Simone Kossmann        : Meta GGA functionals, TD-DFT gradient, OOMP2, MP2 Hessian
   Martin Krupicka        : Initial AUTO-CI
   Lucas Lang             : DCDCAS
   Marvin Lechner         : AUTO-CI (C++ implementation), FIC-MRCC
   Dagmar Lenk            : GEPOL surface, SMD
   Dimitrios Liakos       : Extrapolation schemes; Compound Job, initial MDCI parallelization
   Dimitrios Manganas     : Further ROCIS development; embedding schemes
   Dimitrios Pantazis     : SARC Basis sets
   Anastasios Papadopoulos: AUTO-CI, single reference methods and gradients
   Taras Petrenko         : DFT Hessian,TD-DFT gradient, ASA, ECA, R-Raman, ABS, FL, XAS/XES, NRVS
   Peter Pinski           : DLPNO-MP2, DLPNO-MP2 Gradient
   Christoph Reimann      : Effective Core Potentials
   Marius Retegan         : Local ZFS, SOC
   Christoph Riplinger    : Optimizer, TS searches, QM/MM, DLPNO-CCSD(T), (RO)-DLPNO pert. Triples
   Tobias Risthaus        : Range-separated hybrids, TD-DFT gradient, RPA, STAB
   Michael Roemelt        : Original ROCIS implementation
   Masaaki Saitow         : Open-shell DLPNO-CCSD energy and density
   Barbara Sandhoefer     : DKH picture change effects
   Avijit Sen             : IP-ROCIS
   Kantharuban Sivalingam : CASSCF convergence, NEVPT2, FIC-MRCI
   Bernardo de Souza      : ESD, SOC TD-DFT
   Georgi Stoychev        : AutoAux, RI-MP2 NMR, DLPNO-MP2 response
   Willem Van den Heuvel  : Paramagnetic NMR
   Boris Wezisla          : Elementary symmetry handling
   Frank Wennmohs         : Technical directorship


 We gratefully acknowledge several colleagues who have allowed us to
 interface, adapt or use parts of their codes:
   Stefan Grimme, W. Hujo, H. Kruse, P. Pracht,  : VdW corrections, initial TS optimization,
                  C. Bannwarth, S. Ehlert          DFT functionals, gCP, sTDA/sTD-DF
   Ed Valeev, F. Pavosevic, A. Kumar             : LibInt (2-el integral package), F12 methods
   Garnet Chan, S. Sharma, J. Yang, R. Olivares  : DMRG
   Ulf Ekstrom                                   : XCFun DFT Library
   Mihaly Kallay                                 : mrcc  (arbitrary order and MRCC methods)
   Jiri Pittner, Ondrej Demel                    : Mk-CCSD
   Frank Weinhold                                : gennbo (NPA and NBO analysis)
   Christopher J. Cramer and Donald G. Truhlar   : smd solvation model
   Lars Goerigk                                  : TD-DFT with DH, B97 family of functionals
   V. Asgeirsson, H. Jonsson                     : NEB implementation
   FAccTs GmbH                                   : IRC, NEB, NEB-TS, DLPNO-Multilevel, CI-OPT
                                                   MM, QMMM, 2- and 3-layer-ONIOM, Crystal-QMMM,
                                                   LR-CPCM, SF, NACMEs, symmetry and pop. for TD-DFT,
                                                   nearIR, NL-DFT gradient (VV10), updates on ESD,
                                                   ML-optimized integration grids
   S Lehtola, MJT Oliveira, MAL Marques          : LibXC Library
   Liviu Ungur et al                             : ANISO software


 Your calculation uses the libint2 library for the computation of 2-el integrals
 For citations please refer to: http://libint.valeyev.net

 Your ORCA version has been built with support for libXC version: 5.1.0
 For citations please refer to: https://tddft.org/programs/libxc/

 This ORCA versions uses:
   CBLAS   interface :  Fast vector & matrix operations
   LAPACKE interface :  Fast linear algebra routines
   SCALAPACK package :  Parallel linear algebra routines
   Shared memory     :  Shared parallel matrices
   BLAS/LAPACK       :  OpenBLAS 0.3.15  USE64BITINT DYNAMIC_ARCH NO_AFFINITY Haswell SINGLE_THREADED
        Core in use  :  Haswell
   Copyright (c) 2011-2014, The OpenBLAS Project




***************************************
The coordinates will be read from file: 10.xyz
***************************************


Your calculation utilizes the geometrical counterpoise correction gCP
Please cite in your paper:
H.Kruse, S. Grimme J.Chem.Phys., 136, (2012), 154101 
   

Your calculation utilizes the atom-pairwise dispersion correction
with the Becke-Johnson damping scheme (D3BJ)
Cite in your paper:
S.Grimme, S.Ehrlich, L.Goerigk, J Comput Chem, (2011), 32, 1456–1465 
S.Grimme, J.Antony, S.Ehrlich and H.Krieg, J.Chem.Phys., 132, (2010), 154104 
   

Your calculation employs the composite approach PBEh-3c.
Please cite in your paper:
S. Grimme, J. G. Brandenburg, C. Bannwarth, A. Hansen J.Chem.Phys., 143, (2015), 054107 
   

================================================================================

----- Orbital basis set information -----
Your calculation utilizes the basis: def2-mSVP

----- AuxJ basis set information -----
Your calculation utilizes the auxiliary basis: def2/J
   F. Weigend, Phys. Chem. Chem. Phys. 8, 1057 (2006).

================================================================================
                                        WARNINGS
                       Please study these warnings very carefully!
================================================================================


INFO   : the flag for use of the SHARK integral package has been found!

================================================================================
                                       INPUT FILE
================================================================================
NAME = pbeh-3c.inp
|  1> ! PBEh-3c def2/J TightSCF DefGrid3
|  2> 
|  3> %maxcore 60000
|  4> 
|  5> %pal
|  6> nprocs 4
|  7> end
|  8> 
|  9> *xyzfile 0 1 10.xyz
| 10> 
| 11>                          ****END OF INPUT****
================================================================================

                       ****************************
                       * Single Point Calculation *
                       ****************************

---------------------------------
CARTESIAN COORDINATES (ANGSTROEM)
---------------------------------
  N      0.562126    2.481969   -0.711393
  C      1.379671    1.522918   -1.265931
  C      0.738136    0.302964   -1.259568
  C     -0.545778    0.525405   -0.658908
  C     -1.629947   -0.331139   -0.363669
  C     -2.751301    0.216014    0.242558
  C     -2.812584    1.595880    0.560102
  C     -1.761112    2.446947    0.279955
  C     -0.623865    1.898099   -0.329132
  H      0.804905    3.448528   -0.591942
  H      2.369603    1.777391   -1.608045
  H     -1.575433   -1.380187   -0.614835
  H     -3.713393    1.964208    1.030819
  H     -1.821999    3.498462    0.528934
  O     -3.874712   -0.488624    0.585471
  C     -3.863259   -1.873265    0.284554
  H     -3.057447   -2.387687    0.813407
  H     -3.758170   -2.045406   -0.789065
  H     -4.820121   -2.261160    0.620417
  C      1.320184   -1.017918   -1.647687
  C      1.984622   -1.721882   -0.448532
  N      3.135967   -0.997565    0.056357
  C      3.135184   -0.012388    1.014574
  C      1.962212    0.017519    1.971080
  H      2.067831   -0.889116   -2.434241
  H      0.543544   -1.671678   -2.053768
  H      2.308226   -2.722610   -0.742188
  H      1.262568   -1.838705    0.357432
  H      3.924486   -0.914692   -0.568688
  O      4.075101    0.764920    1.113220
  H      1.799885   -0.960238    2.424868
  H      1.046746    0.310251    1.457444
  H      2.188120    0.742785    2.746404

----------------------------
CARTESIAN COORDINATES (A.U.)
----------------------------
  NO LB      ZA    FRAG     MASS         X           Y           Z
   0 N     7.0000    0    14.007    1.062265    4.690241   -1.344339
   1 C     6.0000    0    12.011    2.607201    2.877898   -2.392264
   2 C     6.0000    0    12.011    1.394875    0.572519   -2.380239
   3 C     6.0000    0    12.011   -1.031370    0.992872   -1.245156
   4 C     6.0000    0    12.011   -3.080153   -0.625762   -0.687236
   5 C     6.0000    0    12.011   -5.199204    0.408207    0.458369
   6 C     6.0000    0    12.011   -5.315014    3.015776    1.058440
   7 C     6.0000    0    12.011   -3.328019    4.624059    0.529039
   8 C     6.0000    0    12.011   -1.178933    3.586887   -0.621970
   9 H     1.0000    0     1.008    1.521050    6.516773   -1.118609
  10 H     1.0000    0     1.008    4.477901    3.358782   -3.038765
  11 H     1.0000    0     1.008   -2.977136   -2.608175   -1.161871
  12 H     1.0000    0     1.008   -7.017297    3.711815    1.947965
  13 H     1.0000    0     1.008   -3.443078    6.611135    0.999541
  14 O     8.0000    0    15.999   -7.322144   -0.923366    1.106379
  15 C     6.0000    0    12.011   -7.300502   -3.539958    0.537728
  16 H     1.0000    0     1.008   -5.777738   -4.512074    1.537116
  17 H     1.0000    0     1.008   -7.101911   -3.865257   -1.491118
  18 H     1.0000    0     1.008   -9.108709   -4.272973    1.172419
  19 C     6.0000    0    12.011    2.494787   -1.923586   -3.113678
  20 C     6.0000    0    12.011    3.750392   -3.253885   -0.847603
  21 N     7.0000    0    14.007    5.926119   -1.885124    0.106500
  22 C     6.0000    0    12.011    5.924639   -0.023410    1.917268
  23 C     6.0000    0    12.011    3.708043    0.033106    3.724802
  24 H     1.0000    0     1.008    3.907634   -1.680186   -4.600049
  25 H     1.0000    0     1.008    1.027150   -3.159013   -3.881060
  26 H     1.0000    0     1.008    4.361915   -5.144987   -1.402533
  27 H     1.0000    0     1.008    2.385908   -3.474649    0.675448
  28 H     1.0000    0     1.008    7.416204   -1.728517   -1.074665
  29 O     8.0000    0    15.999    7.700825    1.445489    2.103680
  30 H     1.0000    0     1.008    3.401290   -1.814587    4.582337
  31 H     1.0000    0     1.008    1.978064    0.586289    2.754171
  32 H     1.0000    0     1.008    4.134948    1.403660    5.189952

--------------------------------
INTERNAL COORDINATES (ANGSTROEM)
--------------------------------
 N      0   0   0     0.000000000000     0.00000000     0.00000000
 C      1   0   0     1.376833631656     0.00000000     0.00000000
 C      2   1   0     1.378366845988   109.77224503     0.00000000
 C      3   2   1     1.434819618173   106.33179244   359.66798689
 C      4   3   2     1.412889201170   132.85379310   180.92242749
 C      5   4   3     1.387199784167   118.19595722   179.57727009
 C      6   5   4     1.417257853242   121.12410342   359.95758713
 C      7   6   5     1.381445789497   121.43066524   359.96038555
 C      1   2   3     1.376082100432   109.15311335     0.28508113
 H      1   2   3     1.003716336782   125.10546789   179.23715999
 H      2   1   3     1.077851378874   120.57971872   181.20429806
 H      5   4   3     1.080072975426   120.09922580   359.18902767
 H      7   6   5     1.081062404638   117.73026365   179.93120133
 H      8   7   6     1.082303822609   120.60211979   180.04416724
 O      6   5   4     1.369728303610   124.71462907   179.93529490
 C     15   6   5     1.417008331361   116.28857743   359.85200602
 H     16  15   6     1.092542157609   111.30050277    61.20160101
 H     16  15   6     1.092398267308   111.31338723   298.99379121
 H     16  15   6     1.085749407374   106.03864876   180.07757620
 C      3   2   1     1.494705706348   126.84868105   186.30152153
 C     20   3   2     1.541108532987   111.68555392    88.89185148
 N     21  20   3     1.450911519231   112.63487519   295.16674945
 C     22  21  20     1.374319452176   126.87217086    88.75070285
 C     23  22  21     1.513823319801   117.07438246    22.47064383
 H     20   3   2     1.092809698529   110.43529400   327.93266209
 H     20   3   2     1.093377156228   110.37914443   210.05731437
 H     21  20   3     1.091975148522   109.70255470   174.31045598
 H     21  20   3     1.088387456716   109.82838603    56.60674657
 H     22  21  20     1.009610007326   116.44272718   295.35343549
 O     23  22  21     1.223675763557   120.73892141   199.53799576
 H     24  23  22     1.090083556142   111.14278925    51.51486459
 H     24  23  22     1.089766845882   111.00259884   291.06038800
 H     24  23  22     1.085436481395   107.65367132   171.36394343

---------------------------
INTERNAL COORDINATES (A.U.)
---------------------------
 N      0   0   0     0.000000000000     0.00000000     0.00000000
 C      1   0   0     2.601838495803     0.00000000     0.00000000
 C      2   1   0     2.604735850994   109.77224503     0.00000000
 C      3   2   1     2.711416129924   106.33179244   359.66798689
 C      4   3   2     2.669973647787   132.85379310   180.92242749
 C      5   4   3     2.621427685110   118.19595722   179.57727009
 C      6   5   4     2.678229203776   121.12410342   359.95758713
 C      7   6   5     2.610554211008   121.43066524   359.96038555
 C      1   2   3     2.600418307608   109.15311335     0.28508113
 H      1   2   3     1.896748992661   125.10546789   179.23715999
 H      2   1   3     2.036843919141   120.57971872   181.20429806
 H      5   4   3     2.041042128205   120.09922580   359.18902767
 H      7   6   5     2.042911878444   117.73026365   179.93120133
 H      8   7   6     2.045257818428   120.60211979   180.04416724
 O      6   5   4     2.588411371703   124.71462907   179.93529490
 C     15   6   5     2.677757675757   116.28857743   359.85200602
 H     16  15   6     2.064605467644   111.30050277    61.20160101
 H     16  15   6     2.064333554383   111.31338723   298.99379121
 H     16  15   6     2.051769030005   106.03864876   180.07757620
 C      3   2   1     2.824584435807   126.84868105   186.30152153
 C     20   3   2     2.912273069995   111.68555392    88.89185148
 N     21  20   3     2.741825415897   112.63487519   295.16674945
 C     22  21  20     2.597087385133   126.87217086    88.75070285
 C     23  22  21     2.860711489567   117.07438246    22.47064383
 H     20   3   2     2.065111046713   110.43529400   327.93266209
 H     20   3   2     2.066183386356   110.37914443   210.05731437
 H     21  20   3     2.063533975755   109.70255470   174.31045598
 H     21  20   3     2.056754220789   109.82838603    56.60674657
 H     22  21  20     1.907886415913   116.44272718   295.35343549
 O     23  22  21     2.312412069839   120.73892141   199.53799576
 H     24  23  22     2.059959384199   111.14278925    51.51486459
 H     24  23  22     2.059360888543   111.00259884   291.06038800
 H     24  23  22     2.051177685603   107.65367132   171.36394343

---------------------
BASIS SET INFORMATION
---------------------
There are 4 groups of distinct atoms

 Group   1 Type N   : 8s4p1d contracted to 4s2p1d pattern {5111/31/1}
 Group   2 Type C   : 8s4p1d contracted to 4s2p1d pattern {5111/31/1}
 Group   3 Type H   : 4s contracted to 2s pattern {31}
 Group   4 Type O   : 8s4p1d contracted to 4s2p1d pattern {5111/31/1}

Atom   0N    basis set group =>   1
Atom   1C    basis set group =>   2
Atom   2C    basis set group =>   2
Atom   3C    basis set group =>   2
Atom   4C    basis set group =>   2
Atom   5C    basis set group =>   2
Atom   6C    basis set group =>   2
Atom   7C    basis set group =>   2
Atom   8C    basis set group =>   2
Atom   9H    basis set group =>   3
Atom  10H    basis set group =>   3
Atom  11H    basis set group =>   3
Atom  12H    basis set group =>   3
Atom  13H    basis set group =>   3
Atom  14O    basis set group =>   4
Atom  15C    basis set group =>   2
Atom  16H    basis set group =>   3
Atom  17H    basis set group =>   3
Atom  18H    basis set group =>   3
Atom  19C    basis set group =>   2
Atom  20C    basis set group =>   2
Atom  21N    basis set group =>   1
Atom  22C    basis set group =>   2
Atom  23C    basis set group =>   2
Atom  24H    basis set group =>   3
Atom  25H    basis set group =>   3
Atom  26H    basis set group =>   3
Atom  27H    basis set group =>   3
Atom  28H    basis set group =>   3
Atom  29O    basis set group =>   4
Atom  30H    basis set group =>   3
Atom  31H    basis set group =>   3
Atom  32H    basis set group =>   3
---------------------------------
AUXILIARY/J BASIS SET INFORMATION
---------------------------------
There are 4 groups of distinct atoms

 Group   1 Type N   : 12s5p4d2f1g contracted to 6s4p3d1f1g pattern {711111/2111/211/2/1}
 Group   2 Type C   : 12s5p4d2f1g contracted to 6s4p3d1f1g pattern {711111/2111/211/2/1}
 Group   3 Type H   : 5s2p1d contracted to 3s1p1d pattern {311/2/1}
 Group   4 Type O   : 12s5p4d2f1g contracted to 6s4p3d1f1g pattern {711111/2111/211/2/1}

Atom   0N    basis set group =>   1
Atom   1C    basis set group =>   2
Atom   2C    basis set group =>   2
Atom   3C    basis set group =>   2
Atom   4C    basis set group =>   2
Atom   5C    basis set group =>   2
Atom   6C    basis set group =>   2
Atom   7C    basis set group =>   2
Atom   8C    basis set group =>   2
Atom   9H    basis set group =>   3
Atom  10H    basis set group =>   3
Atom  11H    basis set group =>   3
Atom  12H    basis set group =>   3
Atom  13H    basis set group =>   3
Atom  14O    basis set group =>   4
Atom  15C    basis set group =>   2
Atom  16H    basis set group =>   3
Atom  17H    basis set group =>   3
Atom  18H    basis set group =>   3
Atom  19C    basis set group =>   2
Atom  20C    basis set group =>   2
Atom  21N    basis set group =>   1
Atom  22C    basis set group =>   2
Atom  23C    basis set group =>   2
Atom  24H    basis set group =>   3
Atom  25H    basis set group =>   3
Atom  26H    basis set group =>   3
Atom  27H    basis set group =>   3
Atom  28H    basis set group =>   3
Atom  29O    basis set group =>   4
Atom  30H    basis set group =>   3
Atom  31H    basis set group =>   3
Atom  32H    basis set group =>   3


           ************************************************************
           *        Program running with 4 parallel MPI-processes     *
           *              working on a common directory               *
           ************************************************************
------------------------------------------------------------------------------
                           ORCA GTO INTEGRAL CALCULATION
                           -- RI-GTO INTEGRALS CHOSEN --
------------------------------------------------------------------------------
------------------------------------------------------------------------------
                   ___                                                        
                  /   \      - P O W E R E D   B Y -                         
                 /     \                                                     
                 |  |  |   _    _      __       _____    __    __             
                 |  |  |  | |  | |    /  \     |  _  \  |  |  /  |          
                  \  \/   | |  | |   /    \    | | | |  |  | /  /          
                 / \  \   | |__| |  /  /\  \   | |_| |  |  |/  /          
                |  |  |   |  __  | /  /__\  \  |    /   |      \           
                |  |  |   | |  | | |   __   |  |    \   |  |\   \          
                \     /   | |  | | |  |  |  |  | |\  \  |  | \   \       
                 \___/    |_|  |_| |__|  |__|  |_| \__\ |__|  \__/        
                                                                              
                      - O R C A' S   B I G   F R I E N D -                    
                                      &                                       
                       - I N T E G R A L  F E E D E R -                       
                                                                              
 v1 FN, 2020, v2 2021                                                         
------------------------------------------------------------------------------


Reading SHARK input file pbeh-3c.SHARKINP.tmp ... ok
----------------------
SHARK INTEGRAL PACKAGE
----------------------

Number of atoms                             ...     33
Number of basis functions                   ...    287
Number of shells                            ...    151
Maximum angular momentum                    ...      2
Integral batch strategy                     ... SHARK/LIBINT Hybrid
RI-J (if used) integral strategy            ... SPLIT-RIJ (Revised 2003 algorithm where possible)
Printlevel                                  ...      1
Contraction scheme used                     ... SEGMENTED contraction
Coulomb Range Separation                    ... NOT USED
Exchange Range Separation                   ... NOT USED
Finite Nucleus Model                        ... NOT USED
Auxiliary Coulomb fitting basis             ... AVAILABLE
   # of basis functions in Aux-J            ...   1009
   # of shells in Aux-J                     ...    335
   Maximum angular momentum in Aux-J        ...      4
Auxiliary J/K fitting basis                 ... NOT available
Auxiliary Correlation fitting basis         ... NOT available
Auxiliary 'external' fitting basis          ... NOT available
Integral threshold                          ...     2.500000e-11
Primitive cut-off                           ...     2.500000e-12
Primitive pair pre-selection threshold      ...     2.500000e-12

Calculating pre-screening integrals         ... done (  0.1 sec) Dimension = 151
Organizing shell pair data                  ... done (  0.8 sec)
Shell pair information
Total number of shell pairs                 ...     11476
Shell pairs after pre-screening             ...      8713
Total number of primitive shell pairs       ...     41024
Primitive shell pairs kept                  ...     20122
          la=0 lb=0:   3491 shell pairs
          la=1 lb=0:   2886 shell pairs
          la=1 lb=1:    554 shell pairs
          la=2 lb=0:   1165 shell pairs
          la=2 lb=1:    503 shell pairs
          la=2 lb=2:    114 shell pairs

Calculating one electron integrals          ... done (  0.0 sec)
Calculating RI/J V-Matrix + Cholesky decomp.... done (  0.8 sec)
Calculating Nuclear repulsion               ... done (  0.0 sec) ENN=   1210.147061519802 Eh

SHARK setup successfully completed in   3.3 seconds

Maximum memory used throughout the entire GTOINT-calculation: 18.5 MB


           ************************************************************
           *        Program running with 4 parallel MPI-processes     *
           *              working on a common directory               *
           ************************************************************
-------------------------------------------------------------------------------
                                 ORCA SCF
-------------------------------------------------------------------------------

------------
SCF SETTINGS
------------
Hamiltonian:
 Density Functional     Method          .... DFT(GTOs)
 Exchange Functional    Exchange        .... PBE
   PBE kappa parameter   XKappa         ....  1.024500
   PBE mue parameter    XMuePBE         ....  0.123457
 Correlation Functional Correlation     .... PBE
   PBE beta parameter  CBetaPBE         ....  0.030000
 LDA part of GGA corr.  LDAOpt          .... PW91-LDA
 Gradients option       PostSCFGGA      .... off
 Hybrid DFT is turned on
   Fraction HF Exchange ScalHFX         ....  0.420000
   Scaling of DF-GGA-X  ScalDFX         ....  0.580000
   Scaling of DF-GGA-C  ScalDFC         ....  1.000000
   Scaling of DF-LDA-C  ScalLDAC        ....  1.000000
   Perturbative correction              ....  0.000000
   Density functional embedding theory  .... OFF
 RI-approximation to the Coulomb term is turned on
   Number of AuxJ basis functions       .... 1009
   RIJ-ON(X) (HFX calculated with O(N)) .... on
   Number of AuxJ basis functions       .... 1009
   RIJ-COSX (HFX calculated with COS-X)).... on


General Settings:
 Integral files         IntName         .... pbeh-3c
 Hartree-Fock type      HFTyp           .... RHF
 Total Charge           Charge          ....    0
 Multiplicity           Mult            ....    1
 Number of Electrons    NEL             ....  124
 Basis Dimension        Dim             ....  287
 Nuclear Repulsion      ENuc            ....   1210.1470615198 Eh

Convergence Acceleration:
 DIIS                   CNVDIIS         .... on
   Start iteration      DIISMaxIt       ....    12
   Startup error        DIISStart       ....  0.200000
   # of expansion vecs  DIISMaxEq       ....     5
   Bias factor          DIISBfac        ....   1.050
   Max. coefficient     DIISMaxC        ....  10.000
 Trust-Rad. Augm. Hess. CNVTRAH         .... auto
   Auto Start mean grad. ratio tolernc. ....  1.125000
   Auto Start start iteration           ....    20
   Auto Start num. interpolation iter.  ....    10
   Max. Number of Micro iterations      ....    16
   Max. Number of Macro iterations      .... Maxiter - #DIIS iter
   Number of Davidson start vectors     ....     2
   Converg. threshold I  (grad. norm)   ....   1.000e-05
   Converg. threshold II (energy diff.) ....   1.000e-08
   Grad. Scal. Fac. for Micro threshold ....   0.100
   Minimum threshold for Micro iter.    ....   0.010
   NR start threshold (gradient norm)   ....   0.001
   Initial trust radius                 ....   0.400
   Minimum AH scaling param. (alpha)    ....   1.000
   Maximum AH scaling param. (alpha)    .... 1000.000
   Orbital update algorithm             .... Taylor
   White noise on init. David. guess    .... on
   Maximum white noise                  ....   0.010
   Quad. conv. algorithm                .... NR
   COSX micro iterations for RIJONX calc.... off
 SOSCF                  CNVSOSCF        .... on
   Start iteration      SOSCFMaxIt      ....   150
   Startup grad/error   SOSCFStart      ....  0.003300
 Level Shifting         CNVShift        .... on
   Level shift para.    LevelShift      ....    0.2500
   Turn off err/grad.   ShiftErr        ....    0.0010
 Zerner damping         CNVZerner       .... off
 Static damping         CNVDamp         .... on
   Fraction old density DampFac         ....    0.7000
   Max. Damping (<1)    DampMax         ....    0.9800
   Min. Damping (>=0)   DampMin         ....    0.0000
   Turn off err/grad.   DampErr         ....    0.1000
 Fernandez-Rico         CNVRico         .... off

SCF Procedure:
 Maximum # iterations   MaxIter         ....   125
 SCF integral mode      SCFMode         .... Direct
   Integral package                     .... SHARK and LIBINT hybrid scheme
 Reset frequency        DirectResetFreq ....    20
 Integral Threshold     Thresh          ....  2.500e-11 Eh
 Primitive CutOff       TCut            ....  2.500e-12 Eh

Convergence Tolerance:
 Convergence Check Mode ConvCheckMode   .... Total+1el-Energy
 Convergence forced     ConvForced      .... 0
 Energy Change          TolE            ....  1.000e-08 Eh
 1-El. energy change                    ....  1.000e-05 Eh
 Orbital Gradient       TolG            ....  1.000e-05
 Orbital Rotation angle TolX            ....  1.000e-05
 DIIS Error             TolErr          ....  5.000e-07


Diagonalization of the overlap matrix:
Smallest eigenvalue                        ... 4.242e-04
Time for diagonalization                   ...    0.040 sec
Threshold for overlap eigenvalues          ... 1.000e-08
Number of eigenvalues below threshold      ... 0
Time for construction of square roots      ...    0.404 sec
Total time needed                          ...    0.568 sec

--------------------------------
INITIAL GUESS: MINIMAL BASIS EHT
--------------------------------
The minimal basis has 101 functions
EHT matrix was diagonalized
Basis set overlap was calculated now projecting the orbitals
Using GuessMode=FMatrix for the initial guess
C*T matrix was formed
Effective Fockian was calculated
Effective Fockian was diagonalized
Initial density was built
                      ------------------
                      INITIAL GUESS DONE
                      ------------------
-------------------
DFT GRID GENERATION
-------------------

General Integration Accuracy     IntAcc      ... 4.959
Radial Grid Type                 RadialGrid  ... OptM3 with GC (2021)
Angular Grid (max. ang.)         AngularGrid ... 6 (Lebedev-590)
Angular grid pruning method      GridPruning ... 4 (adaptive)
Weight generation scheme         WeightScheme... Becke
Basis function cutoff            BFCut       ... 1.0000e-11
Integration weight cutoff        WCut        ... 1.0000e-14
Angular grids for H and He will be reduced by one unit
Partially contracted basis set               ... off
Rotationally invariant grid construction     ... off

Total number of grid points                  ...   377571
Total number of batches                      ...     5916
Average number of points per batch           ...       63
Average number of grid points per atom       ...    11442
Time for grid setup =    8.338 sec

--------------------
COSX GRID GENERATION
--------------------

GRIDX 1
-------
General Integration Accuracy     IntAcc      ... 4.020
Radial Grid Type                 RadialGrid  ... OptM3 with GC (2021)
Angular Grid (max. ang.)         AngularGrid ... 2 (Lebedev-110)
Angular grid pruning method      GridPruning ... 4 (adaptive)
Weight generation scheme         WeightScheme... Becke
Basis function cutoff            BFCut       ... 1.0000e-11
Integration weight cutoff        WCut        ... 1.0000e-14
Angular grids for H and He will be reduced by one unit
Partially contracted basis set               ... on
Rotationally invariant grid construction     ... off

Total number of grid points                  ...    41681
Total number of batches                      ...      666
Average number of points per batch           ...       62
Average number of grid points per atom       ...     1263
UseSFitting                                  ... on

GRIDX 2
-------
General Integration Accuracy     IntAcc      ... 4.338
Radial Grid Type                 RadialGrid  ... OptM3 with GC (2021)
Angular Grid (max. ang.)         AngularGrid ... 3 (Lebedev-194)
Angular grid pruning method      GridPruning ... 4 (adaptive)
Weight generation scheme         WeightScheme... Becke
Basis function cutoff            BFCut       ... 1.0000e-11
Integration weight cutoff        WCut        ... 1.0000e-14
Angular grids for H and He will be reduced by one unit
Partially contracted basis set               ... on
Rotationally invariant grid construction     ... off

Total number of grid points                  ...    91099
Total number of batches                      ...     1440
Average number of points per batch           ...       63
Average number of grid points per atom       ...     2761
UseSFitting                                  ... on

GRIDX 3
-------
General Integration Accuracy     IntAcc      ... 4.871
Radial Grid Type                 RadialGrid  ... OptM3 with GC (2021)
Angular Grid (max. ang.)         AngularGrid ... 4 (Lebedev-302)
Angular grid pruning method      GridPruning ... 4 (adaptive)
Weight generation scheme         WeightScheme... Becke
Basis function cutoff            BFCut       ... 1.0000e-11
Integration weight cutoff        WCut        ... 1.0000e-14
Angular grids for H and He will be reduced by one unit
Partially contracted basis set               ... on
Rotationally invariant grid construction     ... off

Total number of grid points                  ...   172187
Total number of batches                      ...     2710
Average number of points per batch           ...       63
Average number of grid points per atom       ...     5218
UseSFitting                                  ... on

Time for X-Grid setup             =   10.972 sec

--------------
SCF ITERATIONS
--------------
ITER       Energy         Delta-E        Max-DP      RMS-DP      [F,P]     Damp
               ***  Starting incremental Fock matrix formation  ***
  0   -761.2756491122   0.000000000000 0.20154796  0.00469290  0.5582689 0.7000
  1   -761.9854434636  -0.709794351478 0.12196524  0.00302304  0.2933203 0.7000
  2   -762.3889827964  -0.403539332782 0.08706743  0.00201363  0.2066239 0.7000
                               ***Turning on DIIS***
  3   -762.6738941883  -0.284911391838 0.06158483  0.00143144  0.1452264 0.7000
  4   -762.8782761372  -0.204381948947 0.04350008  0.00106743  0.1018780 0.7000
  5   -763.0229588850  -0.144682747813 0.10108042  0.00259764  0.0715291 0.0000
                      *** Initiating the SOSCF procedure ***
                           *** Shutting down DIIS ***
                      *** Re-Reading the Fockian *** 
                      *** Removing any level shift *** 
ITER      Energy       Delta-E        Grad      Rot      Max-DP    RMS-DP
  6   -763.36707134  -0.3441124519  0.001900  0.001900  0.003810  0.000108
               *** Restarting incremental Fock matrix formation ***
  7   -763.36725738  -0.0001860472  0.000636  0.002589  0.004497  0.000077
  8   -763.36728838  -0.0000309946  0.001138  0.002432  0.001696  0.000042
  9   -763.36730848  -0.0000200999  0.000323  0.000515  0.000523  0.000016
 10   -763.36731034  -0.0000018609  0.000121  0.000112  0.000321  0.000006
 11   -763.36731113  -0.0000007893  0.000052  0.000141  0.000123  0.000003
 12   -763.36731119  -0.0000000645  0.000011  0.000025  0.000034  0.000001
 13   -763.36731120  -0.0000000099  0.000006  0.000011  0.000018  0.000001
 14   -763.36731121  -0.0000000049  0.000003  0.000006  0.000006  0.000000
                  ***Gradient check signals convergence***
              ***Rediagonalizing the Fockian in SOSCF/NRSCF***

               *****************************************************
               *                     SUCCESS                       *
               *           SCF CONVERGED AFTER  15 CYCLES          *
               *****************************************************

Old exchange energy                            =    -43.179214530 Eh
New exchange energy                            =    -43.179215609 Eh
Exchange energy change after final integration =     -0.000001080 Eh
Total energy after final integration           =   -763.367312285 Eh
Final COS-X integration done in                =    29.499 sec

----------------
TOTAL SCF ENERGY
----------------

Total Energy       :         -763.36731229 Eh          -20772.28061 eV

Components:
Nuclear Repulsion  :         1210.14706152 Eh           32929.77566 eV
Electronic Energy  :        -1973.51437380 Eh          -53702.05627 eV
One Electron Energy:        -3440.73017791 Eh          -93627.02805 eV
Two Electron Energy:         1467.21580411 Eh           39924.97178 eV
Max COSX asymmetry :            0.00000306 Eh               0.00008 eV

Virial components:
Potential Energy   :        -1520.77751211 Eh          -41382.45995 eV
Kinetic Energy     :          757.41019983 Eh           20610.17934 eV
Virial Ratio       :            2.00786511


DFT components:
N(Alpha)           :       61.999987031681 electrons
N(Beta)            :       61.999987031681 electrons
N(Total)           :      123.999974063362 electrons
E(X)               :      -57.398349022476 Eh       
E(C)               :       -5.451264057176 Eh       
E(XC)              :      -62.849613079653 Eh       
DFET-embed. en.    :        0.000000000000 Eh       

---------------
SCF CONVERGENCE
---------------

  Last Energy change         ...    2.7245e-09  Tolerance :   1.0000e-08
  Last MAX-Density change    ...    2.2204e-15  Tolerance :   1.0000e-07
  Last RMS-Density change    ...    3.2844e-17  Tolerance :   5.0000e-09
  Last Orbital Gradient      ...    2.1618e-06  Tolerance :   1.0000e-05
  Last Orbital Rotation      ...    4.2335e-06  Tolerance :   1.0000e-05

             **** THE GBW FILE WAS UPDATED (pbeh-3c.gbw) ****
             **** DENSITY pbeh-3c.scfp WAS UPDATED ****
             **** ENERGY FILE WAS UPDATED (pbeh-3c.en.tmp) ****
             **** THE GBW FILE WAS UPDATED (pbeh-3c.gbw) ****
             **** DENSITY pbeh-3c.scfp WAS UPDATED ****
----------------
ORBITAL ENERGIES
----------------

  NO   OCC          E(Eh)            E(eV) 
   0   2.0000     -19.523179      -531.2527 
   1   2.0000     -19.443542      -529.0857 
   2   2.0000     -14.686754      -399.6469 
   3   2.0000     -14.649109      -398.6225 
   4   2.0000     -10.538209      -286.7592 
   5   2.0000     -10.504165      -285.8329 
   6   2.0000     -10.489715      -285.4397 
   7   2.0000     -10.482042      -285.2309 
   8   2.0000     -10.479866      -285.1717 
   9   2.0000     -10.478775      -285.1420 
  10   2.0000     -10.455219      -284.5010 
  11   2.0000     -10.451689      -284.4049 
  12   2.0000     -10.448859      -284.3279 
  13   2.0000     -10.445681      -284.2414 
  14   2.0000     -10.442962      -284.1675 
  15   2.0000     -10.442924      -284.1664 
  16   2.0000     -10.425787      -283.7001 
  17   2.0000      -1.171548       -31.8794 
  18   2.0000      -1.129093       -30.7242 
  19   2.0000      -1.089189       -29.6383 
  20   2.0000      -1.014553       -27.6074 
  21   2.0000      -0.940437       -25.5906 
  22   2.0000      -0.900214       -24.4961 
  23   2.0000      -0.844426       -22.9780 
  24   2.0000      -0.835755       -22.7421 
  25   2.0000      -0.816616       -22.2213 
  26   2.0000      -0.805120       -21.9084 
  27   2.0000      -0.779453       -21.2100 
  28   2.0000      -0.730664       -19.8824 
  29   2.0000      -0.693445       -18.8696 
  30   2.0000      -0.672147       -18.2901 
  31   2.0000      -0.641170       -17.4471 
  32   2.0000      -0.636610       -17.3230 
  33   2.0000      -0.613820       -16.7029 
  34   2.0000      -0.581729       -15.8296 
  35   2.0000      -0.560042       -15.2395 
  36   2.0000      -0.547394       -14.8954 
  37   2.0000      -0.538822       -14.6621 
  38   2.0000      -0.532491       -14.4898 
  39   2.0000      -0.528331       -14.3766 
  40   2.0000      -0.519915       -14.1476 
  41   2.0000      -0.509949       -13.8764 
  42   2.0000      -0.494992       -13.4694 
  43   2.0000      -0.480198       -13.0669 
  44   2.0000      -0.477184       -12.9848 
  45   2.0000      -0.466278       -12.6881 
  46   2.0000      -0.459119       -12.4933 
  47   2.0000      -0.453422       -12.3383 
  48   2.0000      -0.446616       -12.1530 
  49   2.0000      -0.442697       -12.0464 
  50   2.0000      -0.431018       -11.7286 
  51   2.0000      -0.418703       -11.3935 
  52   2.0000      -0.417741       -11.3673 
  53   2.0000      -0.406535       -11.0624 
  54   2.0000      -0.401493       -10.9252 
  55   2.0000      -0.380387       -10.3509 
  56   2.0000      -0.352963        -9.6046 
  57   2.0000      -0.325296        -8.8517 
  58   2.0000      -0.298562        -8.1243 
  59   2.0000      -0.289259        -7.8711 
  60   2.0000      -0.246437        -6.7059 
  61   2.0000      -0.241660        -6.5759 
  62   0.0000       0.003991         0.1086 
  63   0.0000       0.054987         1.4963 
  64   0.0000       0.071741         1.9522 
  65   0.0000       0.084586         2.3017 
  66   0.0000       0.125230         3.4077 
  67   0.0000       0.130338         3.5467 
  68   0.0000       0.146751         3.9933 
  69   0.0000       0.151608         4.1255 
  70   0.0000       0.157035         4.2731 
  71   0.0000       0.171248         4.6599 
  72   0.0000       0.176969         4.8156 
  73   0.0000       0.189330         5.1519 
  74   0.0000       0.196610         5.3500 
  75   0.0000       0.199705         5.4342 
  76   0.0000       0.203654         5.5417 
  77   0.0000       0.209624         5.7042 
  78   0.0000       0.211623         5.7586 
  79   0.0000       0.220884         6.0106 
  80   0.0000       0.224293         6.1033 
  81   0.0000       0.230553         6.2737 
  82   0.0000       0.236746         6.4422 
  83   0.0000       0.242324         6.5940 
  84   0.0000       0.250995         6.8299 
  85   0.0000       0.255445         6.9510 
  86   0.0000       0.264023         7.1844 
  87   0.0000       0.280042         7.6203 
  88   0.0000       0.287390         7.8203 
  89   0.0000       0.298779         8.1302 
  90   0.0000       0.318019         8.6537 
  91   0.0000       0.329125         8.9559 
  92   0.0000       0.340826         9.2744 
  93   0.0000       0.362965         9.8768 
  94   0.0000       0.363237         9.8842 
  95   0.0000       0.406410        11.0590 
  96   0.0000       0.419534        11.4161 
  97   0.0000       0.438801        11.9404 
  98   0.0000       0.470650        12.8070 
  99   0.0000       0.481832        13.1113 
 100   0.0000       0.493770        13.4362 
 101   0.0000       0.497188        13.5292 
 102   0.0000       0.508507        13.8372 
 103   0.0000       0.515108        14.0168 
 104   0.0000       0.528992        14.3946 
 105   0.0000       0.534981        14.5576 
 106   0.0000       0.542844        14.7715 
 107   0.0000       0.560625        15.2554 
 108   0.0000       0.571182        15.5426 
 109   0.0000       0.573827        15.6146 
 110   0.0000       0.580959        15.8087 
 111   0.0000       0.591920        16.1070 
 112   0.0000       0.599718        16.3191 
 113   0.0000       0.604493        16.4491 
 114   0.0000       0.615708        16.7543 
 115   0.0000       0.617612        16.8061 
 116   0.0000       0.625535        17.0217 
 117   0.0000       0.627424        17.0731 
 118   0.0000       0.640253        17.4222 
 119   0.0000       0.656029        17.8514 
 120   0.0000       0.659692        17.9511 
 121   0.0000       0.668501        18.1908 
 122   0.0000       0.695384        18.9224 
 123   0.0000       0.698095        18.9961 
 124   0.0000       0.714393        19.4396 
 125   0.0000       0.723501        19.6875 
 126   0.0000       0.740509        20.1503 
 127   0.0000       0.746149        20.3037 
 128   0.0000       0.750725        20.4283 
 129   0.0000       0.764076        20.7916 
 130   0.0000       0.780540        21.2396 
 131   0.0000       0.810119        22.0445 
 132   0.0000       0.820849        22.3364 
 133   0.0000       0.845693        23.0125 
 134   0.0000       0.849741        23.1226 
 135   0.0000       0.882806        24.0224 
 136   0.0000       0.888399        24.1746 
 137   0.0000       0.921685        25.0803 
 138   0.0000       0.948914        25.8213 
 139   0.0000       0.954999        25.9868 
 140   0.0000       0.966402        26.2971 
 141   0.0000       0.971106        26.4251 
 142   0.0000       0.984157        26.7803 
 143   0.0000       0.989827        26.9346 
 144   0.0000       0.992420        27.0051 
 145   0.0000       0.995583        27.0912 
 146   0.0000       1.002203        27.2713 
 147   0.0000       1.004649        27.3379 
 148   0.0000       1.013026        27.5658 
 149   0.0000       1.017249        27.6807 
 150   0.0000       1.021339        27.7920 
 151   0.0000       1.034629        28.1537 
 152   0.0000       1.037082        28.2204 
 153   0.0000       1.052639        28.6438 
 154   0.0000       1.065469        28.9929 
 155   0.0000       1.065840        29.0030 
 156   0.0000       1.088386        29.6165 
 157   0.0000       1.096876        29.8475 
 158   0.0000       1.103411        30.0253 
 159   0.0000       1.112215        30.2649 
 160   0.0000       1.135413        30.8962 
 161   0.0000       1.148875        31.2625 
 162   0.0000       1.152005        31.3477 
 163   0.0000       1.179061        32.0839 
 164   0.0000       1.197149        32.5761 
 165   0.0000       1.209093        32.9011 
 166   0.0000       1.226393        33.3719 
 167   0.0000       1.245404        33.8892 
 168   0.0000       1.257112        34.2078 
 169   0.0000       1.270434        34.5703 
 170   0.0000       1.288575        35.0639 
 171   0.0000       1.297717        35.3127 
 172   0.0000       1.303786        35.4778 
 173   0.0000       1.339094        36.4386 
 174   0.0000       1.377970        37.4965 
 175   0.0000       1.387807        37.7641 
 176   0.0000       1.401461        38.1357 
 177   0.0000       1.425340        38.7855 
 178   0.0000       1.436347        39.0850 
 179   0.0000       1.440095        39.1870 
 180   0.0000       1.445245        39.3271 
 181   0.0000       1.465044        39.8659 
 182   0.0000       1.470348        40.0102 
 183   0.0000       1.486409        40.4473 
 184   0.0000       1.511161        41.1208 
 185   0.0000       1.530487        41.6467 
 186   0.0000       1.538322        41.8599 
 187   0.0000       1.551681        42.2234 
 188   0.0000       1.556858        42.3643 
 189   0.0000       1.588942        43.2373 
 190   0.0000       1.592338        43.3297 
 191   0.0000       1.632945        44.4347 
 192   0.0000       1.651679        44.9445 
 193   0.0000       1.664023        45.2804 
 194   0.0000       1.729780        47.0697 
 195   0.0000       1.757865        47.8340 
 196   0.0000       1.802015        49.0353 
 197   0.0000       1.825853        49.6840 
 198   0.0000       1.838470        50.0273 
 199   0.0000       1.847450        50.2717 
 200   0.0000       1.872729        50.9595 
 201   0.0000       1.884586        51.2822 
 202   0.0000       1.893477        51.5241 
 203   0.0000       1.895734        51.5855 
 204   0.0000       1.924659        52.3726 
 205   0.0000       1.930297        52.5261 
 206   0.0000       1.943873        52.8955 
 207   0.0000       1.975870        53.7662 
 208   0.0000       1.990488        54.1639 
 209   0.0000       2.004325        54.5404 
 210   0.0000       2.022049        55.0227 
 211   0.0000       2.040909        55.5359 
 212   0.0000       2.048936        55.7544 
 213   0.0000       2.068806        56.2951 
 214   0.0000       2.085717        56.7552 
 215   0.0000       2.091309        56.9074 
 216   0.0000       2.097387        57.0728 
 217   0.0000       2.126359        57.8612 
 218   0.0000       2.136277        58.1311 
 219   0.0000       2.150217        58.5104 
 220   0.0000       2.159866        58.7729 
 221   0.0000       2.171691        59.0947 
 222   0.0000       2.174611        59.1742 
 223   0.0000       2.193557        59.6897 
 224   0.0000       2.209342        60.1193 
 225   0.0000       2.226812        60.5946 
 226   0.0000       2.260310        61.5061 
 227   0.0000       2.270886        61.7940 
 228   0.0000       2.275029        61.9067 
 229   0.0000       2.292862        62.3919 
 230   0.0000       2.304601        62.7114 
 231   0.0000       2.325846        63.2895 
 232   0.0000       2.330753        63.4230 
 233   0.0000       2.340616        63.6914 
 234   0.0000       2.377014        64.6818 
 235   0.0000       2.384994        64.8990 
 236   0.0000       2.393579        65.1326 
 237   0.0000       2.409503        65.5659 
 238   0.0000       2.441566        66.4384 
 239   0.0000       2.450171        66.6725 
 240   0.0000       2.467384        67.1409 
 241   0.0000       2.488197        67.7073 
 242   0.0000       2.528697        68.8093 
 243   0.0000       2.538440        69.0745 
 244   0.0000       2.560856        69.6844 
 245   0.0000       2.593928        70.5844 
 246   0.0000       2.609418        71.0059 
 247   0.0000       2.615740        71.1779 
 248   0.0000       2.654664        72.2371 
 249   0.0000       2.679875        72.9231 
 250   0.0000       2.691965        73.2521 
 251   0.0000       2.702458        73.5376 
 252   0.0000       2.721792        74.0637 
 253   0.0000       2.745642        74.7127 
 254   0.0000       2.748113        74.7800 
 255   0.0000       2.782811        75.7241 
 256   0.0000       2.786130        75.8144 
 257   0.0000       2.806421        76.3666 
 258   0.0000       2.843149        77.3660 
 259   0.0000       2.874439        78.2175 
 260   0.0000       2.976290        80.9890 
 261   0.0000       2.984125        81.2022 
 262   0.0000       2.994697        81.4898 
 263   0.0000       3.046438        82.8978 
 264   0.0000       3.068242        83.4911 
 265   0.0000       3.186171        86.7001 
 266   0.0000       3.200859        87.0998 
 267   0.0000       3.228231        87.8446 
 268   0.0000       3.351024        91.1860 
 269   0.0000       3.523051        95.8671 
 270   0.0000      13.287080       361.5598 
 271   0.0000      13.637716       371.1011 
 272   0.0000      13.680391       372.2624 
 273   0.0000      13.759840       374.4243 
 274   0.0000      13.775889       374.8610 
 275   0.0000      13.831286       376.3684 
 276   0.0000      13.883502       377.7893 
 277   0.0000      14.028181       381.7262 
 278   0.0000      14.084991       383.2721 
 279   0.0000      14.135977       384.6595 
 280   0.0000      14.235747       387.3744 
 281   0.0000      14.344961       390.3462 
 282   0.0000      14.543296       395.7432 
 283   0.0000      19.301891       525.2312 
 284   0.0000      19.430451       528.7295 
 285   0.0000      25.748336       700.6478 
 286   0.0000      25.783216       701.5970 

                    ********************************
                    * MULLIKEN POPULATION ANALYSIS *
                    ********************************

-----------------------
MULLIKEN ATOMIC CHARGES
-----------------------
   0 N :   -0.691447
   1 C :   -0.043105
   2 C :    0.000089
   3 C :    0.081948
   4 C :   -0.486762
   5 C :    0.392670
   6 C :   -0.317419
   7 C :   -0.255079
   8 C :    0.340587
   9 H :    0.362180
  10 H :    0.253286
  11 H :    0.217851
  12 H :    0.235923
  13 H :    0.216955
  14 O :   -0.465869
  15 C :   -0.404157
  16 H :    0.202175
  17 H :    0.205239
  18 H :    0.241881
  19 C :   -0.530731
  20 C :   -0.288661
  21 N :   -0.597706
  22 C :    0.494724
  23 C :   -0.782566
  24 H :    0.228866
  25 H :    0.225731
  26 H :    0.233053
  27 H :    0.239392
  28 H :    0.349409
  29 O :   -0.427121
  30 H :    0.230578
  31 H :    0.274820
  32 H :    0.263265
Sum of atomic charges:    0.0000000

--------------------------------
MULLIKEN REDUCED ORBITAL CHARGES
--------------------------------
  0 N s       :     3.600828  s :     3.600828
      pz      :     1.540760  p :     4.049003
      px      :     1.259426
      py      :     1.248817
      dz2     :     0.007319  d :     0.041615
      dxz     :     0.006951
      dyz     :     0.004296
      dx2y2   :     0.013016
      dxy     :     0.010032
  1 C s       :     3.159950  s :     3.159950
      pz      :     1.004483  p :     2.826439
      px      :     0.940469
      py      :     0.881488
      dz2     :     0.006074  d :     0.056716
      dxz     :     0.006611
      dyz     :     0.013213
      dx2y2   :     0.012532
      dxy     :     0.018285
  2 C s       :     3.194336  s :     3.194336
      pz      :     1.037847  p :     2.760223
      px      :     0.861081
      py      :     0.861295
      dz2     :     0.004869  d :     0.045353
      dxz     :     0.007138
      dyz     :     0.007877
      dx2y2   :     0.012742
      dxy     :     0.012726
  3 C s       :     3.205136  s :     3.205136
      pz      :     0.976779  p :     2.665845
      px      :     0.843771
      py      :     0.845294
      dz2     :     0.006229  d :     0.047071
      dxz     :     0.008327
      dyz     :     0.007250
      dx2y2   :     0.015160
      dxy     :     0.010106
  4 C s       :     3.324299  s :     3.324299
      pz      :     1.082292  p :     3.124536
      px      :     0.982431
      py      :     1.059812
      dz2     :     0.005423  d :     0.037927
      dxz     :     0.006739
      dyz     :     0.004285
      dx2y2   :     0.012382
      dxy     :     0.009099
  5 C s       :     3.052782  s :     3.052782
      pz      :     0.939463  p :     2.479314
      px      :     0.757925
      py      :     0.781926
      dz2     :     0.008903  d :     0.075234
      dxz     :     0.013108
      dyz     :     0.011129
      dx2y2   :     0.021216
      dxy     :     0.020879
  6 C s       :     3.268170  s :     3.268170
      pz      :     1.046300  p :     3.011703
      px      :     1.034515
      py      :     0.930889
      dz2     :     0.003355  d :     0.037546
      dxz     :     0.005976
      dyz     :     0.006892
      dx2y2   :     0.012119
      dxy     :     0.009203
  7 C s       :     3.257802  s :     3.257802
      pz      :     1.005813  p :     2.957020
      px      :     0.942498
      py      :     1.008710
      dz2     :     0.005488  d :     0.040257
      dxz     :     0.007491
      dyz     :     0.004637
      dx2y2   :     0.013550
      dxy     :     0.009091
  8 C s       :     3.078817  s :     3.078817
      pz      :     0.963505  p :     2.517388
      px      :     0.722392
      py      :     0.831491
      dz2     :     0.007239  d :     0.063208
      dxz     :     0.011672
      dyz     :     0.009828
      dx2y2   :     0.017867
      dxy     :     0.016602
  9 H s       :     0.637820  s :     0.637820
 10 H s       :     0.746714  s :     0.746714
 11 H s       :     0.782149  s :     0.782149
 12 H s       :     0.764077  s :     0.764077
 13 H s       :     0.783045  s :     0.783045
 14 O s       :     3.790970  s :     3.790970
      pz      :     1.780510  p :     4.641952
      px      :     1.560026
      py      :     1.301417
      dz2     :     0.004402  d :     0.032947
      dxz     :     0.005191
      dyz     :     0.005635
      dx2y2   :     0.010113
      dxy     :     0.007607
 15 C s       :     3.331642  s :     3.331642
      pz      :     1.107845  p :     3.010778
      px      :     1.174001
      py      :     0.728933
      dz2     :     0.014249  d :     0.061737
      dxz     :     0.005205
      dyz     :     0.013013
      dx2y2   :     0.015365
      dxy     :     0.013904
 16 H s       :     0.797825  s :     0.797825
 17 H s       :     0.794761  s :     0.794761
 18 H s       :     0.758119  s :     0.758119
 19 C s       :     3.386439  s :     3.386439
      pz      :     1.003084  p :     3.100606
      px      :     1.103460
      py      :     0.994062
      dz2     :     0.006117  d :     0.043686
      dxz     :     0.012056
      dyz     :     0.008844
      dx2y2   :     0.005686
      dxy     :     0.010984
 20 C s       :     3.292481  s :     3.292481
      pz      :     1.018029  p :     2.937663
      px      :     0.909795
      py      :     1.009838
      dz2     :     0.008778  d :     0.058517
      dxz     :     0.017944
      dyz     :     0.007362
      dx2y2   :     0.012318
      dxy     :     0.012116
 21 N s       :     3.539950  s :     3.539950
      pz      :     1.349432  p :     4.023338
      px      :     1.254179
      py      :     1.419726
      dz2     :     0.003692  d :     0.034418
      dxz     :     0.011520
      dyz     :     0.006229
      dx2y2   :     0.008477
      dxy     :     0.004500
 22 C s       :     2.981177  s :     2.981177
      pz      :     0.801403  p :     2.403305
      px      :     0.844887
      py      :     0.757014
      dz2     :     0.018003  d :     0.120794
      dxz     :     0.024578
      dyz     :     0.023658
      dx2y2   :     0.034680
      dxy     :     0.019875
 23 C s       :     3.421150  s :     3.421150
      pz      :     1.093950  p :     3.327662
      px      :     1.069112
      py      :     1.164601
      dz2     :     0.002645  d :     0.033754
      dxz     :     0.009891
      dyz     :     0.009197
      dx2y2   :     0.009165
      dxy     :     0.002855
 24 H s       :     0.771134  s :     0.771134
 25 H s       :     0.774269  s :     0.774269
 26 H s       :     0.766947  s :     0.766947
 27 H s       :     0.760608  s :     0.760608
 28 H s       :     0.650591  s :     0.650591
 29 O s       :     3.757136  s :     3.757136
      pz      :     1.681263  p :     4.640949
      px      :     1.472946
      py      :     1.486740
      dz2     :     0.003012  d :     0.029036
      dxz     :     0.005082
      dyz     :     0.003171
      dx2y2   :     0.009172
      dxy     :     0.008598
 30 H s       :     0.769422  s :     0.769422
 31 H s       :     0.725180  s :     0.725180
 32 H s       :     0.736735  s :     0.736735


                     *******************************
                     * LOEWDIN POPULATION ANALYSIS *
                     *******************************

----------------------
LOEWDIN ATOMIC CHARGES
----------------------
   0 N :   -0.150827
   1 C :   -0.073355
   2 C :   -0.118026
   3 C :   -0.057269
   4 C :   -0.200974
   5 C :    0.060224
   6 C :   -0.157237
   7 C :   -0.144482
   8 C :   -0.000852
   9 H :    0.264613
  10 H :    0.141892
  11 H :    0.138153
  12 H :    0.146880
  13 H :    0.138942
  14 O :   -0.190212
  15 C :   -0.179910
  16 H :    0.111692
  17 H :    0.113096
  18 H :    0.130643
  19 C :   -0.236311
  20 C :   -0.145497
  21 N :   -0.248221
  22 C :    0.108974
  23 C :   -0.399003
  24 H :    0.133022
  25 H :    0.134048
  26 H :    0.123388
  27 H :    0.133805
  28 H :    0.252528
  29 O :   -0.282092
  30 H :    0.140468
  31 H :    0.158843
  32 H :    0.153054

-------------------------------
LOEWDIN REDUCED ORBITAL CHARGES
-------------------------------
  0 N s       :     3.075241  s :     3.075241
      pz      :     1.506554  p :     3.980923
      px      :     1.261934
      py      :     1.212434
      dz2     :     0.013316  d :     0.094663
      dxz     :     0.015664
      dyz     :     0.009262
      dx2y2   :     0.029520
      dxy     :     0.026901
  1 C s       :     2.884895  s :     2.884895
      pz      :     1.023994  p :     3.065079
      px      :     1.038222
      py      :     1.002863
      dz2     :     0.011957  d :     0.123380
      dxz     :     0.011790
      dyz     :     0.029095
      dx2y2   :     0.028580
      dxy     :     0.041958
  2 C s       :     2.840943  s :     2.840943
      pz      :     1.067837  p :     3.168505
      px      :     1.047053
      py      :     1.053615
      dz2     :     0.009860  d :     0.108578
      dxz     :     0.015535
      dyz     :     0.016270
      dx2y2   :     0.033297
      dxy     :     0.033617
  3 C s       :     2.830134  s :     2.830134
      pz      :     1.019335  p :     3.112463
      px      :     1.045161
      py      :     1.047967
      dz2     :     0.012638  d :     0.114672
      dxz     :     0.018067
      dyz     :     0.016368
      dx2y2   :     0.040194
      dxy     :     0.027404
  4 C s       :     2.883369  s :     2.883369
      pz      :     1.086819  p :     3.232137
      px      :     1.067042
      py      :     1.078277
      dz2     :     0.009531  d :     0.085467
      dxz     :     0.015227
      dyz     :     0.008534
      dx2y2   :     0.028949
      dxy     :     0.023226
  5 C s       :     2.824328  s :     2.824328
      pz      :     0.982902  p :     2.940919
      px      :     0.943195
      py      :     1.014821
      dz2     :     0.018627  d :     0.174530
      dxz     :     0.029762
      dyz     :     0.023786
      dx2y2   :     0.052856
      dxy     :     0.049499
  6 C s       :     2.891518  s :     2.891518
      pz      :     1.043999  p :     3.180585
      px      :     1.076656
      py      :     1.059930
      dz2     :     0.006213  d :     0.085135
      dxz     :     0.010500
      dyz     :     0.014964
      dx2y2   :     0.029602
      dxy     :     0.023856
  7 C s       :     2.886239  s :     2.886239
      pz      :     1.024877  p :     3.167471
      px      :     1.064358
      py      :     1.078237
      dz2     :     0.010217  d :     0.090772
      dxz     :     0.016847
      dyz     :     0.008921
      dx2y2   :     0.030880
      dxy     :     0.023907
  8 C s       :     2.812317  s :     2.812317
      pz      :     1.028122  p :     3.040982
      px      :     0.979069
      py      :     1.033790
      dz2     :     0.014873  d :     0.147554
      dxz     :     0.025719
      dyz     :     0.021343
      dx2y2   :     0.045483
      dxy     :     0.040135
  9 H s       :     0.735387  s :     0.735387
 10 H s       :     0.858108  s :     0.858108
 11 H s       :     0.861847  s :     0.861847
 12 H s       :     0.853120  s :     0.853120
 13 H s       :     0.861058  s :     0.861058
 14 O s       :     3.430092  s :     3.430092
      pz      :     1.769908  p :     4.687521
      px      :     1.571997
      py      :     1.345616
      dz2     :     0.008374  d :     0.072598
      dxz     :     0.008629
      dyz     :     0.013138
      dx2y2   :     0.023000
      dxy     :     0.019457
 15 C s       :     2.952215  s :     2.952215
      pz      :     1.124383  p :     3.106072
      px      :     1.147766
      py      :     0.833924
      dz2     :     0.026622  d :     0.121623
      dxz     :     0.008060
      dyz     :     0.027205
      dx2y2   :     0.031591
      dxy     :     0.028146
 16 H s       :     0.888308  s :     0.888308
 17 H s       :     0.886904  s :     0.886904
 18 H s       :     0.869357  s :     0.869357
 19 C s       :     2.906727  s :     2.906727
      pz      :     1.076510  p :     3.239351
      px      :     1.093381
      py      :     1.069459
      dz2     :     0.012754  d :     0.090233
      dxz     :     0.023470
      dyz     :     0.019895
      dx2y2   :     0.011836
      dxy     :     0.022278
 20 C s       :     2.901142  s :     2.901142
      pz      :     1.077579  p :     3.123168
      px      :     0.996360
      py      :     1.049228
      dz2     :     0.018128  d :     0.121187
      dxz     :     0.037005
      dyz     :     0.015572
      dx2y2   :     0.024951
      dxy     :     0.025531
 21 N s       :     3.121481  s :     3.121481
      pz      :     1.346667  p :     4.046566
      px      :     1.259024
      py      :     1.440875
      dz2     :     0.009499  d :     0.080174
      dxz     :     0.024497
      dyz     :     0.015899
      dx2y2   :     0.018700
      dxy     :     0.011579
 22 C s       :     2.834725  s :     2.834725
      pz      :     0.903923  p :     2.784051
      px      :     0.986434
      py      :     0.893693
      dz2     :     0.038677  d :     0.272251
      dxz     :     0.054498
      dyz     :     0.056658
      dx2y2   :     0.077205
      dxy     :     0.045213
 23 C s       :     2.964001  s :     2.964001
      pz      :     1.118523  p :     3.372457
      px      :     1.112914
      py      :     1.141020
      dz2     :     0.005018  d :     0.062545
      dxz     :     0.019818
      dyz     :     0.015863
      dx2y2   :     0.016809
      dxy     :     0.005036
 24 H s       :     0.866978  s :     0.866978
 25 H s       :     0.865952  s :     0.865952
 26 H s       :     0.876612  s :     0.876612
 27 H s       :     0.866195  s :     0.866195
 28 H s       :     0.747472  s :     0.747472
 29 O s       :     3.523251  s :     3.523251
      pz      :     1.670848  p :     4.703902
      px      :     1.525885
      py      :     1.507169
      dz2     :     0.006939  d :     0.054938
      dxz     :     0.008581
      dyz     :     0.005791
      dx2y2   :     0.014138
      dxy     :     0.019489
 30 H s       :     0.859532  s :     0.859532
 31 H s       :     0.841157  s :     0.841157
 32 H s       :     0.846946  s :     0.846946


                      *****************************
                      * MAYER POPULATION ANALYSIS *
                      *****************************

  NA   - Mulliken gross atomic population
  ZA   - Total nuclear charge
  QA   - Mulliken gross atomic charge
  VA   - Mayer's total valence
  BVA  - Mayer's bonded valence
  FA   - Mayer's free valence

  ATOM       NA         ZA         QA         VA         BVA        FA
  0 N      7.6914     7.0000    -0.6914     3.1765     3.1765     0.0000
  1 C      6.0431     6.0000    -0.0431     3.6918     3.6918    -0.0000
  2 C      5.9999     6.0000     0.0001     3.7044     3.7044    -0.0000
  3 C      5.9181     6.0000     0.0819     3.7889     3.7889    -0.0000
  4 C      6.4868     6.0000    -0.4868     3.7223     3.7223    -0.0000
  5 C      5.6073     6.0000     0.3927     3.7547     3.7547     0.0000
  6 C      6.3174     6.0000    -0.3174     3.8429     3.8429     0.0000
  7 C      6.2551     6.0000    -0.2551     3.7808     3.7808     0.0000
  8 C      5.6594     6.0000     0.3406     3.5417     3.5417     0.0000
  9 H      0.6378     1.0000     0.3622     0.8492     0.8492     0.0000
 10 H      0.7467     1.0000     0.2533     0.9008     0.9008     0.0000
 11 H      0.7821     1.0000     0.2179     0.9235     0.9235    -0.0000
 12 H      0.7641     1.0000     0.2359     0.9115     0.9115     0.0000
 13 H      0.7830     1.0000     0.2170     0.9122     0.9122     0.0000
 14 O      8.4659     8.0000    -0.4659     2.1017     2.1017    -0.0000
 15 C      6.4042     6.0000    -0.4042     3.7088     3.7088     0.0000
 16 H      0.7978     1.0000     0.2022     0.9107     0.9107    -0.0000
 17 H      0.7948     1.0000     0.2052     0.9098     0.9098     0.0000
 18 H      0.7581     1.0000     0.2419     0.9080     0.9080     0.0000
 19 C      6.5307     6.0000    -0.5307     3.6902     3.6902    -0.0000
 20 C      6.2887     6.0000    -0.2887     3.7054     3.7054     0.0000
 21 N      7.5977     7.0000    -0.5977     2.9932     2.9932    -0.0000
 22 C      5.5053     6.0000     0.4947     4.0696     4.0696     0.0000
 23 C      6.7826     6.0000    -0.7826     3.6560     3.6560    -0.0000
 24 H      0.7711     1.0000     0.2289     0.9048     0.9048    -0.0000
 25 H      0.7743     1.0000     0.2257     0.9078     0.9078    -0.0000
 26 H      0.7669     1.0000     0.2331     0.9008     0.9008     0.0000
 27 H      0.7606     1.0000     0.2394     0.9024     0.9024    -0.0000
 28 H      0.6506     1.0000     0.3494     0.8558     0.8558     0.0000
 29 O      8.4271     8.0000    -0.4271     2.1815     2.1815     0.0000
 30 H      0.7694     1.0000     0.2306     0.9076     0.9076    -0.0000
 31 H      0.7252     1.0000     0.2748     0.8817     0.8817    -0.0000
 32 H      0.7367     1.0000     0.2633     0.9068     0.9068    -0.0000

  Mayer bond orders larger than 0.100000
B(  0-N ,  1-C ) :   1.1456 B(  0-N ,  8-C ) :   1.0092 B(  0-N ,  9-H ) :   0.8322 
B(  1-C ,  2-C ) :   1.5424 B(  1-C , 10-H ) :   0.9053 B(  2-C ,  3-C ) :   1.2598 
B(  2-C , 19-C ) :   0.9530 B(  3-C ,  4-C ) :   1.2520 B(  3-C ,  8-C ) :   1.2573 
B(  4-C ,  5-C ) :   1.4235 B(  4-C , 11-H ) :   0.9157 B(  5-C ,  6-C ) :   1.2983 
B(  5-C , 14-O ) :   1.0268 B(  6-C ,  7-C ) :   1.5289 B(  6-C , 12-H ) :   0.9081 
B(  7-C ,  8-C ) :   1.2746 B(  7-C , 13-H ) :   0.9194 B( 14-O , 15-C ) :   0.9572 
B( 15-C , 16-H ) :   0.9074 B( 15-C , 17-H ) :   0.9067 B( 15-C , 18-H ) :   0.9229 
B( 19-C , 20-C ) :   0.9465 B( 19-C , 24-H ) :   0.9265 B( 19-C , 25-H ) :   0.9144 
B( 20-C , 21-N ) :   0.9739 B( 20-C , 26-H ) :   0.9134 B( 20-C , 27-H ) :   0.9041 
B( 21-N , 22-C ) :   1.1344 B( 21-N , 28-H ) :   0.8266 B( 22-C , 23-C ) :   0.9329 
B( 22-C , 29-O ) :   2.0256 B( 23-C , 30-H ) :   0.9120 B( 23-C , 31-H ) :   0.8861 
B( 23-C , 32-H ) :   0.9190 

-------
TIMINGS
-------

Total SCF time: 0 days 0 hours 4 min 46 sec 

Total time                  ....     286.105 sec
Sum of individual times     ....     277.662 sec  ( 97.0%)

Fock matrix formation       ....     249.545 sec  ( 87.2%)
  Split-RI-J                ....      18.881 sec  (  7.6% of F)
  Chain of spheres X        ....     174.593 sec  ( 70.0% of F)
  XC integration            ....      39.958 sec  ( 16.0% of F)
    Basis function eval.    ....      12.365 sec  ( 30.9% of XC)
    Density eval.           ....       7.570 sec  ( 18.9% of XC)
    XC-Functional eval.     ....       3.133 sec  (  7.8% of XC)
    XC-Potential eval.      ....       4.107 sec  ( 10.3% of XC)
Diagonalization             ....       1.995 sec  (  0.7%)
Density matrix formation    ....       0.195 sec  (  0.1%)
Population analysis         ....       0.649 sec  (  0.2%)
Initial guess               ....       0.084 sec  (  0.0%)
Orbital Transformation      ....       0.000 sec  (  0.0%)
Orbital Orthonormalization  ....       0.000 sec  (  0.0%)
DIIS solution               ....       1.739 sec  (  0.6%)
SOSCF solution              ....       4.144 sec  (  1.4%)
Grid generation             ....      19.310 sec  (  6.7%)

Maximum memory used throughout the entire SCF-calculation: 100.1 MB


-------------------------------------------------------------------------------
                          DFT DISPERSION CORRECTION                            
                                                                               
                              DFTD3 V3.1  Rev 1                                
                          USING Becke-Johnson damping                          
-------------------------------------------------------------------------------
The PBEh-3c composite method is recognized
Using three-body term ABC
Active option DFTDOPT                   ...         4   

molecular C6(AA) [au] = 10857.425231 


            DFT-D V3
 parameters
 s6 scaling factor         :     1.0000 
 a1 scaling factor         :     0.4860 
 s8 scaling factor         :     0.0000 
 a2 scaling factor         :     4.5000 
 Damping factor alpha9(ATM):    16.0000 
 ad hoc parameters k1-k3   :    16.0000     1.3333    -4.0000 

 Edisp/kcal,au: -14.436035238903  -0.023005284057 
 E6   /kcal   : -14.613450053 
 E8   /kcal   :  -0.000000000 
 E6(ABC)      :   0.177414815 
 % E8         :   0.000000000 
 % E6(ABC)    :  -1.228971886 

-------------------------   ----------------
Dispersion correction           -0.023005284
-------------------------   ----------------

------------------   -----------------
gCP correction             0.062446392
------------------   -----------------

-------------------------   --------------------
FINAL SINGLE POINT ENERGY      -763.327871176884
-------------------------   --------------------


                            ***************************************
                            *     ORCA property calculations      *
                            ***************************************

                                    ---------------------
                                    Active property flags
                                    ---------------------
   (+) Dipole Moment


------------------------------------------------------------------------------
                       ORCA ELECTRIC PROPERTIES CALCULATION
------------------------------------------------------------------------------

Dipole Moment Calculation                       ... on
Quadrupole Moment Calculation                   ... off
Polarizability Calculation                      ... off
GBWName                                         ... pbeh-3c.gbw
Electron density                                ... pbeh-3c.scfp
The origin for moment calculation is the CENTER OF MASS  = ( 0.105102,  0.510167 -0.007169)

-------------
DIPOLE MOMENT
-------------
                                X             Y             Z
Electronic contribution:      0.62067       8.50805      -1.34487
Nuclear contribution   :     -1.21782      -9.05149       0.61990
                        -----------------------------------------
Total Dipole Moment    :     -0.59715      -0.54344      -0.72497
                        -----------------------------------------
Magnitude (a.u.)       :      1.08512
Magnitude (Debye)      :      2.75816



--------------------
Rotational spectrum 
--------------------
 
Rotational constants in cm-1:     0.026159     0.010071     0.008903 
Rotational constants in MHz :   784.216537   301.927904   266.899728 

 Dipole components along the rotational axes: 
x,y,z [a.u.] :     0.598105    -0.529539    -0.734406 
x,y,z [Debye]:     1.520262    -1.345981    -1.866712 

 

Timings for individual modules:

Sum of individual times         ...      290.779 sec (=   4.846 min)
GTO integral calculation        ...        3.936 sec (=   0.066 min)   1.4 %
SCF iterations                  ...      286.842 sec (=   4.781 min)  98.6 %
                             ****ORCA TERMINATED NORMALLY****
TOTAL RUN TIME: 0 days 0 hours 4 minutes 52 seconds 669 msec
