
                                 *****************
                                 * O   R   C   A *
                                 *****************

                                            #,                                       
                                            ###                                      
                                            ####                                     
                                            #####                                    
                                            ######                                   
                                           ########,                                 
                                     ,,################,,,,,                         
                               ,,#################################,,                 
                          ,,##########################################,,             
                       ,#########################################, ''#####,          
                    ,#############################################,,   '####,        
                  ,##################################################,,,,####,       
                ,###########''''           ''''###############################       
              ,#####''   ,,,,##########,,,,          '''####'''          '####       
            ,##' ,,,,###########################,,,                        '##       
           ' ,,###''''                  '''############,,,                           
         ,,##''                                '''############,,,,        ,,,,,,###''
      ,#''                                            '''#######################'''  
     '                                                          ''''####''''         
             ,#######,   #######,   ,#######,      ##                                
            ,#'     '#,  ##    ##  ,#'     '#,    #''#        ######   ,####,        
            ##       ##  ##   ,#'  ##            #'  '#       #        #'  '#        
            ##       ##  #######   ##           ,######,      #####,   #    #        
            '#,     ,#'  ##    ##  '#,     ,#' ,#      #,         ##   #,  ,#        
             '#######'   ##     ##  '#######'  #'      '#     #####' # '####'        



                  #######################################################
                  #                        -***-                        #
                  #          Department of theory and spectroscopy      #
                  #    Directorship and core code : Frank Neese         #
                  #        Max Planck Institute fuer Kohlenforschung    #
                  #                Kaiser Wilhelm Platz 1               #
                  #                 D-45470 Muelheim/Ruhr               #
                  #                      Germany                        #
                  #                                                     #
                  #                  All rights reserved                #
                  #                        -***-                        #
                  #######################################################


                         Program Version 5.0.3 -  RELEASE  -


 With contributions from (in alphabetic order):
   Daniel Aravena         : Magnetic Suceptibility
   Michael Atanasov       : Ab Initio Ligand Field Theory (pilot matlab implementation)
   Alexander A. Auer      : GIAO ZORA, VPT2 properties, NMR spectrum
   Ute Becker             : Parallelization
   Giovanni Bistoni       : ED, misc. LED, open-shell LED, HFLD
   Martin Brehm           : Molecular dynamics
   Dmytro Bykov           : SCF Hessian
   Vijay G. Chilkuri      : MRCI spin determinant printing, contributions to CSF-ICE
   Dipayan Datta          : RHF DLPNO-CCSD density
   Achintya Kumar Dutta   : EOM-CC, STEOM-CC
   Dmitry Ganyushin       : Spin-Orbit,Spin-Spin,Magnetic field MRCI
   Miquel Garcia          : C-PCM and meta-GGA Hessian, CC/C-PCM, Gaussian charge scheme
   Yang Guo               : DLPNO-NEVPT2, F12-NEVPT2, CIM, IAO-localization
   Andreas Hansen         : Spin unrestricted coupled pair/coupled cluster methods
   Benjamin Helmich-Paris : MC-RPA, TRAH-SCF, COSX integrals
   Lee Huntington         : MR-EOM, pCC
   Robert Izsak           : Overlap fitted RIJCOSX, COSX-SCS-MP3, EOM
   Marcus Kettner         : VPT2
   Christian Kollmar      : KDIIS, OOCD, Brueckner-CCSD(T), CCSD density, CASPT2, CASPT2-K
   Simone Kossmann        : Meta GGA functionals, TD-DFT gradient, OOMP2, MP2 Hessian
   Martin Krupicka        : Initial AUTO-CI
   Lucas Lang             : DCDCAS
   Marvin Lechner         : AUTO-CI (C++ implementation), FIC-MRCC
   Dagmar Lenk            : GEPOL surface, SMD
   Dimitrios Liakos       : Extrapolation schemes; Compound Job, initial MDCI parallelization
   Dimitrios Manganas     : Further ROCIS development; embedding schemes
   Dimitrios Pantazis     : SARC Basis sets
   Anastasios Papadopoulos: AUTO-CI, single reference methods and gradients
   Taras Petrenko         : DFT Hessian,TD-DFT gradient, ASA, ECA, R-Raman, ABS, FL, XAS/XES, NRVS
   Peter Pinski           : DLPNO-MP2, DLPNO-MP2 Gradient
   Christoph Reimann      : Effective Core Potentials
   Marius Retegan         : Local ZFS, SOC
   Christoph Riplinger    : Optimizer, TS searches, QM/MM, DLPNO-CCSD(T), (RO)-DLPNO pert. Triples
   Tobias Risthaus        : Range-separated hybrids, TD-DFT gradient, RPA, STAB
   Michael Roemelt        : Original ROCIS implementation
   Masaaki Saitow         : Open-shell DLPNO-CCSD energy and density
   Barbara Sandhoefer     : DKH picture change effects
   Avijit Sen             : IP-ROCIS
   Kantharuban Sivalingam : CASSCF convergence, NEVPT2, FIC-MRCI
   Bernardo de Souza      : ESD, SOC TD-DFT
   Georgi Stoychev        : AutoAux, RI-MP2 NMR, DLPNO-MP2 response
   Willem Van den Heuvel  : Paramagnetic NMR
   Boris Wezisla          : Elementary symmetry handling
   Frank Wennmohs         : Technical directorship


 We gratefully acknowledge several colleagues who have allowed us to
 interface, adapt or use parts of their codes:
   Stefan Grimme, W. Hujo, H. Kruse, P. Pracht,  : VdW corrections, initial TS optimization,
                  C. Bannwarth, S. Ehlert          DFT functionals, gCP, sTDA/sTD-DF
   Ed Valeev, F. Pavosevic, A. Kumar             : LibInt (2-el integral package), F12 methods
   Garnet Chan, S. Sharma, J. Yang, R. Olivares  : DMRG
   Ulf Ekstrom                                   : XCFun DFT Library
   Mihaly Kallay                                 : mrcc  (arbitrary order and MRCC methods)
   Jiri Pittner, Ondrej Demel                    : Mk-CCSD
   Frank Weinhold                                : gennbo (NPA and NBO analysis)
   Christopher J. Cramer and Donald G. Truhlar   : smd solvation model
   Lars Goerigk                                  : TD-DFT with DH, B97 family of functionals
   V. Asgeirsson, H. Jonsson                     : NEB implementation
   FAccTs GmbH                                   : IRC, NEB, NEB-TS, DLPNO-Multilevel, CI-OPT
                                                   MM, QMMM, 2- and 3-layer-ONIOM, Crystal-QMMM,
                                                   LR-CPCM, SF, NACMEs, symmetry and pop. for TD-DFT,
                                                   nearIR, NL-DFT gradient (VV10), updates on ESD,
                                                   ML-optimized integration grids
   S Lehtola, MJT Oliveira, MAL Marques          : LibXC Library
   Liviu Ungur et al                             : ANISO software


 Your calculation uses the libint2 library for the computation of 2-el integrals
 For citations please refer to: http://libint.valeyev.net

 Your ORCA version has been built with support for libXC version: 5.1.0
 For citations please refer to: https://tddft.org/programs/libxc/

 This ORCA versions uses:
   CBLAS   interface :  Fast vector & matrix operations
   LAPACKE interface :  Fast linear algebra routines
   SCALAPACK package :  Parallel linear algebra routines
   Shared memory     :  Shared parallel matrices
   BLAS/LAPACK       :  OpenBLAS 0.3.15  USE64BITINT DYNAMIC_ARCH NO_AFFINITY Haswell SINGLE_THREADED
        Core in use  :  Haswell
   Copyright (c) 2011-2014, The OpenBLAS Project




***************************************
The coordinates will be read from file: P17.xyz
***************************************


Your calculation utilizes the geometrical counterpoise correction gCP
Please cite in your paper:
H.Kruse, S. Grimme J.Chem.Phys., 136, (2012), 154101 
   

Your calculation utilizes the atom-pairwise dispersion correction
with the Becke-Johnson damping scheme (D3BJ)
Cite in your paper:
S.Grimme, S.Ehrlich, L.Goerigk, J Comput Chem, (2011), 32, 1456–1465 
S.Grimme, J.Antony, S.Ehrlich and H.Krieg, J.Chem.Phys., 132, (2010), 154104 
   

Your calculation employs the composite approach PBEh-3c.
Please cite in your paper:
S. Grimme, J. G. Brandenburg, C. Bannwarth, A. Hansen J.Chem.Phys., 143, (2015), 054107 
   

================================================================================

----- Orbital basis set information -----
Your calculation utilizes the basis: def2-mSVP

----- AuxJ basis set information -----
Your calculation utilizes the auxiliary basis: def2/J
   F. Weigend, Phys. Chem. Chem. Phys. 8, 1057 (2006).

================================================================================
                                        WARNINGS
                       Please study these warnings very carefully!
================================================================================


WARNING: your system is open-shell and RHF/RKS was chosen
  ===> : WILL SWITCH to UHF/UKS


INFO   : the flag for use of the SHARK integral package has been found!

================================================================================
                                       INPUT FILE
================================================================================
NAME = pbeh-3c.inp
|  1> ! PBEh-3c def2/J TightSCF DefGrid3
|  2> 
|  3> %maxcore 60000
|  4> 
|  5> %pal
|  6> nprocs 4
|  7> end
|  8> 
|  9> *xyzfile 0 2 P17.xyz
| 10> 
| 11>                          ****END OF INPUT****
================================================================================

                       ****************************
                       * Single Point Calculation *
                       ****************************

---------------------------------
CARTESIAN COORDINATES (ANGSTROEM)
---------------------------------
  C     -1.924756   -0.512035    0.000000
  C     -0.696622    0.247101    0.000000
  O      0.398971   -0.558353    0.000000
  O     -0.631564    1.463118    0.000000
  C      1.667446    0.115132    0.000000
  H     -1.912267   -1.592293    0.000000
  H     -2.859170    0.028681    0.000000
  H      2.415969   -0.673071    0.000000
  H      1.770996    0.740859    0.887613
  H      1.770996    0.740859   -0.887613

----------------------------
CARTESIAN COORDINATES (A.U.)
----------------------------
  NO LB      ZA    FRAG     MASS         X           Y           Z
   0 C     6.0000    0    12.011   -3.637263   -0.967605    0.000000
   1 C     6.0000    0    12.011   -1.316424    0.466953    0.000000
   2 O     8.0000    0    15.999    0.753946   -1.055134    0.000000
   3 O     8.0000    0    15.999   -1.193483    2.764892    0.000000
   4 C     6.0000    0    12.011    3.151016    0.217569    0.000000
   5 H     1.0000    0     1.008   -3.613660   -3.008997    0.000000
   6 H     1.0000    0     1.008   -5.403049    0.054199    0.000000
   7 H     1.0000    0     1.008    4.565521   -1.271919    0.000000
   8 H     1.0000    0     1.008    3.346698    1.400021    1.677346
   9 H     1.0000    0     1.008    3.346698    1.400021   -1.677346

--------------------------------
INTERNAL COORDINATES (ANGSTROEM)
--------------------------------
 C      0   0   0     0.000000000000     0.00000000     0.00000000
 C      1   0   0     1.443815151529     0.00000000     0.00000000
 O      2   1   0     1.359808554276   111.95649804     0.00000000
 O      2   1   3     1.217755976551   124.78351588   180.00000000
 C      3   2   1     1.436179001888   115.71190115   180.00000000
 H      1   2   3     1.080330300288   121.05865251     0.00000000
 H      1   2   3     1.079584488214   118.22234155   180.00000000
 H      5   3   2     1.086992045328   105.55524022   180.00000000
 H      5   3   2     1.090923385626   110.65927186    60.40651784
 H      5   3   2     1.090923385626   110.65927186   299.59348216

---------------------------
INTERNAL COORDINATES (A.U.)
---------------------------
 C      0   0   0     0.000000000000     0.00000000     0.00000000
 C      1   0   0     2.728415224396     0.00000000     0.00000000
 O      2   1   0     2.569665762146   111.95649804     0.00000000
 O      2   1   3     2.301225293628   124.78351588   180.00000000
 C      3   2   1     2.713984992857   115.71190115   180.00000000
 H      1   2   3     2.041528401721   121.05865251     0.00000000
 H      1   2   3     2.040119021155   118.22234155   180.00000000
 H      5   3   2     2.054117275421   105.55524022   180.00000000
 H      5   3   2     2.061546431923   110.65927186    60.40651784
 H      5   3   2     2.061546431923   110.65927186   299.59348216

---------------------
BASIS SET INFORMATION
---------------------
There are 3 groups of distinct atoms

 Group   1 Type C   : 8s4p1d contracted to 4s2p1d pattern {5111/31/1}
 Group   2 Type O   : 8s4p1d contracted to 4s2p1d pattern {5111/31/1}
 Group   3 Type H   : 4s contracted to 2s pattern {31}

Atom   0C    basis set group =>   1
Atom   1C    basis set group =>   1
Atom   2O    basis set group =>   2
Atom   3O    basis set group =>   2
Atom   4C    basis set group =>   1
Atom   5H    basis set group =>   3
Atom   6H    basis set group =>   3
Atom   7H    basis set group =>   3
Atom   8H    basis set group =>   3
Atom   9H    basis set group =>   3
---------------------------------
AUXILIARY/J BASIS SET INFORMATION
---------------------------------
There are 3 groups of distinct atoms

 Group   1 Type C   : 12s5p4d2f1g contracted to 6s4p3d1f1g pattern {711111/2111/211/2/1}
 Group   2 Type O   : 12s5p4d2f1g contracted to 6s4p3d1f1g pattern {711111/2111/211/2/1}
 Group   3 Type H   : 5s2p1d contracted to 3s1p1d pattern {311/2/1}

Atom   0C    basis set group =>   1
Atom   1C    basis set group =>   1
Atom   2O    basis set group =>   2
Atom   3O    basis set group =>   2
Atom   4C    basis set group =>   1
Atom   5H    basis set group =>   3
Atom   6H    basis set group =>   3
Atom   7H    basis set group =>   3
Atom   8H    basis set group =>   3
Atom   9H    basis set group =>   3


           ************************************************************
           *        Program running with 4 parallel MPI-processes     *
           *              working on a common directory               *
           ************************************************************
------------------------------------------------------------------------------
                           ORCA GTO INTEGRAL CALCULATION
                           -- RI-GTO INTEGRALS CHOSEN --
------------------------------------------------------------------------------
------------------------------------------------------------------------------
                   ___                                                        
                  /   \      - P O W E R E D   B Y -                         
                 /     \                                                     
                 |  |  |   _    _      __       _____    __    __             
                 |  |  |  | |  | |    /  \     |  _  \  |  |  /  |          
                  \  \/   | |  | |   /    \    | | | |  |  | /  /          
                 / \  \   | |__| |  /  /\  \   | |_| |  |  |/  /          
                |  |  |   |  __  | /  /__\  \  |    /   |      \           
                |  |  |   | |  | | |   __   |  |    \   |  |\   \          
                \     /   | |  | | |  |  |  |  | |\  \  |  | \   \       
                 \___/    |_|  |_| |__|  |__|  |_| \__\ |__|  \__/        
                                                                              
                      - O R C A' S   B I G   F R I E N D -                    
                                      &                                       
                       - I N T E G R A L  F E E D E R -                       
                                                                              
 v1 FN, 2020, v2 2021                                                         
------------------------------------------------------------------------------


Reading SHARK input file pbeh-3c.SHARKINP.tmp ... ok
----------------------
SHARK INTEGRAL PACKAGE
----------------------

Number of atoms                             ...     10
Number of basis functions                   ...     85
Number of shells                            ...     45
Maximum angular momentum                    ...      2
Integral batch strategy                     ... SHARK/LIBINT Hybrid
RI-J (if used) integral strategy            ... SPLIT-RIJ (Revised 2003 algorithm where possible)
Printlevel                                  ...      1
Contraction scheme used                     ... SEGMENTED contraction
Coulomb Range Separation                    ... NOT USED
Exchange Range Separation                   ... NOT USED
Finite Nucleus Model                        ... NOT USED
Auxiliary Coulomb fitting basis             ... AVAILABLE
   # of basis functions in Aux-J            ...    300
   # of shells in Aux-J                     ...    100
   Maximum angular momentum in Aux-J        ...      4
Auxiliary J/K fitting basis                 ... NOT available
Auxiliary Correlation fitting basis         ... NOT available
Auxiliary 'external' fitting basis          ... NOT available
Integral threshold                          ...     2.500000e-11
Primitive cut-off                           ...     2.500000e-12
Primitive pair pre-selection threshold      ...     2.500000e-12

Calculating pre-screening integrals         ... done (  0.1 sec) Dimension = 45
Organizing shell pair data                  ... done (  0.3 sec)
Shell pair information
Total number of shell pairs                 ...      1035
Shell pairs after pre-screening             ...       985
Total number of primitive shell pairs       ...      3735
Primitive shell pairs kept                  ...      2688
          la=0 lb=0:    419 shell pairs
          la=1 lb=0:    300 shell pairs
          la=1 lb=1:     55 shell pairs
          la=2 lb=0:    146 shell pairs
          la=2 lb=1:     50 shell pairs
          la=2 lb=2:     15 shell pairs

Calculating one electron integrals          ... done (  0.0 sec)
Calculating RI/J V-Matrix + Cholesky decomp.... done (  0.4 sec)
Calculating Nuclear repulsion               ... done (  0.0 sec) ENN=    172.680489732946 Eh

SHARK setup successfully completed in   1.9 seconds

Maximum memory used throughout the entire GTOINT-calculation: 9.7 MB


           ************************************************************
           *        Program running with 4 parallel MPI-processes     *
           *              working on a common directory               *
           ************************************************************
-------------------------------------------------------------------------------
                                 ORCA SCF
-------------------------------------------------------------------------------

------------
SCF SETTINGS
------------
Hamiltonian:
 Density Functional     Method          .... DFT(GTOs)
 Exchange Functional    Exchange        .... PBE
   PBE kappa parameter   XKappa         ....  1.024500
   PBE mue parameter    XMuePBE         ....  0.123457
 Correlation Functional Correlation     .... PBE
   PBE beta parameter  CBetaPBE         ....  0.030000
 LDA part of GGA corr.  LDAOpt          .... PW91-LDA
 Gradients option       PostSCFGGA      .... off
 Hybrid DFT is turned on
   Fraction HF Exchange ScalHFX         ....  0.420000
   Scaling of DF-GGA-X  ScalDFX         ....  0.580000
   Scaling of DF-GGA-C  ScalDFC         ....  1.000000
   Scaling of DF-LDA-C  ScalLDAC        ....  1.000000
   Perturbative correction              ....  0.000000
   Density functional embedding theory  .... OFF
 RI-approximation to the Coulomb term is turned on
   Number of AuxJ basis functions       .... 300
   RIJ-ON(X) (HFX calculated with O(N)) .... on
   Number of AuxJ basis functions       .... 300
   RIJ-COSX (HFX calculated with COS-X)).... on


General Settings:
 Integral files         IntName         .... pbeh-3c
 Hartree-Fock type      HFTyp           .... UHF
 Total Charge           Charge          ....    0
 Multiplicity           Mult            ....    2
 Number of Electrons    NEL             ....   39
 Basis Dimension        Dim             ....   85
 Nuclear Repulsion      ENuc            ....    172.6804897329 Eh

Convergence Acceleration:
 DIIS                   CNVDIIS         .... on
   Start iteration      DIISMaxIt       ....    12
   Startup error        DIISStart       ....  0.200000
   # of expansion vecs  DIISMaxEq       ....     5
   Bias factor          DIISBfac        ....   1.050
   Max. coefficient     DIISMaxC        ....  10.000
 Trust-Rad. Augm. Hess. CNVTRAH         .... auto
   Auto Start mean grad. ratio tolernc. ....  1.125000
   Auto Start start iteration           ....    20
   Auto Start num. interpolation iter.  ....    10
   Max. Number of Micro iterations      ....    16
   Max. Number of Macro iterations      .... Maxiter - #DIIS iter
   Number of Davidson start vectors     ....     2
   Converg. threshold I  (grad. norm)   ....   1.000e-05
   Converg. threshold II (energy diff.) ....   1.000e-08
   Grad. Scal. Fac. for Micro threshold ....   0.100
   Minimum threshold for Micro iter.    ....   0.010
   NR start threshold (gradient norm)   ....   0.001
   Initial trust radius                 ....   0.400
   Minimum AH scaling param. (alpha)    ....   1.000
   Maximum AH scaling param. (alpha)    .... 1000.000
   Orbital update algorithm             .... Taylor
   White noise on init. David. guess    .... on
   Maximum white noise                  ....   0.010
   Quad. conv. algorithm                .... NR
   COSX micro iterations for RIJONX calc.... off
 SOSCF                  CNVSOSCF        .... off
 Level Shifting         CNVShift        .... on
   Level shift para.    LevelShift      ....    0.2500
   Turn off err/grad.   ShiftErr        ....    0.0010
 Zerner damping         CNVZerner       .... off
 Static damping         CNVDamp         .... on
   Fraction old density DampFac         ....    0.7000
   Max. Damping (<1)    DampMax         ....    0.9800
   Min. Damping (>=0)   DampMin         ....    0.0000
   Turn off err/grad.   DampErr         ....    0.1000
 Fernandez-Rico         CNVRico         .... off

SCF Procedure:
 Maximum # iterations   MaxIter         ....   125
 SCF integral mode      SCFMode         .... Direct
   Integral package                     .... SHARK and LIBINT hybrid scheme
 Reset frequency        DirectResetFreq ....    20
 Integral Threshold     Thresh          ....  2.500e-11 Eh
 Primitive CutOff       TCut            ....  2.500e-12 Eh

Convergence Tolerance:
 Convergence Check Mode ConvCheckMode   .... Total+1el-Energy
 Convergence forced     ConvForced      .... 0
 Energy Change          TolE            ....  1.000e-08 Eh
 1-El. energy change                    ....  1.000e-05 Eh
 DIIS Error             TolErr          ....  5.000e-07


Diagonalization of the overlap matrix:
Smallest eigenvalue                        ... 5.864e-03
Time for diagonalization                   ...    0.001 sec
Threshold for overlap eigenvalues          ... 1.000e-08
Number of eigenvalues below threshold      ... 0
Time for construction of square roots      ...    0.233 sec
Total time needed                          ...    0.312 sec

--------------------------------
INITIAL GUESS: MINIMAL BASIS EHT
--------------------------------
The minimal basis has 30 functions
EHT matrix was diagonalized
Basis set overlap was calculated now projecting the orbitals
Using GuessMode=FMatrix for the initial guess
C*T matrix was formed
Effective Fockian was calculated
Effective Fockian was diagonalized
Initial density was built
                      ------------------
                      INITIAL GUESS DONE
                      ------------------
-------------------
DFT GRID GENERATION
-------------------

General Integration Accuracy     IntAcc      ... 4.959
Radial Grid Type                 RadialGrid  ... OptM3 with GC (2021)
Angular Grid (max. ang.)         AngularGrid ... 6 (Lebedev-590)
Angular grid pruning method      GridPruning ... 4 (adaptive)
Weight generation scheme         WeightScheme... Becke
Basis function cutoff            BFCut       ... 1.0000e-11
Integration weight cutoff        WCut        ... 1.0000e-14
Angular grids for H and He will be reduced by one unit
Partially contracted basis set               ... off
Rotationally invariant grid construction     ... off

Total number of grid points                  ...   116592
Total number of batches                      ...     1825
Average number of points per batch           ...       63
Average number of grid points per atom       ...    11659
Time for grid setup =    2.423 sec

--------------------
COSX GRID GENERATION
--------------------

GRIDX 1
-------
General Integration Accuracy     IntAcc      ... 4.020
Radial Grid Type                 RadialGrid  ... OptM3 with GC (2021)
Angular Grid (max. ang.)         AngularGrid ... 2 (Lebedev-110)
Angular grid pruning method      GridPruning ... 4 (adaptive)
Weight generation scheme         WeightScheme... Becke
Basis function cutoff            BFCut       ... 1.0000e-11
Integration weight cutoff        WCut        ... 1.0000e-14
Angular grids for H and He will be reduced by one unit
Partially contracted basis set               ... on
Rotationally invariant grid construction     ... off

Total number of grid points                  ...    13097
Total number of batches                      ...      209
Average number of points per batch           ...       62
Average number of grid points per atom       ...     1310
UseSFitting                                  ... on

GRIDX 2
-------
General Integration Accuracy     IntAcc      ... 4.338
Radial Grid Type                 RadialGrid  ... OptM3 with GC (2021)
Angular Grid (max. ang.)         AngularGrid ... 3 (Lebedev-194)
Angular grid pruning method      GridPruning ... 4 (adaptive)
Weight generation scheme         WeightScheme... Becke
Basis function cutoff            BFCut       ... 1.0000e-11
Integration weight cutoff        WCut        ... 1.0000e-14
Angular grids for H and He will be reduced by one unit
Partially contracted basis set               ... on
Rotationally invariant grid construction     ... off

Total number of grid points                  ...    28909
Total number of batches                      ...      458
Average number of points per batch           ...       63
Average number of grid points per atom       ...     2891
UseSFitting                                  ... on

GRIDX 3
-------
General Integration Accuracy     IntAcc      ... 4.871
Radial Grid Type                 RadialGrid  ... OptM3 with GC (2021)
Angular Grid (max. ang.)         AngularGrid ... 4 (Lebedev-302)
Angular grid pruning method      GridPruning ... 4 (adaptive)
Weight generation scheme         WeightScheme... Becke
Basis function cutoff            BFCut       ... 1.0000e-11
Integration weight cutoff        WCut        ... 1.0000e-14
Angular grids for H and He will be reduced by one unit
Partially contracted basis set               ... on
Rotationally invariant grid construction     ... off

Total number of grid points                  ...    55520
Total number of batches                      ...      872
Average number of points per batch           ...       63
Average number of grid points per atom       ...     5552
UseSFitting                                  ... on

Time for X-Grid setup             =    3.541 sec

--------------
SCF ITERATIONS
--------------
ITER       Energy         Delta-E        Max-DP      RMS-DP      [F,P]     Damp
               ***  Starting incremental Fock matrix formation  ***
  0   -266.2349385073   0.000000000000 0.10343274  0.00422928  0.2743576 0.7000
  1   -266.5934763433  -0.358537835957 0.05690544  0.00234692  0.1339045 0.7000
                               ***Turning on DIIS***
  2   -266.7641804045  -0.170704061238 0.08260889  0.00413668  0.0955911 0.0000
  3   -267.1429014540  -0.378721049473 0.05205772  0.00178036  0.0647434 0.0000
  4   -267.1600087636  -0.017107309602 0.01841719  0.00059702  0.0396980 0.0000
  5   -267.1689448951  -0.008936131553 0.00517003  0.00017034  0.0066198 0.0000
  6   -267.1693331688  -0.000388273675 0.00230344  0.00008500  0.0034173 0.0000
  7   -267.1694395908  -0.000106421966 0.00153978  0.00004526  0.0017315 0.0000
  8   -267.1694662510  -0.000026660277 0.00109336  0.00002936  0.0010386 0.0000
  9   -267.1694779222  -0.000011671109 0.00163123  0.00003923  0.0006297 0.0000
               *** Restarting incremental Fock matrix formation ***
                                   *** Resetting DIIS ***
 10   -267.1694899181  -0.000011995917 0.00052677  0.00001280  0.0003507 0.0000
 11   -267.1694913435  -0.000001425385 0.00038042  0.00000631  0.0003929 0.0000
 12   -267.1694918869  -0.000000543484 0.00062377  0.00001454  0.0002484 0.0000
 13   -267.1694927224  -0.000000835447 0.00023566  0.00000455  0.0000738 0.0000
 14   -267.1694928013  -0.000000078915 0.00006848  0.00000157  0.0000274 0.0000
 15   -267.1694928123  -0.000000010964 0.00000994  0.00000026  0.0000099 0.0000
 16   -267.1694928129  -0.000000000649 0.00000393  0.00000013  0.0000044 0.0000
                 **** Energy Check signals convergence ****

               *****************************************************
               *                     SUCCESS                       *
               *           SCF CONVERGED AFTER  17 CYCLES          *
               *****************************************************

Old exchange energy                            =    -14.176157111 Eh
New exchange energy                            =    -14.176151725 Eh
Exchange energy change after final integration =      0.000005386 Eh
Total energy after final integration           =   -267.169487427 Eh
Final COS-X integration done in                =     3.384 sec

----------------
TOTAL SCF ENERGY
----------------

Total Energy       :         -267.16948743 Eh           -7270.05136 eV

Components:
Nuclear Repulsion  :          172.68048973 Eh            4698.87501 eV
Electronic Energy  :         -439.84997716 Eh          -11968.92637 eV
One Electron Energy:         -706.12325235 Eh          -19214.59055 eV
Two Electron Energy:          266.27327519 Eh            7245.66418 eV
Max COSX asymmetry :            0.00000037 Eh               0.00001 eV

Virial components:
Potential Energy   :         -532.44234183 Eh          -14488.49270 eV
Kinetic Energy     :          265.27285440 Eh            7218.44135 eV
Virial Ratio       :            2.00714974


DFT components:
N(Alpha)           :       19.999999290621 electrons
N(Beta)            :       18.999999547541 electrons
N(Total)           :       38.999998838163 electrons
E(X)               :      -18.862808083057 Eh       
E(C)               :       -1.705371927375 Eh       
E(XC)              :      -20.568180010432 Eh       
DFET-embed. en.    :        0.000000000000 Eh       

---------------
SCF CONVERGENCE
---------------

  Last Energy change         ...    1.3841e-10  Tolerance :   1.0000e-08
  Last MAX-Density change    ...    0.0000e+00  Tolerance :   1.0000e-07
  Last RMS-Density change    ...    0.0000e+00  Tolerance :   5.0000e-09
  Last DIIS Error            ...    1.6359e-06  Tolerance :   5.0000e-07

             **** THE GBW FILE WAS UPDATED (pbeh-3c.gbw) ****
             **** DENSITY pbeh-3c.scfp WAS UPDATED ****
             **** ENERGY FILE WAS UPDATED (pbeh-3c.en.tmp) ****
----------------------
UHF SPIN CONTAMINATION
----------------------

Warning: in a DFT calculation there is little theoretical justification to 
         calculate <S**2> as in Hartree-Fock theory. We will do it anyways
         but you should keep in mind that the values have only limited relevance

Expectation value of <S**2>     :     0.762812
Ideal value S*(S+1) for S=0.5   :     0.750000
Deviation                       :     0.012812

             **** THE GBW FILE WAS UPDATED (pbeh-3c.gbw) ****
             **** DENSITY pbeh-3c.scfp WAS UPDATED ****
----------------
ORBITAL ENERGIES
----------------
                 SPIN UP ORBITALS
  NO   OCC          E(Eh)            E(eV) 
   0   1.0000     -19.538514      -531.6700 
   1   1.0000     -19.488449      -530.3077 
   2   1.0000     -10.576064      -287.7893 
   3   1.0000     -10.491297      -285.4827 
   4   1.0000     -10.484346      -285.2936 
   5   1.0000      -1.213311       -33.0159 
   6   1.0000      -1.124935       -30.6110 
   7   1.0000      -0.866986       -23.5919 
   8   1.0000      -0.783229       -21.3128 
   9   1.0000      -0.639398       -17.3989 
  10   1.0000      -0.578230       -15.7344 
  11   1.0000      -0.552345       -15.0301 
  12   1.0000      -0.548663       -14.9299 
  13   1.0000      -0.497203       -13.5296 
  14   1.0000      -0.476735       -12.9726 
  15   1.0000      -0.466734       -12.7005 
  16   1.0000      -0.418783       -11.3957 
  17   1.0000      -0.366184        -9.9644 
  18   1.0000      -0.342414        -9.3176 
  19   1.0000      -0.312459        -8.5024 
  20   0.0000       0.077090         2.0977 
  21   0.0000       0.145297         3.9537 
  22   0.0000       0.170317         4.6345 
  23   0.0000       0.180979         4.9247 
  24   0.0000       0.208729         5.6798 
  25   0.0000       0.226413         6.1610 
  26   0.0000       0.228559         6.2194 
  27   0.0000       0.263072         7.1586 
  28   0.0000       0.336416         9.1543 
  29   0.0000       0.395451        10.7608 
  30   0.0000       0.484523        13.1845 
  31   0.0000       0.504209        13.7202 
  32   0.0000       0.513169        13.9640 
  33   0.0000       0.549310        14.9475 
  34   0.0000       0.574987        15.6462 
  35   0.0000       0.603572        16.4240 
  36   0.0000       0.620076        16.8731 
  37   0.0000       0.679003        18.4766 
  38   0.0000       0.722764        19.6674 
  39   0.0000       0.750094        20.4111 
  40   0.0000       0.962844        26.2003 
  41   0.0000       0.974973        26.5304 
  42   0.0000       0.977718        26.6051 
  43   0.0000       1.004052        27.3216 
  44   0.0000       1.019214        27.7342 
  45   0.0000       1.032201        28.0876 
  46   0.0000       1.063865        28.9492 
  47   0.0000       1.078303        29.3421 
  48   0.0000       1.127294        30.6752 
  49   0.0000       1.178586        32.0710 
  50   0.0000       1.210178        32.9306 
  51   0.0000       1.267180        34.4817 
  52   0.0000       1.366309        37.1792 
  53   0.0000       1.378827        37.5198 
  54   0.0000       1.427404        38.8416 
  55   0.0000       1.578169        42.9442 
  56   0.0000       1.680289        45.7230 
  57   0.0000       1.688294        45.9408 
  58   0.0000       1.812248        49.3138 
  59   0.0000       1.829712        49.7890 
  60   0.0000       1.859455        50.5983 
  61   0.0000       1.949939        53.0605 
  62   0.0000       2.034873        55.3717 
  63   0.0000       2.066936        56.2442 
  64   0.0000       2.068205        56.2787 
  65   0.0000       2.118222        57.6397 
  66   0.0000       2.152182        58.5639 
  67   0.0000       2.158741        58.7423 
  68   0.0000       2.210753        60.1576 
  69   0.0000       2.253941        61.3328 
  70   0.0000       2.387932        64.9789 
  71   0.0000       2.392751        65.1101 
  72   0.0000       2.441662        66.4410 
  73   0.0000       2.518208        68.5239 
  74   0.0000       2.730677        74.3055 
  75   0.0000       2.745258        74.7023 
  76   0.0000       2.789780        75.9138 
  77   0.0000       2.954551        80.3974 
  78   0.0000       3.115723        84.7831 
  79   0.0000       3.210258        87.3556 
  80   0.0000      13.469925       366.5353 
  81   0.0000      13.746015       374.0481 
  82   0.0000      14.091286       383.4434 
  83   0.0000      25.637456       697.6306 
  84   0.0000      25.776789       701.4221 

                 SPIN DOWN ORBITALS
  NO   OCC          E(Eh)            E(eV) 
   0   1.0000     -19.537887      -531.6529 
   1   1.0000     -19.482489      -530.1455 
   2   1.0000     -10.578404      -287.8530 
   3   1.0000     -10.491334      -285.4837 
   4   1.0000     -10.469826      -284.8985 
   5   1.0000      -1.209663       -32.9166 
   6   1.0000      -1.115799       -30.3624 
   7   1.0000      -0.843206       -22.9448 
   8   1.0000      -0.764776       -20.8106 
   9   1.0000      -0.634499       -17.2656 
  10   1.0000      -0.570142       -15.5144 
  11   1.0000      -0.546341       -14.8667 
  12   1.0000      -0.542176       -14.7534 
  13   1.0000      -0.489660       -13.3243 
  14   1.0000      -0.472043       -12.8449 
  15   1.0000      -0.446640       -12.1537 
  16   1.0000      -0.416904       -11.3445 
  17   1.0000      -0.346162        -9.4195 
  18   1.0000      -0.335143        -9.1197 
  19   0.0000      -0.084482        -2.2989 
  20   0.0000       0.111544         3.0353 
  21   0.0000       0.149174         4.0592 
  22   0.0000       0.172058         4.6819 
  23   0.0000       0.191010         5.1976 
  24   0.0000       0.210427         5.7260 
  25   0.0000       0.226865         6.1733 
  26   0.0000       0.233389         6.3508 
  27   0.0000       0.270379         7.3574 
  28   0.0000       0.336782         9.1643 
  29   0.0000       0.398241        10.8367 
  30   0.0000       0.488791        13.3007 
  31   0.0000       0.505951        13.7676 
  32   0.0000       0.555712        15.1217 
  33   0.0000       0.563252        15.3269 
  34   0.0000       0.578078        15.7303 
  35   0.0000       0.628210        17.0945 
  36   0.0000       0.636899        17.3309 
  37   0.0000       0.688695        18.7404 
  38   0.0000       0.724048        19.7024 
  39   0.0000       0.758143        20.6301 
  40   0.0000       0.965793        26.2806 
  41   0.0000       0.978312        26.6212 
  42   0.0000       0.979809        26.6620 
  43   0.0000       1.010142        27.4874 
  44   0.0000       1.029165        28.0050 
  45   0.0000       1.042751        28.3747 
  46   0.0000       1.075579        29.2680 
  47   0.0000       1.081317        29.4241 
  48   0.0000       1.131493        30.7895 
  49   0.0000       1.192191        32.4412 
  50   0.0000       1.216187        33.0941 
  51   0.0000       1.272168        34.6174 
  52   0.0000       1.372595        37.3502 
  53   0.0000       1.398849        38.0646 
  54   0.0000       1.432282        38.9744 
  55   0.0000       1.583496        43.0891 
  56   0.0000       1.690844        46.0102 
  57   0.0000       1.739550        47.3356 
  58   0.0000       1.822256        49.5861 
  59   0.0000       1.833923        49.9036 
  60   0.0000       1.875772        51.0424 
  61   0.0000       1.952016        53.1171 
  62   0.0000       2.048118        55.7321 
  63   0.0000       2.091754        56.9195 
  64   0.0000       2.091916        56.9239 
  65   0.0000       2.120783        57.7094 
  66   0.0000       2.159545        58.7642 
  67   0.0000       2.161517        58.8179 
  68   0.0000       2.222382        60.4741 
  69   0.0000       2.260387        61.5083 
  70   0.0000       2.389826        65.0305 
  71   0.0000       2.394465        65.1567 
  72   0.0000       2.460095        66.9426 
  73   0.0000       2.526523        68.7502 
  74   0.0000       2.734109        74.3989 
  75   0.0000       2.750079        74.8334 
  76   0.0000       2.790719        75.9393 
  77   0.0000       2.958386        80.5018 
  78   0.0000       3.117518        84.8320 
  79   0.0000       3.211386        87.3862 
  80   0.0000      13.484805       366.9402 
  81   0.0000      13.746055       374.0492 
  82   0.0000      14.094498       383.5308 
  83   0.0000      25.640153       697.7040 
  84   0.0000      25.782649       701.5816 

                    ********************************
                    * MULLIKEN POPULATION ANALYSIS *
                    ********************************

--------------------------------------------
MULLIKEN ATOMIC CHARGES AND SPIN POPULATIONS
--------------------------------------------
   0 C :   -0.487116    1.021389
   1 C :    0.559317   -0.125418
   2 O :   -0.472656    0.018472
   3 O :   -0.397246    0.196137
   4 C :   -0.391201   -0.003193
   5 H :    0.251616   -0.053626
   6 H :    0.259661   -0.055959
   7 H :    0.225343    0.000119
   8 H :    0.226141    0.001040
   9 H :    0.226141    0.001040
Sum of atomic charges         :   -0.0000000
Sum of atomic spin populations:    1.0000000

-----------------------------------------------------
MULLIKEN REDUCED ORBITAL CHARGES AND SPIN POPULATIONS
-----------------------------------------------------
CHARGE
  0 C s       :     3.393695  s :     3.393695
      pz      :     0.921175  p :     3.065989
      px      :     1.026536
      py      :     1.118278
      dz2     :     0.004623  d :     0.027431
      dxz     :     0.001799
      dyz     :     0.000831
      dx2y2   :     0.010106
      dxy     :     0.010073
  1 C s       :     2.952885  s :     2.952885
      pz      :     0.797233  p :     2.352158
      px      :     0.755940
      py      :     0.798986
      dz2     :     0.006735  d :     0.135640
      dxz     :     0.011448
      dyz     :     0.025262
      dx2y2   :     0.033288
      dxy     :     0.058907
  2 O s       :     3.792272  s :     3.792272
      pz      :     1.781938  p :     4.649122
      px      :     1.220200
      py      :     1.646985
      dz2     :     0.004454  d :     0.031262
      dxz     :     0.004152
      dyz     :     0.003851
      dx2y2   :     0.005304
      dxy     :     0.013501
  3 O s       :     3.766386  s :     3.766386
      pz      :     1.406079  p :     4.600506
      px      :     1.810050
      py      :     1.384376
      dz2     :     0.002757  d :     0.030354
      dxz     :     0.000105
      dyz     :     0.011427
      dx2y2   :     0.008893
      dxy     :     0.007172
  4 C s       :     3.334266  s :     3.334266
      pz      :     1.151392  p :     2.998808
      px      :     0.787823
      py      :     1.059593
      dz2     :     0.010461  d :     0.058128
      dxz     :     0.006739
      dyz     :     0.013625
      dx2y2   :     0.009308
      dxy     :     0.017996
  5 H s       :     0.748384  s :     0.748384
  6 H s       :     0.740339  s :     0.740339
  7 H s       :     0.774657  s :     0.774657
  8 H s       :     0.773859  s :     0.773859
  9 H s       :     0.773859  s :     0.773859

SPIN
  0 C s       :     0.089989  s :     0.089989
      pz      :     0.862102  p :     0.934400
      px      :     0.029025
      py      :     0.043273
      dz2     :    -0.002827  d :    -0.003000
      dxz     :     0.000136
      dyz     :    -0.000032
      dx2y2   :    -0.000165
      dxy     :    -0.000112
  1 C s       :    -0.022822  s :    -0.022822
      pz      :    -0.074132  p :    -0.111273
      px      :    -0.023206
      py      :    -0.013935
      dz2     :     0.000185  d :     0.008677
      dxz     :     0.004832
      dyz     :     0.003950
      dx2y2   :     0.000086
      dxy     :    -0.000377
  2 O s       :     0.000466  s :     0.000466
      pz      :     0.017103  p :     0.018281
      px      :     0.000357
      py      :     0.000821
      dz2     :    -0.000030  d :    -0.000275
      dxz     :    -0.000111
      dyz     :     0.000012
      dx2y2   :    -0.000131
      dxy     :    -0.000015
  3 O s       :     0.006387  s :     0.006387
      pz      :     0.185390  p :     0.190997
      px      :     0.001361
      py      :     0.004246
      dz2     :     0.000055  d :    -0.001246
      dxz     :     0.000018
      dyz     :    -0.001199
      dx2y2   :    -0.000047
      dxy     :    -0.000074
  4 C s       :    -0.000517  s :    -0.000517
      pz      :     0.000066  p :    -0.002952
      px      :    -0.002237
      py      :    -0.000781
      dz2     :     0.000015  d :     0.000277
      dxz     :     0.000159
      dyz     :     0.000100
      dx2y2   :     0.000000
      dxy     :     0.000004
  5 H s       :    -0.053626  s :    -0.053626
  6 H s       :    -0.055959  s :    -0.055959
  7 H s       :     0.000119  s :     0.000119
  8 H s       :     0.001040  s :     0.001040
  9 H s       :     0.001040  s :     0.001040


                     *******************************
                     * LOEWDIN POPULATION ANALYSIS *
                     *******************************

-------------------------------------------
LOEWDIN ATOMIC CHARGES AND SPIN POPULATIONS
-------------------------------------------
   0 C :   -0.195780    0.899189
   1 C :    0.104472   -0.049720
   2 O :   -0.194216    0.017902
   3 O :   -0.218874    0.185283
   4 C :   -0.179006   -0.001766
   5 H :    0.149702   -0.026464
   6 H :    0.153187   -0.026457
   7 H :    0.127638    0.000051
   8 H :    0.126438    0.000991
   9 H :    0.126438    0.000991

----------------------------------------------------
LOEWDIN REDUCED ORBITAL CHARGES AND SPIN POPULATIONS
----------------------------------------------------
CHARGE
  0 C s       :     3.022092  s :     3.022092
      pz      :     0.907982  p :     3.121209
      px      :     1.098305
      py      :     1.114922
      dz2     :     0.006294  d :     0.052480
      dxz     :     0.003344
      dyz     :     0.001455
      dx2y2   :     0.020123
      dxy     :     0.021265
  1 C s       :     2.822429  s :     2.822429
      pz      :     0.798487  p :     2.766746
      px      :     0.949333
      py      :     1.018926
      dz2     :     0.016944  d :     0.306353
      dxz     :     0.023018
      dyz     :     0.051020
      dx2y2   :     0.074742
      dxy     :     0.140629
  2 O s       :     3.448616  s :     3.448616
      pz      :     1.754744  p :     4.676976
      px      :     1.273089
      py      :     1.649143
      dz2     :     0.008285  d :     0.068624
      dxz     :     0.010491
      dyz     :     0.005121
      dx2y2   :     0.015357
      dxy     :     0.029371
  3 O s       :     3.525931  s :     3.525931
      pz      :     1.393464  p :     4.637039
      px      :     1.773958
      py      :     1.469616
      dz2     :     0.006671  d :     0.055903
      dxz     :     0.000152
      dyz     :     0.015213
      dx2y2   :     0.020663
      dxy     :     0.013204
  4 C s       :     2.960305  s :     2.960305
      pz      :     1.152989  p :     3.104528
      px      :     0.868016
      py      :     1.083523
      dz2     :     0.018951  d :     0.114172
      dxz     :     0.013850
      dyz     :     0.024798
      dx2y2   :     0.019127
      dxy     :     0.037446
  5 H s       :     0.850298  s :     0.850298
  6 H s       :     0.846813  s :     0.846813
  7 H s       :     0.872362  s :     0.872362
  8 H s       :     0.873562  s :     0.873562
  9 H s       :     0.873562  s :     0.873562

SPIN
  0 C s       :     0.035815  s :     0.035815
      pz      :     0.828966  p :     0.868127
      px      :     0.018866
      py      :     0.020296
      dz2     :    -0.002577  d :    -0.004753
      dxz     :    -0.000304
      dyz     :    -0.000211
      dx2y2   :    -0.000813
      dxy     :    -0.000848
  1 C s       :    -0.008711  s :    -0.008711
      pz      :    -0.045995  p :    -0.061179
      px      :    -0.008648
      py      :    -0.006535
      dz2     :     0.000278  d :     0.020170
      dxz     :     0.009819
      dyz     :     0.009216
      dx2y2   :     0.000698
      dxy     :     0.000159
  2 O s       :    -0.000181  s :    -0.000181
      pz      :     0.018287  p :     0.019300
      px      :     0.000690
      py      :     0.000323
      dz2     :    -0.000072  d :    -0.001218
      dxz     :    -0.000486
      dyz     :    -0.000251
      dx2y2   :    -0.000272
      dxy     :    -0.000137
  3 O s       :     0.003290  s :     0.003290
      pz      :     0.180577  p :     0.184373
      px      :     0.001386
      py      :     0.002409
      dz2     :     0.000081  d :    -0.002380
      dxz     :     0.000048
      dyz     :    -0.002046
      dx2y2   :    -0.000235
      dxy     :    -0.000228
  4 C s       :    -0.000294  s :    -0.000294
      pz      :     0.000183  p :    -0.001980
      px      :    -0.001612
      py      :    -0.000551
      dz2     :     0.000032  d :     0.000507
      dxz     :     0.000313
      dyz     :     0.000135
      dx2y2   :     0.000001
      dxy     :     0.000026
  5 H s       :    -0.026464  s :    -0.026464
  6 H s       :    -0.026457  s :    -0.026457
  7 H s       :     0.000051  s :     0.000051
  8 H s       :     0.000991  s :     0.000991
  9 H s       :     0.000991  s :     0.000991


                      *****************************
                      * MAYER POPULATION ANALYSIS *
                      *****************************

  NA   - Mulliken gross atomic population
  ZA   - Total nuclear charge
  QA   - Mulliken gross atomic charge
  VA   - Mayer's total valence
  BVA  - Mayer's bonded valence
  FA   - Mayer's free valence

  ATOM       NA         ZA         QA         VA         BVA        FA
  0 C      6.4871     6.0000    -0.4871     3.7195     2.9638     0.7558
  1 C      5.4407     6.0000     0.5593     4.0650     4.0586     0.0065
  2 O      8.4727     8.0000    -0.4727     2.0778     2.0775     0.0003
  3 O      8.3972     8.0000    -0.3972     2.2047     2.1693     0.0354
  4 C      6.3912     6.0000    -0.3912     3.6931     3.6931     0.0000
  5 H      0.7484     1.0000     0.2516     0.9078     0.9050     0.0028
  6 H      0.7403     1.0000     0.2597     0.9061     0.9031     0.0031
  7 H      0.7747     1.0000     0.2253     0.9124     0.9124     0.0000
  8 H      0.7739     1.0000     0.2261     0.9080     0.9080     0.0000
  9 H      0.7739     1.0000     0.2261     0.9080     0.9080     0.0000

  Mayer bond orders larger than 0.100000
B(  0-C ,  1-C ) :   1.0675 B(  0-C ,  5-H ) :   0.9001 B(  0-C ,  6-H ) :   0.9102 
B(  1-C ,  2-O ) :   1.0649 B(  1-C ,  3-O ) :   1.9491 B(  2-O ,  4-C ) :   0.9062 
B(  4-C ,  7-H ) :   0.9226 B(  4-C ,  8-H ) :   0.9129 B(  4-C ,  9-H ) :   0.9129 


-------
TIMINGS
-------

Total SCF time: 0 days 0 hours 2 min 25 sec 

Total time                  ....     145.553 sec
Sum of individual times     ....     134.226 sec  ( 92.2%)

Fock matrix formation       ....     113.672 sec  ( 78.1%)
  Split-RI-J                ....      11.341 sec  ( 10.0% of F)
  Chain of spheres X        ....      19.000 sec  ( 16.7% of F)
  XC integration            ....      36.296 sec  ( 31.9% of F)
    Basis function eval.    ....       1.871 sec  (  5.2% of XC)
    Density eval.           ....       2.235 sec  (  6.2% of XC)
    XC-Functional eval.     ....       1.552 sec  (  4.3% of XC)
    XC-Potential eval.      ....       1.302 sec  (  3.6% of XC)
Diagonalization             ....       3.140 sec  (  2.2%)
Density matrix formation    ....       0.123 sec  (  0.1%)
Population analysis         ....       2.059 sec  (  1.4%)
Initial guess               ....       0.005 sec  (  0.0%)
Orbital Transformation      ....       0.000 sec  (  0.0%)
Orbital Orthonormalization  ....       0.000 sec  (  0.0%)
DIIS solution               ....       9.264 sec  (  6.4%)
Grid generation             ....       5.963 sec  (  4.1%)

Maximum memory used throughout the entire SCF-calculation: 49.1 MB


-------------------------------------------------------------------------------
                          DFT DISPERSION CORRECTION                            
                                                                               
                              DFTD3 V3.1  Rev 1                                
                          USING Becke-Johnson damping                          
-------------------------------------------------------------------------------
The PBEh-3c composite method is recognized
Using three-body term ABC
Active option DFTDOPT                   ...         4   

molecular C6(AA) [au] = 888.501881 


            DFT-D V3
 parameters
 s6 scaling factor         :     1.0000 
 a1 scaling factor         :     0.4860 
 s8 scaling factor         :     0.0000 
 a2 scaling factor         :     4.5000 
 Damping factor alpha9(ATM):    16.0000 
 ad hoc parameters k1-k3   :    16.0000     1.3333    -4.0000 

 Edisp/kcal,au: -2.102689531725  -0.003350848703 
 E6   /kcal   :  -2.103700733 
 E8   /kcal   :  -0.000000000 
 E6(ABC)      :   0.001011202 
 % E8         :   0.000000000 
 % E6(ABC)    :  -0.048090868 

-------------------------   ----------------
Dispersion correction           -0.003350849
-------------------------   ----------------

------------------   -----------------
gCP correction             0.022755063
------------------   -----------------

-------------------------   --------------------
FINAL SINGLE POINT ENERGY      -267.150083212885
-------------------------   --------------------


                            ***************************************
                            *     ORCA property calculations      *
                            ***************************************

                                    ---------------------
                                    Active property flags
                                    ---------------------
   (+) Dipole Moment


------------------------------------------------------------------------------
                       ORCA ELECTRIC PROPERTIES CALCULATION
------------------------------------------------------------------------------

Dipole Moment Calculation                       ... on
Quadrupole Moment Calculation                   ... off
Polarizability Calculation                      ... off
GBWName                                         ... pbeh-3c.gbw
Electron density                                ... pbeh-3c.scfp
The origin for moment calculation is the CENTER OF MASS  = (-0.361619,  0.308142  0.000000)

-------------
DIPOLE MOMENT
-------------
                                X             Y             Z
Electronic contribution:     -1.88256       0.78037       0.00000
Nuclear contribution   :      2.01304      -1.46463       0.00000
                        -----------------------------------------
Total Dipole Moment    :      0.13048      -0.68426       0.00000
                        -----------------------------------------
Magnitude (a.u.)       :      0.69659
Magnitude (Debye)      :      1.77059



--------------------
Rotational spectrum 
--------------------
 
Rotational constants in cm-1:     0.358339     0.145708     0.105650 
Rotational constants in MHz : 10742.736080  4368.222847  3167.297746 

 Dipole components along the rotational axes: 
x,y,z [a.u.] :    -0.130480    -0.684261     0.000000 
x,y,z [Debye]:    -0.331655    -1.739253     0.000000 

 

Timings for individual modules:

Sum of individual times         ...      149.490 sec (=   2.492 min)
GTO integral calculation        ...        2.768 sec (=   0.046 min)   1.9 %
SCF iterations                  ...      146.722 sec (=   2.445 min)  98.1 %
                             ****ORCA TERMINATED NORMALLY****
TOTAL RUN TIME: 0 days 0 hours 2 minutes 53 seconds 788 msec
