
                                 *****************
                                 * O   R   C   A *
                                 *****************

                                            #,                                       
                                            ###                                      
                                            ####                                     
                                            #####                                    
                                            ######                                   
                                           ########,                                 
                                     ,,################,,,,,                         
                               ,,#################################,,                 
                          ,,##########################################,,             
                       ,#########################################, ''#####,          
                    ,#############################################,,   '####,        
                  ,##################################################,,,,####,       
                ,###########''''           ''''###############################       
              ,#####''   ,,,,##########,,,,          '''####'''          '####       
            ,##' ,,,,###########################,,,                        '##       
           ' ,,###''''                  '''############,,,                           
         ,,##''                                '''############,,,,        ,,,,,,###''
      ,#''                                            '''#######################'''  
     '                                                          ''''####''''         
             ,#######,   #######,   ,#######,      ##                                
            ,#'     '#,  ##    ##  ,#'     '#,    #''#        ######   ,####,        
            ##       ##  ##   ,#'  ##            #'  '#       #        #'  '#        
            ##       ##  #######   ##           ,######,      #####,   #    #        
            '#,     ,#'  ##    ##  '#,     ,#' ,#      #,         ##   #,  ,#        
             '#######'   ##     ##  '#######'  #'      '#     #####' # '####'        



                  #######################################################
                  #                        -***-                        #
                  #          Department of theory and spectroscopy      #
                  #    Directorship and core code : Frank Neese         #
                  #        Max Planck Institute fuer Kohlenforschung    #
                  #                Kaiser Wilhelm Platz 1               #
                  #                 D-45470 Muelheim/Ruhr               #
                  #                      Germany                        #
                  #                                                     #
                  #                  All rights reserved                #
                  #                        -***-                        #
                  #######################################################


                         Program Version 5.0.3 -  RELEASE  -


 With contributions from (in alphabetic order):
   Daniel Aravena         : Magnetic Suceptibility
   Michael Atanasov       : Ab Initio Ligand Field Theory (pilot matlab implementation)
   Alexander A. Auer      : GIAO ZORA, VPT2 properties, NMR spectrum
   Ute Becker             : Parallelization
   Giovanni Bistoni       : ED, misc. LED, open-shell LED, HFLD
   Martin Brehm           : Molecular dynamics
   Dmytro Bykov           : SCF Hessian
   Vijay G. Chilkuri      : MRCI spin determinant printing, contributions to CSF-ICE
   Dipayan Datta          : RHF DLPNO-CCSD density
   Achintya Kumar Dutta   : EOM-CC, STEOM-CC
   Dmitry Ganyushin       : Spin-Orbit,Spin-Spin,Magnetic field MRCI
   Miquel Garcia          : C-PCM and meta-GGA Hessian, CC/C-PCM, Gaussian charge scheme
   Yang Guo               : DLPNO-NEVPT2, F12-NEVPT2, CIM, IAO-localization
   Andreas Hansen         : Spin unrestricted coupled pair/coupled cluster methods
   Benjamin Helmich-Paris : MC-RPA, TRAH-SCF, COSX integrals
   Lee Huntington         : MR-EOM, pCC
   Robert Izsak           : Overlap fitted RIJCOSX, COSX-SCS-MP3, EOM
   Marcus Kettner         : VPT2
   Christian Kollmar      : KDIIS, OOCD, Brueckner-CCSD(T), CCSD density, CASPT2, CASPT2-K
   Simone Kossmann        : Meta GGA functionals, TD-DFT gradient, OOMP2, MP2 Hessian
   Martin Krupicka        : Initial AUTO-CI
   Lucas Lang             : DCDCAS
   Marvin Lechner         : AUTO-CI (C++ implementation), FIC-MRCC
   Dagmar Lenk            : GEPOL surface, SMD
   Dimitrios Liakos       : Extrapolation schemes; Compound Job, initial MDCI parallelization
   Dimitrios Manganas     : Further ROCIS development; embedding schemes
   Dimitrios Pantazis     : SARC Basis sets
   Anastasios Papadopoulos: AUTO-CI, single reference methods and gradients
   Taras Petrenko         : DFT Hessian,TD-DFT gradient, ASA, ECA, R-Raman, ABS, FL, XAS/XES, NRVS
   Peter Pinski           : DLPNO-MP2, DLPNO-MP2 Gradient
   Christoph Reimann      : Effective Core Potentials
   Marius Retegan         : Local ZFS, SOC
   Christoph Riplinger    : Optimizer, TS searches, QM/MM, DLPNO-CCSD(T), (RO)-DLPNO pert. Triples
   Tobias Risthaus        : Range-separated hybrids, TD-DFT gradient, RPA, STAB
   Michael Roemelt        : Original ROCIS implementation
   Masaaki Saitow         : Open-shell DLPNO-CCSD energy and density
   Barbara Sandhoefer     : DKH picture change effects
   Avijit Sen             : IP-ROCIS
   Kantharuban Sivalingam : CASSCF convergence, NEVPT2, FIC-MRCI
   Bernardo de Souza      : ESD, SOC TD-DFT
   Georgi Stoychev        : AutoAux, RI-MP2 NMR, DLPNO-MP2 response
   Willem Van den Heuvel  : Paramagnetic NMR
   Boris Wezisla          : Elementary symmetry handling
   Frank Wennmohs         : Technical directorship


 We gratefully acknowledge several colleagues who have allowed us to
 interface, adapt or use parts of their codes:
   Stefan Grimme, W. Hujo, H. Kruse, P. Pracht,  : VdW corrections, initial TS optimization,
                  C. Bannwarth, S. Ehlert          DFT functionals, gCP, sTDA/sTD-DF
   Ed Valeev, F. Pavosevic, A. Kumar             : LibInt (2-el integral package), F12 methods
   Garnet Chan, S. Sharma, J. Yang, R. Olivares  : DMRG
   Ulf Ekstrom                                   : XCFun DFT Library
   Mihaly Kallay                                 : mrcc  (arbitrary order and MRCC methods)
   Jiri Pittner, Ondrej Demel                    : Mk-CCSD
   Frank Weinhold                                : gennbo (NPA and NBO analysis)
   Christopher J. Cramer and Donald G. Truhlar   : smd solvation model
   Lars Goerigk                                  : TD-DFT with DH, B97 family of functionals
   V. Asgeirsson, H. Jonsson                     : NEB implementation
   FAccTs GmbH                                   : IRC, NEB, NEB-TS, DLPNO-Multilevel, CI-OPT
                                                   MM, QMMM, 2- and 3-layer-ONIOM, Crystal-QMMM,
                                                   LR-CPCM, SF, NACMEs, symmetry and pop. for TD-DFT,
                                                   nearIR, NL-DFT gradient (VV10), updates on ESD,
                                                   ML-optimized integration grids
   S Lehtola, MJT Oliveira, MAL Marques          : LibXC Library
   Liviu Ungur et al                             : ANISO software


 Your calculation uses the libint2 library for the computation of 2-el integrals
 For citations please refer to: http://libint.valeyev.net

 Your ORCA version has been built with support for libXC version: 5.1.0
 For citations please refer to: https://tddft.org/programs/libxc/

 This ORCA versions uses:
   CBLAS   interface :  Fast vector & matrix operations
   LAPACKE interface :  Fast linear algebra routines
   SCALAPACK package :  Parallel linear algebra routines
   Shared memory     :  Shared parallel matrices
   BLAS/LAPACK       :  OpenBLAS 0.3.15  USE64BITINT DYNAMIC_ARCH NO_AFFINITY Haswell SINGLE_THREADED
        Core in use  :  Haswell
   Copyright (c) 2011-2014, The OpenBLAS Project




***************************************
The coordinates will be read from file: c2cl42.xyz
***************************************


Your calculation utilizes the geometrical counterpoise correction gCP
Please cite in your paper:
H.Kruse, S. Grimme J.Chem.Phys., 136, (2012), 154101 
   

Your calculation utilizes the atom-pairwise dispersion correction
with the Becke-Johnson damping scheme (D3BJ)
Cite in your paper:
S.Grimme, S.Ehrlich, L.Goerigk, J Comput Chem, (2011), 32, 1456–1465 
S.Grimme, J.Antony, S.Ehrlich and H.Krieg, J.Chem.Phys., 132, (2010), 154104 
   

Your calculation employs the composite approach PBEh-3c.
Please cite in your paper:
S. Grimme, J. G. Brandenburg, C. Bannwarth, A. Hansen J.Chem.Phys., 143, (2015), 054107 
   

================================================================================

----- Orbital basis set information -----
Your calculation utilizes the basis: def2-mSVP

----- AuxJ basis set information -----
Your calculation utilizes the auxiliary basis: def2/J
   F. Weigend, Phys. Chem. Chem. Phys. 8, 1057 (2006).

================================================================================
                                        WARNINGS
                       Please study these warnings very carefully!
================================================================================


INFO   : the flag for use of the SHARK integral package has been found!

================================================================================
                                       INPUT FILE
================================================================================
NAME = pbeh-3c.inp
|  1> ! PBEh-3c def2/J TightSCF DefGrid3
|  2> 
|  3> %maxcore 60000
|  4> 
|  5> %pal
|  6> nprocs 4
|  7> end
|  8> 
|  9> *xyzfile 1 1 c2cl42.xyz
| 10> 
| 11>                          ****END OF INPUT****
================================================================================

                       ****************************
                       * Single Point Calculation *
                       ****************************

---------------------------------
CARTESIAN COORDINATES (ANGSTROEM)
---------------------------------
  C     -0.251773    0.275687    0.000000
  C      1.076771    0.181421    0.000000
  Cl    -1.265423    1.599312    0.000000
  Cl    -1.098445   -1.367188    0.000000
  Cl     2.018568    1.576048    0.000000
  Cl     1.853305   -1.328278    0.000000
  H     -2.333003   -0.937002    0.000000

----------------------------
CARTESIAN COORDINATES (A.U.)
----------------------------
  NO LB      ZA    FRAG     MASS         X           Y           Z
   0 C     6.0000    0    12.011   -0.475783    0.520973    0.000000
   1 C     6.0000    0    12.011    2.034803    0.342836    0.000000
   2 Cl   17.0000    0    35.453   -2.391302    3.022263    0.000000
   3 Cl   17.0000    0    35.453   -2.075760   -2.583610    0.000000
   4 Cl   17.0000    0    35.453    3.814540    2.978298    0.000000
   5 Cl   17.0000    0    35.453    3.502239   -2.510083    0.000000
   6 H     1.0000    0     1.008   -4.408737   -1.770677    0.000000

--------------------------------
INTERNAL COORDINATES (ANGSTROEM)
--------------------------------
 C      0   0   0     0.000000000000     0.00000000     0.00000000
 C      1   0   0     1.331884877404     0.00000000     0.00000000
 Cl     1   2   0     1.667174285976   131.50392473     0.00000000
 Cl     1   2   3     1.848212404574   113.20619058   180.00000000
 Cl     2   1   3     1.682843853648   119.97272096     0.00000000
 Cl     2   1   3     1.697703498122   121.27819037   180.00000000
 H      4   1   2     1.307361628015    98.05371528   180.00000000

---------------------------
INTERNAL COORDINATES (A.U.)
---------------------------
 C      0   0   0     0.000000000000     0.00000000     0.00000000
 C      1   0   0     2.516897660204     0.00000000     0.00000000
 Cl     1   2   0     3.150502818011   131.50392473     0.00000000
 Cl     1   2   3     3.492615281961   113.20619058   180.00000000
 Cl     2   1   3     3.180114009548   119.97272096     0.00000000
 Cl     2   1   3     3.208194668051   121.27819037   180.00000000
 H      4   1   2     2.470555434946    98.05371528   180.00000000

---------------------
BASIS SET INFORMATION
---------------------
There are 3 groups of distinct atoms

 Group   1 Type C   : 8s4p1d contracted to 4s2p1d pattern {5111/31/1}
 Group   2 Type Cl  : 10s7p1d contracted to 4s3p1d pattern {5311/511/1}
 Group   3 Type H   : 4s contracted to 2s pattern {31}

Atom   0C    basis set group =>   1
Atom   1C    basis set group =>   1
Atom   2Cl   basis set group =>   2
Atom   3Cl   basis set group =>   2
Atom   4Cl   basis set group =>   2
Atom   5Cl   basis set group =>   2
Atom   6H    basis set group =>   3
---------------------------------
AUXILIARY/J BASIS SET INFORMATION
---------------------------------
There are 3 groups of distinct atoms

 Group   1 Type C   : 12s5p4d2f1g contracted to 6s4p3d1f1g pattern {711111/2111/211/2/1}
 Group   2 Type Cl  : 14s5p5d2f1g contracted to 8s4p3d1f1g pattern {71111111/2111/311/2/1}
 Group   3 Type H   : 5s2p1d contracted to 3s1p1d pattern {311/2/1}

Atom   0C    basis set group =>   1
Atom   1C    basis set group =>   1
Atom   2Cl   basis set group =>   2
Atom   3Cl   basis set group =>   2
Atom   4Cl   basis set group =>   2
Atom   5Cl   basis set group =>   2
Atom   6H    basis set group =>   3


           ************************************************************
           *        Program running with 4 parallel MPI-processes     *
           *              working on a common directory               *
           ************************************************************
------------------------------------------------------------------------------
                           ORCA GTO INTEGRAL CALCULATION
                           -- RI-GTO INTEGRALS CHOSEN --
------------------------------------------------------------------------------
------------------------------------------------------------------------------
                   ___                                                        
                  /   \      - P O W E R E D   B Y -                         
                 /     \                                                     
                 |  |  |   _    _      __       _____    __    __             
                 |  |  |  | |  | |    /  \     |  _  \  |  |  /  |          
                  \  \/   | |  | |   /    \    | | | |  |  | /  /          
                 / \  \   | |__| |  /  /\  \   | |_| |  |  |/  /          
                |  |  |   |  __  | /  /__\  \  |    /   |      \           
                |  |  |   | |  | | |   __   |  |    \   |  |\   \          
                \     /   | |  | | |  |  |  |  | |\  \  |  | \   \       
                 \___/    |_|  |_| |__|  |__|  |_| \__\ |__|  \__/        
                                                                              
                      - O R C A' S   B I G   F R I E N D -                    
                                      &                                       
                       - I N T E G R A L  F E E D E R -                       
                                                                              
 v1 FN, 2020, v2 2021                                                         
------------------------------------------------------------------------------


Reading SHARK input file pbeh-3c.SHARKINP.tmp ... ok
----------------------
SHARK INTEGRAL PACKAGE
----------------------

Number of atoms                             ...      7
Number of basis functions                   ...    104
Number of shells                            ...     48
Maximum angular momentum                    ...      2
Integral batch strategy                     ... SHARK/LIBINT Hybrid
RI-J (if used) integral strategy            ... SPLIT-RIJ (Revised 2003 algorithm where possible)
Printlevel                                  ...      1
Contraction scheme used                     ... SEGMENTED contraction
Coulomb Range Separation                    ... NOT USED
Exchange Range Separation                   ... NOT USED
Finite Nucleus Model                        ... NOT USED
Auxiliary Coulomb fitting basis             ... AVAILABLE
   # of basis functions in Aux-J            ...    313
   # of shells in Aux-J                     ...    103
   Maximum angular momentum in Aux-J        ...      4
Auxiliary J/K fitting basis                 ... NOT available
Auxiliary Correlation fitting basis         ... NOT available
Auxiliary 'external' fitting basis          ... NOT available
Integral threshold                          ...     2.500000e-11
Primitive cut-off                           ...     2.500000e-12
Primitive pair pre-selection threshold      ...     2.500000e-12

Calculating pre-screening integrals         ... done (  0.1 sec) Dimension = 48
Organizing shell pair data                  ... done (  0.2 sec)
Shell pair information
Total number of shell pairs                 ...      1176
Shell pairs after pre-screening             ...      1050
Total number of primitive shell pairs       ...      5374
Primitive shell pairs kept                  ...      3308
          la=0 lb=0:    293 shell pairs
          la=1 lb=0:    370 shell pairs
          la=1 lb=1:    126 shell pairs
          la=2 lb=0:    148 shell pairs
          la=2 lb=1:     92 shell pairs
          la=2 lb=2:     21 shell pairs

Calculating one electron integrals          ... done (  0.0 sec)
Calculating RI/J V-Matrix + Cholesky decomp.... done (  0.7 sec)
Calculating Nuclear repulsion               ... done (  0.0 sec) ENN=    510.831530698072 Eh

SHARK setup successfully completed in   2.2 seconds

Maximum memory used throughout the entire GTOINT-calculation: 9.9 MB


           ************************************************************
           *        Program running with 4 parallel MPI-processes     *
           *              working on a common directory               *
           ************************************************************
-------------------------------------------------------------------------------
                                 ORCA SCF
-------------------------------------------------------------------------------

------------
SCF SETTINGS
------------
Hamiltonian:
 Density Functional     Method          .... DFT(GTOs)
 Exchange Functional    Exchange        .... PBE
   PBE kappa parameter   XKappa         ....  1.024500
   PBE mue parameter    XMuePBE         ....  0.123457
 Correlation Functional Correlation     .... PBE
   PBE beta parameter  CBetaPBE         ....  0.030000
 LDA part of GGA corr.  LDAOpt          .... PW91-LDA
 Gradients option       PostSCFGGA      .... off
 Hybrid DFT is turned on
   Fraction HF Exchange ScalHFX         ....  0.420000
   Scaling of DF-GGA-X  ScalDFX         ....  0.580000
   Scaling of DF-GGA-C  ScalDFC         ....  1.000000
   Scaling of DF-LDA-C  ScalLDAC        ....  1.000000
   Perturbative correction              ....  0.000000
   Density functional embedding theory  .... OFF
 RI-approximation to the Coulomb term is turned on
   Number of AuxJ basis functions       .... 313
   RIJ-ON(X) (HFX calculated with O(N)) .... on
   Number of AuxJ basis functions       .... 313
   RIJ-COSX (HFX calculated with COS-X)).... on


General Settings:
 Integral files         IntName         .... pbeh-3c
 Hartree-Fock type      HFTyp           .... RHF
 Total Charge           Charge          ....    1
 Multiplicity           Mult            ....    1
 Number of Electrons    NEL             ....   80
 Basis Dimension        Dim             ....  104
 Nuclear Repulsion      ENuc            ....    510.8315306981 Eh

Convergence Acceleration:
 DIIS                   CNVDIIS         .... on
   Start iteration      DIISMaxIt       ....    12
   Startup error        DIISStart       ....  0.200000
   # of expansion vecs  DIISMaxEq       ....     5
   Bias factor          DIISBfac        ....   1.050
   Max. coefficient     DIISMaxC        ....  10.000
 Trust-Rad. Augm. Hess. CNVTRAH         .... auto
   Auto Start mean grad. ratio tolernc. ....  1.125000
   Auto Start start iteration           ....    20
   Auto Start num. interpolation iter.  ....    10
   Max. Number of Micro iterations      ....    16
   Max. Number of Macro iterations      .... Maxiter - #DIIS iter
   Number of Davidson start vectors     ....     2
   Converg. threshold I  (grad. norm)   ....   1.000e-05
   Converg. threshold II (energy diff.) ....   1.000e-08
   Grad. Scal. Fac. for Micro threshold ....   0.100
   Minimum threshold for Micro iter.    ....   0.010
   NR start threshold (gradient norm)   ....   0.001
   Initial trust radius                 ....   0.400
   Minimum AH scaling param. (alpha)    ....   1.000
   Maximum AH scaling param. (alpha)    .... 1000.000
   Orbital update algorithm             .... Taylor
   White noise on init. David. guess    .... on
   Maximum white noise                  ....   0.010
   Quad. conv. algorithm                .... NR
   COSX micro iterations for RIJONX calc.... off
 SOSCF                  CNVSOSCF        .... on
   Start iteration      SOSCFMaxIt      ....   150
   Startup grad/error   SOSCFStart      ....  0.003300
 Level Shifting         CNVShift        .... on
   Level shift para.    LevelShift      ....    0.2500
   Turn off err/grad.   ShiftErr        ....    0.0010
 Zerner damping         CNVZerner       .... off
 Static damping         CNVDamp         .... on
   Fraction old density DampFac         ....    0.7000
   Max. Damping (<1)    DampMax         ....    0.9800
   Min. Damping (>=0)   DampMin         ....    0.0000
   Turn off err/grad.   DampErr         ....    0.1000
 Fernandez-Rico         CNVRico         .... off

SCF Procedure:
 Maximum # iterations   MaxIter         ....   125
 SCF integral mode      SCFMode         .... Direct
   Integral package                     .... SHARK and LIBINT hybrid scheme
 Reset frequency        DirectResetFreq ....    20
 Integral Threshold     Thresh          ....  2.500e-11 Eh
 Primitive CutOff       TCut            ....  2.500e-12 Eh

Convergence Tolerance:
 Convergence Check Mode ConvCheckMode   .... Total+1el-Energy
 Convergence forced     ConvForced      .... 0
 Energy Change          TolE            ....  1.000e-08 Eh
 1-El. energy change                    ....  1.000e-05 Eh
 Orbital Gradient       TolG            ....  1.000e-05
 Orbital Rotation angle TolX            ....  1.000e-05
 DIIS Error             TolErr          ....  5.000e-07


Diagonalization of the overlap matrix:
Smallest eigenvalue                        ... 2.895e-03
Time for diagonalization                   ...    0.002 sec
Threshold for overlap eigenvalues          ... 1.000e-08
Number of eigenvalues below threshold      ... 0
Time for construction of square roots      ...    0.295 sec
Total time needed                          ...    0.345 sec

--------------------------------
INITIAL GUESS: MINIMAL BASIS EHT
--------------------------------
The minimal basis has 47 functions
EHT matrix was diagonalized
Basis set overlap was calculated now projecting the orbitals
Using GuessMode=FMatrix for the initial guess
C*T matrix was formed
Effective Fockian was calculated
Effective Fockian was diagonalized
Initial density was built
                      ------------------
                      INITIAL GUESS DONE
                      ------------------
-------------------
DFT GRID GENERATION
-------------------

General Integration Accuracy     IntAcc      ... 4.959
Radial Grid Type                 RadialGrid  ... OptM3 with GC (2021)
Angular Grid (max. ang.)         AngularGrid ... 6 (Lebedev-590)
Angular grid pruning method      GridPruning ... 4 (adaptive)
Weight generation scheme         WeightScheme... Becke
Basis function cutoff            BFCut       ... 1.0000e-11
Integration weight cutoff        WCut        ... 1.0000e-14
Angular grids for H and He will be reduced by one unit
Partially contracted basis set               ... off
Rotationally invariant grid construction     ... off

Total number of grid points                  ...   102602
Total number of batches                      ...     1606
Average number of points per batch           ...       63
Average number of grid points per atom       ...    14657
Time for grid setup =    2.600 sec

--------------------
COSX GRID GENERATION
--------------------

GRIDX 1
-------
General Integration Accuracy     IntAcc      ... 4.020
Radial Grid Type                 RadialGrid  ... OptM3 with GC (2021)
Angular Grid (max. ang.)         AngularGrid ... 2 (Lebedev-110)
Angular grid pruning method      GridPruning ... 4 (adaptive)
Weight generation scheme         WeightScheme... Becke
Basis function cutoff            BFCut       ... 1.0000e-11
Integration weight cutoff        WCut        ... 1.0000e-14
Angular grids for H and He will be reduced by one unit
Partially contracted basis set               ... on
Rotationally invariant grid construction     ... off

Total number of grid points                  ...    12340
Total number of batches                      ...      197
Average number of points per batch           ...       62
Average number of grid points per atom       ...     1763
UseSFitting                                  ... on

GRIDX 2
-------
General Integration Accuracy     IntAcc      ... 4.338
Radial Grid Type                 RadialGrid  ... OptM3 with GC (2021)
Angular Grid (max. ang.)         AngularGrid ... 3 (Lebedev-194)
Angular grid pruning method      GridPruning ... 4 (adaptive)
Weight generation scheme         WeightScheme... Becke
Basis function cutoff            BFCut       ... 1.0000e-11
Integration weight cutoff        WCut        ... 1.0000e-14
Angular grids for H and He will be reduced by one unit
Partially contracted basis set               ... on
Rotationally invariant grid construction     ... off

Total number of grid points                  ...    29770
Total number of batches                      ...      468
Average number of points per batch           ...       63
Average number of grid points per atom       ...     4253
UseSFitting                                  ... on

GRIDX 3
-------
General Integration Accuracy     IntAcc      ... 4.871
Radial Grid Type                 RadialGrid  ... OptM3 with GC (2021)
Angular Grid (max. ang.)         AngularGrid ... 4 (Lebedev-302)
Angular grid pruning method      GridPruning ... 4 (adaptive)
Weight generation scheme         WeightScheme... Becke
Basis function cutoff            BFCut       ... 1.0000e-11
Integration weight cutoff        WCut        ... 1.0000e-14
Angular grids for H and He will be reduced by one unit
Partially contracted basis set               ... on
Rotationally invariant grid construction     ... off

Total number of grid points                  ...    52427
Total number of batches                      ...      822
Average number of points per batch           ...       63
Average number of grid points per atom       ...     7490
UseSFitting                                  ... on

Time for X-Grid setup             =    3.897 sec

--------------
SCF ITERATIONS
--------------
ITER       Energy         Delta-E        Max-DP      RMS-DP      [F,P]     Damp
               ***  Starting incremental Fock matrix formation  ***
  0  -1913.8666436338   0.000000000000 0.22935232  0.00815510  0.3904423 0.7000
  1  -1914.2494470146  -0.382803380784 0.16468187  0.00554041  0.2744675 0.7000
                               ***Turning on DIIS***
  2  -1914.4813361240  -0.231889109484 0.11431470  0.00359720  0.1915548 0.7000
  3  -1914.6415737850  -0.160237660947 0.09337995  0.00272598  0.1332909 0.7000
  4  -1914.7559790275  -0.114405242534 0.23166142  0.00671052  0.0923935 0.0000
  5  -1915.0300652746  -0.274086247070 0.01840848  0.00055807  0.0058924 0.0000
  6  -1915.0305157457  -0.000450471156 0.00458880  0.00017882  0.0048349 0.0000
                      *** Initiating the SOSCF procedure ***
                           *** Shutting down DIIS ***
                      *** Re-Reading the Fockian *** 
                      *** Removing any level shift *** 
ITER      Energy       Delta-E        Grad      Rot      Max-DP    RMS-DP
  7  -1915.03064889  -0.0001331394  0.001543  0.001543  0.001388  0.000086
               *** Restarting incremental Fock matrix formation ***
  8  -1915.03067212  -0.0000232332  0.000622  0.001497  0.001385  0.000059
  9  -1915.03067749  -0.0000053729  0.000140  0.000636  0.000581  0.000029
 10  -1915.03067788  -0.0000003914  0.000110  0.000099  0.000234  0.000010
 11  -1915.03067807  -0.0000001888  0.000041  0.000120  0.000102  0.000005
 12  -1915.03067808  -0.0000000129  0.000031  0.000059  0.000063  0.000003
                  ***Gradient check signals convergence***
              ***Rediagonalizing the Fockian in SOSCF/NRSCF***

               *****************************************************
               *                     SUCCESS                       *
               *           SCF CONVERGED AFTER  13 CYCLES          *
               *****************************************************

Old exchange energy                            =    -50.623928637 Eh
New exchange energy                            =    -50.623932316 Eh
Exchange energy change after final integration =     -0.000003679 Eh
Total energy after final integration           =  -1915.030681774 Eh
Final COS-X integration done in                =     2.277 sec

----------------
TOTAL SCF ENERGY
----------------

Total Energy       :        -1915.03068177 Eh          -52110.63410 eV

Components:
Nuclear Repulsion  :          510.83153070 Eh           13900.43263 eV
Electronic Energy  :        -2425.86221247 Eh          -66011.06674 eV
One Electron Energy:        -3643.52086593 Eh          -99145.24321 eV
Two Electron Energy:         1217.65865345 Eh           33134.17647 eV
Max COSX asymmetry :            0.00000059 Eh               0.00002 eV

Virial components:
Potential Energy   :        -3827.39727517 Eh         -104148.77468 eV
Kinetic Energy     :         1912.36659340 Eh           52038.14057 eV
Virial Ratio       :            2.00139308


DFT components:
N(Alpha)           :       40.000000074326 electrons
N(Beta)            :       40.000000074326 electrons
N(Total)           :       80.000000148652 electrons
E(X)               :      -67.580533421139 Eh       
E(C)               :       -4.080151312966 Eh       
E(XC)              :      -71.660684734105 Eh       
DFET-embed. en.    :        0.000000000000 Eh       

---------------
SCF CONVERGENCE
---------------

  Last Energy change         ...   -1.0291e-08  Tolerance :   1.0000e-08
  Last MAX-Density change    ...    3.1086e-15  Tolerance :   1.0000e-07
  Last RMS-Density change    ...    1.0873e-16  Tolerance :   5.0000e-09
  Last Orbital Gradient      ...    2.0663e-06  Tolerance :   1.0000e-05
  Last Orbital Rotation      ...    3.2963e-06  Tolerance :   1.0000e-05

             **** THE GBW FILE WAS UPDATED (pbeh-3c.gbw) ****
             **** DENSITY pbeh-3c.scfp WAS UPDATED ****
             **** ENERGY FILE WAS UPDATED (pbeh-3c.en.tmp) ****
             **** THE GBW FILE WAS UPDATED (pbeh-3c.gbw) ****
             **** DENSITY pbeh-3c.scfp WAS UPDATED ****
----------------
ORBITAL ENERGIES
----------------

  NO   OCC          E(Eh)            E(eV) 
   0   2.0000    -102.652101     -2793.3057 
   1   2.0000    -102.546473     -2790.4314 
   2   2.0000    -102.526189     -2789.8794 
   3   2.0000    -102.513887     -2789.5447 
   4   2.0000     -10.794188      -293.7248 
   5   2.0000     -10.786928      -293.5272 
   6   2.0000     -10.119145      -275.3559 
   7   2.0000     -10.013656      -272.4854 
   8   2.0000      -9.993722      -271.9430 
   9   2.0000      -9.981570      -271.6123 
  10   2.0000      -7.805288      -212.3927 
  11   2.0000      -7.801888      -212.3002 
  12   2.0000      -7.795475      -212.1257 
  13   2.0000      -7.702031      -209.5829 
  14   2.0000      -7.692640      -209.3274 
  15   2.0000      -7.691806      -209.3047 
  16   2.0000      -7.681807      -209.0326 
  17   2.0000      -7.672469      -208.7785 
  18   2.0000      -7.672412      -208.7770 
  19   2.0000      -7.669941      -208.7097 
  20   2.0000      -7.660315      -208.4478 
  21   2.0000      -7.659877      -208.4359 
  22   2.0000      -1.302365       -35.4392 
  23   2.0000      -1.232205       -33.5300 
  24   2.0000      -1.192469       -32.4487 
  25   2.0000      -1.132241       -30.8098 
  26   2.0000      -1.033057       -28.1109 
  27   2.0000      -0.860680       -23.4203 
  28   2.0000      -0.825700       -22.4684 
  29   2.0000      -0.782563       -21.2946 
  30   2.0000      -0.749651       -20.3990 
  31   2.0000      -0.729878       -19.8610 
  32   2.0000      -0.698510       -19.0074 
  33   2.0000      -0.664622       -18.0853 
  34   2.0000      -0.620362       -16.8809 
  35   2.0000      -0.605146       -16.4669 
  36   2.0000      -0.591894       -16.1063 
  37   2.0000      -0.570621       -15.5274 
  38   2.0000      -0.554707       -15.0943 
  39   2.0000      -0.493655       -13.4330 
  40   0.0000      -0.252655        -6.8751 
  41   0.0000      -0.204964        -5.5774 
  42   0.0000      -0.204739        -5.5712 
  43   0.0000      -0.141689        -3.8556 
  44   0.0000      -0.116088        -3.1589 
  45   0.0000       0.018248         0.4966 
  46   0.0000       0.071524         1.9463 
  47   0.0000       0.194139         5.2828 
  48   0.0000       0.214426         5.8348 
  49   0.0000       0.244876         6.6634 
  50   0.0000       0.294062         8.0018 
  51   0.0000       0.307778         8.3751 
  52   0.0000       0.353384         9.6161 
  53   0.0000       0.381299        10.3757 
  54   0.0000       0.388051        10.5594 
  55   0.0000       0.425020        11.5654 
  56   0.0000       0.476096        12.9552 
  57   0.0000       0.495439        13.4816 
  58   0.0000       0.499767        13.5994 
  59   0.0000       0.504702        13.7336 
  60   0.0000       0.532250        14.4833 
  61   0.0000       0.534602        14.5472 
  62   0.0000       0.537379        14.6228 
  63   0.0000       0.564579        15.3630 
  64   0.0000       0.575340        15.6558 
  65   0.0000       0.593004        16.1365 
  66   0.0000       0.593681        16.1549 
  67   0.0000       0.600881        16.3508 
  68   0.0000       0.618726        16.8364 
  69   0.0000       0.629596        17.1322 
  70   0.0000       0.647644        17.6233 
  71   0.0000       0.656772        17.8717 
  72   0.0000       0.678991        18.4763 
  73   0.0000       0.688090        18.7239 
  74   0.0000       0.693722        18.8771 
  75   0.0000       0.707350        19.2480 
  76   0.0000       0.714806        19.4509 
  77   0.0000       0.760978        20.7073 
  78   0.0000       0.780892        21.2491 
  79   0.0000       0.790867        21.5206 
  80   0.0000       0.851017        23.1574 
  81   0.0000       0.897289        24.4165 
  82   0.0000       0.922389        25.0995 
  83   0.0000       0.945386        25.7253 
  84   0.0000       0.954275        25.9671 
  85   0.0000       0.999847        27.2072 
  86   0.0000       1.041732        28.3470 
  87   0.0000       1.099254        29.9122 
  88   0.0000       1.107864        30.1465 
  89   0.0000       1.176208        32.0062 
  90   0.0000       1.325845        36.0781 
  91   0.0000       1.357461        36.9384 
  92   0.0000       1.400025        38.0966 
  93   0.0000       1.483323        40.3633 
  94   0.0000       1.777341        48.3639 
  95   0.0000       1.787537        48.6414 
  96   0.0000       1.814238        49.3679 
  97   0.0000       1.899784        51.6958 
  98   0.0000       2.152476        58.5718 
  99   0.0000       2.169060        59.0231 
 100   0.0000       2.429176        66.1012 
 101   0.0000       2.510991        68.3275 
 102   0.0000      13.037818       354.7771 
 103   0.0000      13.807749       375.7279 

                    ********************************
                    * MULLIKEN POPULATION ANALYSIS *
                    ********************************

-----------------------
MULLIKEN ATOMIC CHARGES
-----------------------
   0 C :   -0.022971
   1 C :    0.022482
   2 Cl:    0.152343
   3 Cl:    0.183713
   4 Cl:    0.140760
   5 Cl:    0.107205
   6 H :    0.416469
Sum of atomic charges:    1.0000000

--------------------------------
MULLIKEN REDUCED ORBITAL CHARGES
--------------------------------
  0 C s       :     3.203952  s :     3.203952
      pz      :     1.254173  p :     2.758982
      px      :     0.836347
      py      :     0.668461
      dz2     :     0.005171  d :     0.060037
      dxz     :     0.011105
      dyz     :     0.006472
      dx2y2   :     0.017170
      dxy     :     0.020119
  1 C s       :     3.223931  s :     3.223931
      pz      :     1.011045  p :     2.679609
      px      :     0.847451
      py      :     0.821114
      dz2     :     0.005153  d :     0.073978
      dxz     :     0.015289
      dyz     :     0.009729
      dx2y2   :     0.023144
      dxy     :     0.020663
  2 Cls       :     5.944999  s :     5.944999
      pz      :     3.905970  p :    10.849872
      px      :     3.587934
      py      :     3.355967
      dz2     :     0.007727  d :     0.052786
      dxz     :     0.005241
      dyz     :     0.009057
      dx2y2   :     0.008516
      dxy     :     0.022244
  3 Cls       :     5.918871  s :     5.918871
      pz      :     3.974893  p :    10.828431
      px      :     3.332676
      py      :     3.520862
      dz2     :     0.011072  d :     0.068986
      dxz     :     0.002949
      dyz     :     0.007774
      dx2y2   :     0.026023
      dxy     :     0.021168
  4 Cls       :     5.945059  s :     5.945059
      pz      :     3.875490  p :    10.866734
      px      :     3.642499
      py      :     3.348745
      dz2     :     0.007346  d :     0.047448
      dxz     :     0.003780
      dyz     :     0.006853
      dx2y2   :     0.009018
      dxy     :     0.020450
  5 Cls       :     5.944349  s :     5.944349
      pz      :     3.889831  p :    10.901950
      px      :     3.741919
      py      :     3.270200
      dz2     :     0.007152  d :     0.046496
      dxz     :     0.002814
      dyz     :     0.007533
      dx2y2   :     0.011949
      dxy     :     0.017049
  6 H s       :     0.583531  s :     0.583531


                     *******************************
                     * LOEWDIN POPULATION ANALYSIS *
                     *******************************

----------------------
LOEWDIN ATOMIC CHARGES
----------------------
   0 C :   -0.283003
   1 C :   -0.251107
   2 Cl:    0.281355
   3 Cl:    0.476899
   4 Cl:    0.271464
   5 Cl:    0.233352
   6 H :    0.271040

-------------------------------
LOEWDIN REDUCED ORBITAL CHARGES
-------------------------------
  0 C s       :     2.977225  s :     2.977225
      pz      :     1.254454  p :     3.174899
      px      :     1.064020
      py      :     0.856426
      dz2     :     0.009399  d :     0.130879
      dxz     :     0.021396
      dyz     :     0.012094
      dx2y2   :     0.042942
      dxy     :     0.045048
  1 C s       :     2.952925  s :     2.952925
      pz      :     1.036989  p :     3.140154
      px      :     1.100858
      py      :     1.002307
      dz2     :     0.009573  d :     0.158028
      dxz     :     0.029525
      dyz     :     0.017420
      dx2y2   :     0.056990
      dxy     :     0.044519
  2 Cls       :     5.748553  s :     5.748553
      pz      :     3.886950  p :    10.905556
      px      :     3.609262
      py      :     3.409343
      dz2     :     0.009542  d :     0.064536
      dxz     :     0.006377
      dyz     :     0.010735
      dx2y2   :     0.009554
      dxy     :     0.028328
  3 Cls       :     5.729876  s :     5.729876
      pz      :     3.960220  p :    10.720108
      px      :     3.260912
      py      :     3.498976
      dz2     :     0.010731  d :     0.073116
      dxz     :     0.003314
      dyz     :     0.008594
      dx2y2   :     0.028519
      dxy     :     0.021959
  4 Cls       :     5.756732  s :     5.756732
      pz      :     3.857614  p :    10.914826
      px      :     3.652176
      py      :     3.405035
      dz2     :     0.009087  d :     0.056978
      dxz     :     0.004130
      dyz     :     0.007420
      dx2y2   :     0.010374
      dxy     :     0.025967
  5 Cls       :     5.764827  s :     5.764827
      pz      :     3.871622  p :    10.946566
      px      :     3.740528
      py      :     3.334415
      dz2     :     0.008691  d :     0.055256
      dxz     :     0.002971
      dyz     :     0.008173
      dx2y2   :     0.014351
      dxy     :     0.021070
  6 H s       :     0.728960  s :     0.728960


                      *****************************
                      * MAYER POPULATION ANALYSIS *
                      *****************************

  NA   - Mulliken gross atomic population
  ZA   - Total nuclear charge
  QA   - Mulliken gross atomic charge
  VA   - Mayer's total valence
  BVA  - Mayer's bonded valence
  FA   - Mayer's free valence

  ATOM       NA         ZA         QA         VA         BVA        FA
  0 C      6.0230     6.0000    -0.0230     3.6011     3.6011    -0.0000
  1 C      5.9775     6.0000     0.0225     3.9275     3.9275    -0.0000
  2 Cl    16.8477    17.0000     0.1523     1.3954     1.3954     0.0000
  3 Cl    16.8163    17.0000     0.1837     1.6635     1.6635    -0.0000
  4 Cl    16.8592    17.0000     0.1408     1.3583     1.3583     0.0000
  5 Cl    16.8928    17.0000     0.1072     1.3237     1.3237    -0.0000
  6 H      0.5835     1.0000     0.4165     0.8144     0.8144    -0.0000

  Mayer bond orders larger than 0.100000
B(  0-C ,  1-C ) :   1.4912 B(  0-C ,  2-Cl) :   1.2648 B(  0-C ,  3-Cl) :   0.7930 
B(  1-C ,  4-Cl) :   1.2417 B(  1-C ,  5-Cl) :   1.1834 B(  3-Cl,  6-H ) :   0.7794 


-------
TIMINGS
-------

Total SCF time: 0 days 0 hours 1 min 15 sec 

Total time                  ....      75.807 sec
Sum of individual times     ....      69.030 sec  ( 91.1%)

Fock matrix formation       ....      55.041 sec  ( 72.6%)
  Split-RI-J                ....       7.172 sec  ( 13.0% of F)
  Chain of spheres X        ....      18.066 sec  ( 32.8% of F)
  XC integration            ....      15.257 sec  ( 27.7% of F)
    Basis function eval.    ....       1.860 sec  ( 12.2% of XC)
    Density eval.           ....       1.311 sec  (  8.6% of XC)
    XC-Functional eval.     ....       1.137 sec  (  7.5% of XC)
    XC-Potential eval.      ....       0.901 sec  (  5.9% of XC)
Diagonalization             ....       0.704 sec  (  0.9%)
Density matrix formation    ....       0.101 sec  (  0.1%)
Population analysis         ....       0.773 sec  (  1.0%)
Initial guess               ....       0.008 sec  (  0.0%)
Orbital Transformation      ....       0.000 sec  (  0.0%)
Orbital Orthonormalization  ....       0.000 sec  (  0.0%)
DIIS solution               ....       4.423 sec  (  5.8%)
SOSCF solution              ....       1.482 sec  (  2.0%)
Grid generation             ....       6.497 sec  (  8.6%)

Maximum memory used throughout the entire SCF-calculation: 49.1 MB


-------------------------------------------------------------------------------
                          DFT DISPERSION CORRECTION                            
                                                                               
                              DFTD3 V3.1  Rev 1                                
                          USING Becke-Johnson damping                          
-------------------------------------------------------------------------------
The PBEh-3c composite method is recognized
Using three-body term ABC
Active option DFTDOPT                   ...         4   

molecular C6(AA) [au] = 2476.874946 


            DFT-D V3
 parameters
 s6 scaling factor         :     1.0000 
 a1 scaling factor         :     0.4860 
 s8 scaling factor         :     0.0000 
 a2 scaling factor         :     4.5000 
 Damping factor alpha9(ATM):    16.0000 
 ad hoc parameters k1-k3   :    16.0000     1.3333    -4.0000 

 Edisp/kcal,au: -3.065552370749  -0.004885268144 
 E6   /kcal   :  -3.067476946 
 E8   /kcal   :  -0.000000000 
 E6(ABC)      :   0.001924575 
 % E8         :   0.000000000 
 % E6(ABC)    :  -0.062780695 

-------------------------   ----------------
Dispersion correction           -0.004885268
-------------------------   ----------------

------------------   -----------------
gCP correction             0.008358443
------------------   -----------------

-------------------------   --------------------
FINAL SINGLE POINT ENERGY     -1915.027208598770
-------------------------   --------------------


                            ***************************************
                            *     ORCA property calculations      *
                            ***************************************

                                    ---------------------
                                    Active property flags
                                    ---------------------
   (+) Dipole Moment


------------------------------------------------------------------------------
                       ORCA ELECTRIC PROPERTIES CALCULATION
------------------------------------------------------------------------------

Dipole Moment Calculation                       ... on
Quadrupole Moment Calculation                   ... off
Polarizability Calculation                      ... off
GBWName                                         ... pbeh-3c.gbw
Electron density                                ... pbeh-3c.scfp
The origin for moment calculation is the CENTER OF MASS  = ( 0.691147,  0.244192  0.000000)

-------------
DIPOLE MOMENT
-------------
                                X             Y             Z
Electronic contribution:      0.56373      -0.02017       0.00000
Nuclear contribution   :     -2.59236      -0.95066       0.00000
                        -----------------------------------------
Total Dipole Moment    :     -2.02863      -0.97083       0.00000
                        -----------------------------------------
Magnitude (a.u.)       :      2.24896
Magnitude (Debye)      :      5.71640



--------------------
Rotational spectrum 
--------------------
 
Rotational constants in cm-1:     0.054941     0.046341     0.025138 
Rotational constants in MHz :  1647.103433  1389.265088   753.618436 

 Dipole components along the rotational axes: 
x,y,z [a.u.] :     2.074534    -0.868408     0.000000 
x,y,z [Debye]:     5.273047    -2.207318     0.000000 

 

Timings for individual modules:

Sum of individual times         ...       79.459 sec (=   1.324 min)
GTO integral calculation        ...        2.888 sec (=   0.048 min)   3.6 %
SCF iterations                  ...       76.571 sec (=   1.276 min)  96.4 %
                             ****ORCA TERMINATED NORMALLY****
TOTAL RUN TIME: 0 days 0 hours 1 minutes 21 seconds 537 msec
