
                                 *****************
                                 * O   R   C   A *
                                 *****************

                                            #,                                       
                                            ###                                      
                                            ####                                     
                                            #####                                    
                                            ######                                   
                                           ########,                                 
                                     ,,################,,,,,                         
                               ,,#################################,,                 
                          ,,##########################################,,             
                       ,#########################################, ''#####,          
                    ,#############################################,,   '####,        
                  ,##################################################,,,,####,       
                ,###########''''           ''''###############################       
              ,#####''   ,,,,##########,,,,          '''####'''          '####       
            ,##' ,,,,###########################,,,                        '##       
           ' ,,###''''                  '''############,,,                           
         ,,##''                                '''############,,,,        ,,,,,,###''
      ,#''                                            '''#######################'''  
     '                                                          ''''####''''         
             ,#######,   #######,   ,#######,      ##                                
            ,#'     '#,  ##    ##  ,#'     '#,    #''#        ######   ,####,        
            ##       ##  ##   ,#'  ##            #'  '#       #        #'  '#        
            ##       ##  #######   ##           ,######,      #####,   #    #        
            '#,     ,#'  ##    ##  '#,     ,#' ,#      #,         ##   #,  ,#        
             '#######'   ##     ##  '#######'  #'      '#     #####' # '####'        



                  #######################################################
                  #                        -***-                        #
                  #          Department of theory and spectroscopy      #
                  #    Directorship and core code : Frank Neese         #
                  #        Max Planck Institute fuer Kohlenforschung    #
                  #                Kaiser Wilhelm Platz 1               #
                  #                 D-45470 Muelheim/Ruhr               #
                  #                      Germany                        #
                  #                                                     #
                  #                  All rights reserved                #
                  #                        -***-                        #
                  #######################################################


                         Program Version 5.0.3 -  RELEASE  -


 With contributions from (in alphabetic order):
   Daniel Aravena         : Magnetic Suceptibility
   Michael Atanasov       : Ab Initio Ligand Field Theory (pilot matlab implementation)
   Alexander A. Auer      : GIAO ZORA, VPT2 properties, NMR spectrum
   Ute Becker             : Parallelization
   Giovanni Bistoni       : ED, misc. LED, open-shell LED, HFLD
   Martin Brehm           : Molecular dynamics
   Dmytro Bykov           : SCF Hessian
   Vijay G. Chilkuri      : MRCI spin determinant printing, contributions to CSF-ICE
   Dipayan Datta          : RHF DLPNO-CCSD density
   Achintya Kumar Dutta   : EOM-CC, STEOM-CC
   Dmitry Ganyushin       : Spin-Orbit,Spin-Spin,Magnetic field MRCI
   Miquel Garcia          : C-PCM and meta-GGA Hessian, CC/C-PCM, Gaussian charge scheme
   Yang Guo               : DLPNO-NEVPT2, F12-NEVPT2, CIM, IAO-localization
   Andreas Hansen         : Spin unrestricted coupled pair/coupled cluster methods
   Benjamin Helmich-Paris : MC-RPA, TRAH-SCF, COSX integrals
   Lee Huntington         : MR-EOM, pCC
   Robert Izsak           : Overlap fitted RIJCOSX, COSX-SCS-MP3, EOM
   Marcus Kettner         : VPT2
   Christian Kollmar      : KDIIS, OOCD, Brueckner-CCSD(T), CCSD density, CASPT2, CASPT2-K
   Simone Kossmann        : Meta GGA functionals, TD-DFT gradient, OOMP2, MP2 Hessian
   Martin Krupicka        : Initial AUTO-CI
   Lucas Lang             : DCDCAS
   Marvin Lechner         : AUTO-CI (C++ implementation), FIC-MRCC
   Dagmar Lenk            : GEPOL surface, SMD
   Dimitrios Liakos       : Extrapolation schemes; Compound Job, initial MDCI parallelization
   Dimitrios Manganas     : Further ROCIS development; embedding schemes
   Dimitrios Pantazis     : SARC Basis sets
   Anastasios Papadopoulos: AUTO-CI, single reference methods and gradients
   Taras Petrenko         : DFT Hessian,TD-DFT gradient, ASA, ECA, R-Raman, ABS, FL, XAS/XES, NRVS
   Peter Pinski           : DLPNO-MP2, DLPNO-MP2 Gradient
   Christoph Reimann      : Effective Core Potentials
   Marius Retegan         : Local ZFS, SOC
   Christoph Riplinger    : Optimizer, TS searches, QM/MM, DLPNO-CCSD(T), (RO)-DLPNO pert. Triples
   Tobias Risthaus        : Range-separated hybrids, TD-DFT gradient, RPA, STAB
   Michael Roemelt        : Original ROCIS implementation
   Masaaki Saitow         : Open-shell DLPNO-CCSD energy and density
   Barbara Sandhoefer     : DKH picture change effects
   Avijit Sen             : IP-ROCIS
   Kantharuban Sivalingam : CASSCF convergence, NEVPT2, FIC-MRCI
   Bernardo de Souza      : ESD, SOC TD-DFT
   Georgi Stoychev        : AutoAux, RI-MP2 NMR, DLPNO-MP2 response
   Willem Van den Heuvel  : Paramagnetic NMR
   Boris Wezisla          : Elementary symmetry handling
   Frank Wennmohs         : Technical directorship


 We gratefully acknowledge several colleagues who have allowed us to
 interface, adapt or use parts of their codes:
   Stefan Grimme, W. Hujo, H. Kruse, P. Pracht,  : VdW corrections, initial TS optimization,
                  C. Bannwarth, S. Ehlert          DFT functionals, gCP, sTDA/sTD-DF
   Ed Valeev, F. Pavosevic, A. Kumar             : LibInt (2-el integral package), F12 methods
   Garnet Chan, S. Sharma, J. Yang, R. Olivares  : DMRG
   Ulf Ekstrom                                   : XCFun DFT Library
   Mihaly Kallay                                 : mrcc  (arbitrary order and MRCC methods)
   Jiri Pittner, Ondrej Demel                    : Mk-CCSD
   Frank Weinhold                                : gennbo (NPA and NBO analysis)
   Christopher J. Cramer and Donald G. Truhlar   : smd solvation model
   Lars Goerigk                                  : TD-DFT with DH, B97 family of functionals
   V. Asgeirsson, H. Jonsson                     : NEB implementation
   FAccTs GmbH                                   : IRC, NEB, NEB-TS, DLPNO-Multilevel, CI-OPT
                                                   MM, QMMM, 2- and 3-layer-ONIOM, Crystal-QMMM,
                                                   LR-CPCM, SF, NACMEs, symmetry and pop. for TD-DFT,
                                                   nearIR, NL-DFT gradient (VV10), updates on ESD,
                                                   ML-optimized integration grids
   S Lehtola, MJT Oliveira, MAL Marques          : LibXC Library
   Liviu Ungur et al                             : ANISO software


 Your calculation uses the libint2 library for the computation of 2-el integrals
 For citations please refer to: http://libint.valeyev.net

 Your ORCA version has been built with support for libXC version: 5.1.0
 For citations please refer to: https://tddft.org/programs/libxc/

 This ORCA versions uses:
   CBLAS   interface :  Fast vector & matrix operations
   LAPACKE interface :  Fast linear algebra routines
   SCALAPACK package :  Parallel linear algebra routines
   Shared memory     :  Shared parallel matrices
   BLAS/LAPACK       :  OpenBLAS 0.3.15  USE64BITINT DYNAMIC_ARCH NO_AFFINITY Haswell SINGLE_THREADED
        Core in use  :  Haswell
   Copyright (c) 2011-2014, The OpenBLAS Project




***************************************
The coordinates will be read from file: c2h3f.xyz
***************************************


Your calculation utilizes the geometrical counterpoise correction gCP
Please cite in your paper:
H.Kruse, S. Grimme J.Chem.Phys., 136, (2012), 154101 
   

Your calculation utilizes the atom-pairwise dispersion correction
with the Becke-Johnson damping scheme (D3BJ)
Cite in your paper:
S.Grimme, S.Ehrlich, L.Goerigk, J Comput Chem, (2011), 32, 1456–1465 
S.Grimme, J.Antony, S.Ehrlich and H.Krieg, J.Chem.Phys., 132, (2010), 154104 
   

Your calculation employs the composite approach PBEh-3c.
Please cite in your paper:
S. Grimme, J. G. Brandenburg, C. Bannwarth, A. Hansen J.Chem.Phys., 143, (2015), 054107 
   

================================================================================

----- Orbital basis set information -----
Your calculation utilizes the basis: def2-mSVP

----- AuxJ basis set information -----
Your calculation utilizes the auxiliary basis: def2/J
   F. Weigend, Phys. Chem. Chem. Phys. 8, 1057 (2006).

================================================================================
                                        WARNINGS
                       Please study these warnings very carefully!
================================================================================


INFO   : the flag for use of the SHARK integral package has been found!

================================================================================
                                       INPUT FILE
================================================================================
NAME = pbeh-3c.inp
|  1> ! PBEh-3c def2/J TightSCF DefGrid3
|  2> 
|  3> %maxcore 60000
|  4> 
|  5> %pal
|  6> nprocs 4
|  7> end
|  8> 
|  9> *xyzfile 0 1 c2h3f.xyz
| 10> 
| 11>                          ****END OF INPUT****
================================================================================

                       ****************************
                       * Single Point Calculation *
                       ****************************

---------------------------------
CARTESIAN COORDINATES (ANGSTROEM)
---------------------------------
  C     -1.267363    0.218011    0.000000
  C     -0.122898   -0.450169    0.000000
  H     -1.288100    1.297870    0.000000
  H     -2.194353   -0.334152    0.000000
  H     -0.018240   -1.525932    0.000000
  F      1.064656    0.176599    0.000000

----------------------------
CARTESIAN COORDINATES (A.U.)
----------------------------
  NO LB      ZA    FRAG     MASS         X           Y           Z
   0 C     6.0000    0    12.011   -2.394968    0.411982    0.000000
   1 C     6.0000    0    12.011   -0.232244   -0.850695    0.000000
   2 H     1.0000    0     1.008   -2.434156    2.452618    0.000000
   3 H     1.0000    0     1.008   -4.146726   -0.631456    0.000000
   4 H     1.0000    0     1.008   -0.034468   -2.883594    0.000000
   5 F     9.0000    0    18.998    2.011909    0.333724    0.000000

--------------------------------
INTERNAL COORDINATES (ANGSTROEM)
--------------------------------
 C      0   0   0     0.000000000000     0.00000000     0.00000000
 C      1   0   0     1.325240786284     0.00000000     0.00000000
 H      1   2   0     1.080057498313   121.37809230     0.00000000
 H      1   2   3     1.078978920813   118.94185513   180.00000000
 H      2   1   3     1.080842490200   125.83461455   180.00000000
 F      2   1   3     1.342804402938   121.89787321     0.00000000

---------------------------
INTERNAL COORDINATES (A.U.)
---------------------------
 C      0   0   0     0.000000000000     0.00000000     0.00000000
 C      1   0   0     2.504342147580     0.00000000     0.00000000
 H      1   2   0     2.041012880699   121.37809230     0.00000000
 H      1   2   3     2.038974664611   118.94185513   180.00000000
 H      2   1   3     2.042496300384   125.83461455   180.00000000
 F      2   1   3     2.537532572976   121.89787321     0.00000000

---------------------
BASIS SET INFORMATION
---------------------
There are 3 groups of distinct atoms

 Group   1 Type C   : 8s4p1d contracted to 4s2p1d pattern {5111/31/1}
 Group   2 Type H   : 4s contracted to 2s pattern {31}
 Group   3 Type F   : 8s4p1d contracted to 4s2p1d pattern {5111/31/1}

Atom   0C    basis set group =>   1
Atom   1C    basis set group =>   1
Atom   2H    basis set group =>   2
Atom   3H    basis set group =>   2
Atom   4H    basis set group =>   2
Atom   5F    basis set group =>   3
---------------------------------
AUXILIARY/J BASIS SET INFORMATION
---------------------------------
There are 3 groups of distinct atoms

 Group   1 Type C   : 12s5p4d2f1g contracted to 6s4p3d1f1g pattern {711111/2111/211/2/1}
 Group   2 Type H   : 5s2p1d contracted to 3s1p1d pattern {311/2/1}
 Group   3 Type F   : 12s5p4d2f1g contracted to 6s4p3d1f1g pattern {711111/2111/211/2/1}

Atom   0C    basis set group =>   1
Atom   1C    basis set group =>   1
Atom   2H    basis set group =>   2
Atom   3H    basis set group =>   2
Atom   4H    basis set group =>   2
Atom   5F    basis set group =>   3


           ************************************************************
           *        Program running with 4 parallel MPI-processes     *
           *              working on a common directory               *
           ************************************************************
------------------------------------------------------------------------------
                           ORCA GTO INTEGRAL CALCULATION
                           -- RI-GTO INTEGRALS CHOSEN --
------------------------------------------------------------------------------
------------------------------------------------------------------------------
                   ___                                                        
                  /   \      - P O W E R E D   B Y -                         
                 /     \                                                     
                 |  |  |   _    _      __       _____    __    __             
                 |  |  |  | |  | |    /  \     |  _  \  |  |  /  |          
                  \  \/   | |  | |   /    \    | | | |  |  | /  /          
                 / \  \   | |__| |  /  /\  \   | |_| |  |  |/  /          
                |  |  |   |  __  | /  /__\  \  |    /   |      \           
                |  |  |   | |  | | |   __   |  |    \   |  |\   \          
                \     /   | |  | | |  |  |  |  | |\  \  |  | \   \       
                 \___/    |_|  |_| |__|  |__|  |_| \__\ |__|  \__/        
                                                                              
                      - O R C A' S   B I G   F R I E N D -                    
                                      &                                       
                       - I N T E G R A L  F E E D E R -                       
                                                                              
 v1 FN, 2020, v2 2021                                                         
------------------------------------------------------------------------------


Reading SHARK input file pbeh-3c.SHARKINP.tmp ... ok
----------------------
SHARK INTEGRAL PACKAGE
----------------------

Number of atoms                             ...      6
Number of basis functions                   ...     51
Number of shells                            ...     27
Maximum angular momentum                    ...      2
Integral batch strategy                     ... SHARK/LIBINT Hybrid
RI-J (if used) integral strategy            ... SPLIT-RIJ (Revised 2003 algorithm where possible)
Printlevel                                  ...      1
Contraction scheme used                     ... SEGMENTED contraction
Coulomb Range Separation                    ... NOT USED
Exchange Range Separation                   ... NOT USED
Finite Nucleus Model                        ... NOT USED
Auxiliary Coulomb fitting basis             ... AVAILABLE
   # of basis functions in Aux-J            ...    180
   # of shells in Aux-J                     ...     60
   Maximum angular momentum in Aux-J        ...      4
Auxiliary J/K fitting basis                 ... NOT available
Auxiliary Correlation fitting basis         ... NOT available
Auxiliary 'external' fitting basis          ... NOT available
Integral threshold                          ...     2.500000e-11
Primitive cut-off                           ...     2.500000e-12
Primitive pair pre-selection threshold      ...     2.500000e-12

Calculating pre-screening integrals         ... done (  0.0 sec) Dimension = 27
Organizing shell pair data                  ... done (  0.1 sec)
Shell pair information
Total number of shell pairs                 ...       378
Shell pairs after pre-screening             ...       371
Total number of primitive shell pairs       ...      1374
Primitive shell pairs kept                  ...      1112
          la=0 lb=0:    164 shell pairs
          la=1 lb=0:    108 shell pairs
          la=1 lb=1:     21 shell pairs
          la=2 lb=0:     54 shell pairs
          la=2 lb=1:     18 shell pairs
          la=2 lb=2:      6 shell pairs

Calculating one electron integrals          ... done (  0.0 sec)
Calculating RI/J V-Matrix + Cholesky decomp.... done (  0.2 sec)
Calculating Nuclear repulsion               ... done (  0.0 sec) ENN=     67.548118271352 Eh

SHARK setup successfully completed in   0.7 seconds

Maximum memory used throughout the entire GTOINT-calculation: 9.1 MB


           ************************************************************
           *        Program running with 4 parallel MPI-processes     *
           *              working on a common directory               *
           ************************************************************
-------------------------------------------------------------------------------
                                 ORCA SCF
-------------------------------------------------------------------------------

------------
SCF SETTINGS
------------
Hamiltonian:
 Density Functional     Method          .... DFT(GTOs)
 Exchange Functional    Exchange        .... PBE
   PBE kappa parameter   XKappa         ....  1.024500
   PBE mue parameter    XMuePBE         ....  0.123457
 Correlation Functional Correlation     .... PBE
   PBE beta parameter  CBetaPBE         ....  0.030000
 LDA part of GGA corr.  LDAOpt          .... PW91-LDA
 Gradients option       PostSCFGGA      .... off
 Hybrid DFT is turned on
   Fraction HF Exchange ScalHFX         ....  0.420000
   Scaling of DF-GGA-X  ScalDFX         ....  0.580000
   Scaling of DF-GGA-C  ScalDFC         ....  1.000000
   Scaling of DF-LDA-C  ScalLDAC        ....  1.000000
   Perturbative correction              ....  0.000000
   Density functional embedding theory  .... OFF
 RI-approximation to the Coulomb term is turned on
   Number of AuxJ basis functions       .... 180
   RIJ-ON(X) (HFX calculated with O(N)) .... on
   Number of AuxJ basis functions       .... 180
   RIJ-COSX (HFX calculated with COS-X)).... on


General Settings:
 Integral files         IntName         .... pbeh-3c
 Hartree-Fock type      HFTyp           .... RHF
 Total Charge           Charge          ....    0
 Multiplicity           Mult            ....    1
 Number of Electrons    NEL             ....   24
 Basis Dimension        Dim             ....   51
 Nuclear Repulsion      ENuc            ....     67.5481182714 Eh

Convergence Acceleration:
 DIIS                   CNVDIIS         .... on
   Start iteration      DIISMaxIt       ....    12
   Startup error        DIISStart       ....  0.200000
   # of expansion vecs  DIISMaxEq       ....     5
   Bias factor          DIISBfac        ....   1.050
   Max. coefficient     DIISMaxC        ....  10.000
 Trust-Rad. Augm. Hess. CNVTRAH         .... auto
   Auto Start mean grad. ratio tolernc. ....  1.125000
   Auto Start start iteration           ....    20
   Auto Start num. interpolation iter.  ....    10
   Max. Number of Micro iterations      ....    16
   Max. Number of Macro iterations      .... Maxiter - #DIIS iter
   Number of Davidson start vectors     ....     2
   Converg. threshold I  (grad. norm)   ....   1.000e-05
   Converg. threshold II (energy diff.) ....   1.000e-08
   Grad. Scal. Fac. for Micro threshold ....   0.100
   Minimum threshold for Micro iter.    ....   0.010
   NR start threshold (gradient norm)   ....   0.001
   Initial trust radius                 ....   0.400
   Minimum AH scaling param. (alpha)    ....   1.000
   Maximum AH scaling param. (alpha)    .... 1000.000
   Orbital update algorithm             .... Taylor
   White noise on init. David. guess    .... on
   Maximum white noise                  ....   0.010
   Quad. conv. algorithm                .... NR
   COSX micro iterations for RIJONX calc.... off
 SOSCF                  CNVSOSCF        .... on
   Start iteration      SOSCFMaxIt      ....   150
   Startup grad/error   SOSCFStart      ....  0.003300
 Level Shifting         CNVShift        .... on
   Level shift para.    LevelShift      ....    0.2500
   Turn off err/grad.   ShiftErr        ....    0.0010
 Zerner damping         CNVZerner       .... off
 Static damping         CNVDamp         .... on
   Fraction old density DampFac         ....    0.7000
   Max. Damping (<1)    DampMax         ....    0.9800
   Min. Damping (>=0)   DampMin         ....    0.0000
   Turn off err/grad.   DampErr         ....    0.1000
 Fernandez-Rico         CNVRico         .... off

SCF Procedure:
 Maximum # iterations   MaxIter         ....   125
 SCF integral mode      SCFMode         .... Direct
   Integral package                     .... SHARK and LIBINT hybrid scheme
 Reset frequency        DirectResetFreq ....    20
 Integral Threshold     Thresh          ....  2.500e-11 Eh
 Primitive CutOff       TCut            ....  2.500e-12 Eh

Convergence Tolerance:
 Convergence Check Mode ConvCheckMode   .... Total+1el-Energy
 Convergence forced     ConvForced      .... 0
 Energy Change          TolE            ....  1.000e-08 Eh
 1-El. energy change                    ....  1.000e-05 Eh
 Orbital Gradient       TolG            ....  1.000e-05
 Orbital Rotation angle TolX            ....  1.000e-05
 DIIS Error             TolErr          ....  5.000e-07


Diagonalization of the overlap matrix:
Smallest eigenvalue                        ... 6.483e-03
Time for diagonalization                   ...    0.003 sec
Threshold for overlap eigenvalues          ... 1.000e-08
Number of eigenvalues below threshold      ... 0
Time for construction of square roots      ...    0.138 sec
Total time needed                          ...    0.392 sec

--------------------------------
INITIAL GUESS: MINIMAL BASIS EHT
--------------------------------
The minimal basis has 18 functions
EHT matrix was diagonalized
Basis set overlap was calculated now projecting the orbitals
Using GuessMode=FMatrix for the initial guess
C*T matrix was formed
Effective Fockian was calculated
Effective Fockian was diagonalized
Initial density was built
                      ------------------
                      INITIAL GUESS DONE
                      ------------------
-------------------
DFT GRID GENERATION
-------------------

General Integration Accuracy     IntAcc      ... 4.959
Radial Grid Type                 RadialGrid  ... OptM3 with GC (2021)
Angular Grid (max. ang.)         AngularGrid ... 6 (Lebedev-590)
Angular grid pruning method      GridPruning ... 4 (adaptive)
Weight generation scheme         WeightScheme... Becke
Basis function cutoff            BFCut       ... 1.0000e-11
Integration weight cutoff        WCut        ... 1.0000e-14
Angular grids for H and He will be reduced by one unit
Partially contracted basis set               ... off
Rotationally invariant grid construction     ... off

Total number of grid points                  ...    70424
Total number of batches                      ...     1104
Average number of points per batch           ...       63
Average number of grid points per atom       ...    11737
Time for grid setup =    1.310 sec

--------------------
COSX GRID GENERATION
--------------------

GRIDX 1
-------
General Integration Accuracy     IntAcc      ... 4.020
Radial Grid Type                 RadialGrid  ... OptM3 with GC (2021)
Angular Grid (max. ang.)         AngularGrid ... 2 (Lebedev-110)
Angular grid pruning method      GridPruning ... 4 (adaptive)
Weight generation scheme         WeightScheme... Becke
Basis function cutoff            BFCut       ... 1.0000e-11
Integration weight cutoff        WCut        ... 1.0000e-14
Angular grids for H and He will be reduced by one unit
Partially contracted basis set               ... on
Rotationally invariant grid construction     ... off

Total number of grid points                  ...     7967
Total number of batches                      ...      128
Average number of points per batch           ...       62
Average number of grid points per atom       ...     1328
UseSFitting                                  ... on

GRIDX 2
-------
General Integration Accuracy     IntAcc      ... 4.338
Radial Grid Type                 RadialGrid  ... OptM3 with GC (2021)
Angular Grid (max. ang.)         AngularGrid ... 3 (Lebedev-194)
Angular grid pruning method      GridPruning ... 4 (adaptive)
Weight generation scheme         WeightScheme... Becke
Basis function cutoff            BFCut       ... 1.0000e-11
Integration weight cutoff        WCut        ... 1.0000e-14
Angular grids for H and He will be reduced by one unit
Partially contracted basis set               ... on
Rotationally invariant grid construction     ... off

Total number of grid points                  ...    17624
Total number of batches                      ...      278
Average number of points per batch           ...       63
Average number of grid points per atom       ...     2937
UseSFitting                                  ... on

GRIDX 3
-------
General Integration Accuracy     IntAcc      ... 4.871
Radial Grid Type                 RadialGrid  ... OptM3 with GC (2021)
Angular Grid (max. ang.)         AngularGrid ... 4 (Lebedev-302)
Angular grid pruning method      GridPruning ... 4 (adaptive)
Weight generation scheme         WeightScheme... Becke
Basis function cutoff            BFCut       ... 1.0000e-11
Integration weight cutoff        WCut        ... 1.0000e-14
Angular grids for H and He will be reduced by one unit
Partially contracted basis set               ... on
Rotationally invariant grid construction     ... off

Total number of grid points                  ...    34019
Total number of batches                      ...      535
Average number of points per batch           ...       63
Average number of grid points per atom       ...     5670
UseSFitting                                  ... on

Time for X-Grid setup             =    1.539 sec

--------------
SCF ITERATIONS
--------------
ITER       Energy         Delta-E        Max-DP      RMS-DP      [F,P]     Damp
               ***  Starting incremental Fock matrix formation  ***
  0   -176.8829795789   0.000000000000 0.18252614  0.01211010  0.6020596 0.7000
  1   -177.0987111425  -0.215731563600 0.11104013  0.00659163  0.2920261 0.7000
  2   -177.2073892205  -0.108678078012 0.05985806  0.00351721  0.2042854 0.7000
                               ***Turning on DIIS***
  3   -177.2821861441  -0.074796923603 0.03373916  0.00222624  0.1427971 0.7000
  4   -177.3357359376  -0.053549793452 0.07467879  0.00545130  0.0998912 0.0000
  5   -177.4632903748  -0.127554437224 0.01141157  0.00060268  0.0130890 0.0000
  6   -177.4635036744  -0.000213299591 0.00465796  0.00022993  0.0093777 0.0000
                      *** Initiating the SOSCF procedure ***
                           *** Shutting down DIIS ***
                      *** Re-Reading the Fockian *** 
                      *** Removing any level shift *** 
ITER      Energy       Delta-E        Grad      Rot      Max-DP    RMS-DP
  7   -177.46360935  -0.0001056746  0.001033  0.001033  0.001881  0.000076
               *** Restarting incremental Fock matrix formation ***
  8   -177.46363468  -0.0000253262  0.000284  0.000521  0.000806  0.000044
  9   -177.46363535  -0.0000006775  0.000240  0.000331  0.000565  0.000022
 10   -177.46363570  -0.0000003503  0.000043  0.000093  0.000119  0.000007
 11   -177.46363573  -0.0000000245  0.000006  0.000007  0.000012  0.000001
 12   -177.46363573  -0.0000000001  0.000004  0.000004  0.000006  0.000000
                 **** Energy Check signals convergence ****
              ***Rediagonalizing the Fockian in SOSCF/NRSCF***

               *****************************************************
               *                     SUCCESS                       *
               *           SCF CONVERGED AFTER  13 CYCLES          *
               *****************************************************

Old exchange energy                            =     -9.007969794 Eh
New exchange energy                            =     -9.007965214 Eh
Exchange energy change after final integration =      0.000004580 Eh
Total energy after final integration           =   -177.463631148 Eh
Final COS-X integration done in                =     0.605 sec

----------------
TOTAL SCF ENERGY
----------------

Total Energy       :         -177.46363115 Eh           -4829.03091 eV

Components:
Nuclear Repulsion  :           67.54811827 Eh            1838.07774 eV
Electronic Energy  :         -245.01174942 Eh           -6667.10865 eV
One Electron Energy:         -377.07931782 Eh          -10260.84989 eV
Two Electron Energy:          132.06756840 Eh            3593.74124 eV
Max COSX asymmetry :            0.00000162 Eh               0.00004 eV

Virial components:
Potential Energy   :         -353.76151059 Eh           -9626.34010 eV
Kinetic Energy     :          176.29787944 Eh            4797.30919 eV
Virial Ratio       :            2.00661240


DFT components:
N(Alpha)           :       11.999998699498 electrons
N(Beta)            :       11.999998699498 electrons
N(Total)           :       23.999997398997 electrons
E(X)               :      -11.986878562713 Eh       
E(C)               :       -1.054314940975 Eh       
E(XC)              :      -13.041193503688 Eh       
DFET-embed. en.    :        0.000000000000 Eh       

---------------
SCF CONVERGENCE
---------------

  Last Energy change         ...   -4.6447e-10  Tolerance :   1.0000e-08
  Last MAX-Density change    ...    7.7716e-16  Tolerance :   1.0000e-07
  Last RMS-Density change    ...    5.6805e-17  Tolerance :   5.0000e-09
  Last Orbital Gradient      ...    1.7399e-07  Tolerance :   1.0000e-05
  Last Orbital Rotation      ...    1.7856e-07  Tolerance :   1.0000e-05

             **** THE GBW FILE WAS UPDATED (pbeh-3c.gbw) ****
             **** DENSITY pbeh-3c.scfp WAS UPDATED ****
             **** ENERGY FILE WAS UPDATED (pbeh-3c.en.tmp) ****
             **** THE GBW FILE WAS UPDATED (pbeh-3c.gbw) ****
             **** DENSITY pbeh-3c.scfp WAS UPDATED ****
----------------
ORBITAL ENERGIES
----------------

  NO   OCC          E(Eh)            E(eV) 
   0   2.0000     -25.104250      -683.1214 
   1   2.0000     -10.532899      -286.6147 
   2   2.0000     -10.443542      -284.1832 
   3   2.0000      -1.345234       -36.6057 
   4   2.0000      -0.862586       -23.4722 
   5   2.0000      -0.684312       -18.6211 
   6   2.0000      -0.598758       -16.2930 
   7   2.0000      -0.550043       -14.9674 
   8   2.0000      -0.531224       -14.4553 
   9   2.0000      -0.470242       -12.7959 
  10   2.0000      -0.437270       -11.8987 
  11   2.0000      -0.312505        -8.5037 
  12   0.0000       0.043582         1.1859 
  13   0.0000       0.158919         4.3244 
  14   0.0000       0.180032         4.8989 
  15   0.0000       0.200344         5.4516 
  16   0.0000       0.295238         8.0338 
  17   0.0000       0.340943         9.2775 
  18   0.0000       0.498780        13.5725 
  19   0.0000       0.513547        13.9743 
  20   0.0000       0.568444        15.4681 
  21   0.0000       0.606406        16.5011 
  22   0.0000       0.607603        16.5337 
  23   0.0000       0.699492        19.0341 
  24   0.0000       0.851840        23.1797 
  25   0.0000       0.947397        25.7800 
  26   0.0000       1.037193        28.2234 
  27   0.0000       1.047858        28.5137 
  28   0.0000       1.089541        29.6479 
  29   0.0000       1.197472        32.5849 
  30   0.0000       1.219289        33.1785 
  31   0.0000       1.261553        34.3286 
  32   0.0000       1.270072        34.5604 
  33   0.0000       1.281742        34.8780 
  34   0.0000       1.337590        36.3977 
  35   0.0000       1.561079        42.4791 
  36   0.0000       1.646544        44.8047 
  37   0.0000       1.722871        46.8817 
  38   0.0000       1.890569        51.4450 
  39   0.0000       1.957457        53.2651 
  40   0.0000       2.041153        55.5426 
  41   0.0000       2.204105        59.9768 
  42   0.0000       2.214395        60.2567 
  43   0.0000       2.358276        64.1720 
  44   0.0000       2.500535        68.0430 
  45   0.0000       2.742969        74.6400 
  46   0.0000       2.876018        78.2604 
  47   0.0000       3.013445        82.0000 
  48   0.0000      13.445213       365.8628 
  49   0.0000      14.159352       385.2956 
  50   0.0000      32.792374       892.3259 

                    ********************************
                    * MULLIKEN POPULATION ANALYSIS *
                    ********************************

-----------------------
MULLIKEN ATOMIC CHARGES
-----------------------
   0 C :   -0.575127
   1 C :    0.205252
   2 H :    0.243077
   3 H :    0.232468
   4 H :    0.197849
   5 F :   -0.303519
Sum of atomic charges:    0.0000000

--------------------------------
MULLIKEN REDUCED ORBITAL CHARGES
--------------------------------
  0 C s       :     3.326279  s :     3.326279
      pz      :     1.082870  p :     3.218062
      px      :     1.043975
      py      :     1.091218
      dz2     :     0.004285  d :     0.030786
      dxz     :     0.004533
      dyz     :     0.001749
      dx2y2   :     0.010484
      dxy     :     0.009735
  1 C s       :     3.139248  s :     3.139248
      pz      :     0.974900  p :     2.579986
      px      :     0.702695
      py      :     0.902391
      dz2     :     0.005500  d :     0.075514
      dxz     :     0.015965
      dyz     :     0.002462
      dx2y2   :     0.027950
      dxy     :     0.023636
  2 H s       :     0.756923  s :     0.756923
  3 H s       :     0.767532  s :     0.767532
  4 H s       :     0.802151  s :     0.802151
  5 F s       :     3.904265  s :     3.904265
      pz      :     1.909494  p :     5.371405
      px      :     1.614707
      py      :     1.847204
      dz2     :     0.003225  d :     0.027850
      dxz     :     0.006534
      dyz     :     0.001492
      dx2y2   :     0.008750
      dxy     :     0.007847


                     *******************************
                     * LOEWDIN POPULATION ANALYSIS *
                     *******************************

----------------------
LOEWDIN ATOMIC CHARGES
----------------------
   0 C :   -0.325071
   1 C :    0.079459
   2 H :    0.149008
   3 H :    0.147595
   4 H :    0.122019
   5 F :   -0.173010

-------------------------------
LOEWDIN REDUCED ORBITAL CHARGES
-------------------------------
  0 C s       :     2.971691  s :     2.971691
      pz      :     1.073533  p :     3.291834
      px      :     1.104189
      py      :     1.114113
      dz2     :     0.006196  d :     0.061545
      dxz     :     0.007411
      dyz     :     0.002678
      dx2y2   :     0.022408
      dxy     :     0.022853
  1 C s       :     2.896599  s :     2.896599
      pz      :     0.954381  p :     2.846702
      px      :     0.884623
      py      :     1.007698
      dz2     :     0.012259  d :     0.177240
      dxz     :     0.036684
      dyz     :     0.004377
      dx2y2   :     0.067767
      dxy     :     0.056153
  2 H s       :     0.850992  s :     0.850992
  3 H s       :     0.852405  s :     0.852405
  4 H s       :     0.877981  s :     0.877981
  5 F s       :     3.709643  s :     3.709643
      pz      :     1.896011  p :     5.381083
      px      :     1.630835
      py      :     1.854237
      dz2     :     0.008292  d :     0.082284
      dxz     :     0.020767
      dyz     :     0.004158
      dx2y2   :     0.024577
      dxy     :     0.024490


                      *****************************
                      * MAYER POPULATION ANALYSIS *
                      *****************************

  NA   - Mulliken gross atomic population
  ZA   - Total nuclear charge
  QA   - Mulliken gross atomic charge
  VA   - Mayer's total valence
  BVA  - Mayer's bonded valence
  FA   - Mayer's free valence

  ATOM       NA         ZA         QA         VA         BVA        FA
  0 C      6.5751     6.0000    -0.5751     3.7670     3.7670     0.0000
  1 C      5.7947     6.0000     0.2053     3.7970     3.7970     0.0000
  2 H      0.7569     1.0000     0.2431     0.9157     0.9157     0.0000
  3 H      0.7675     1.0000     0.2325     0.9194     0.9194     0.0000
  4 H      0.8022     1.0000     0.1978     0.9095     0.9095    -0.0000
  5 F      9.3035     9.0000    -0.3035     1.1026     1.1026    -0.0000

  Mayer bond orders larger than 0.100000
B(  0-C ,  1-C ) :   1.8911 B(  0-C ,  2-H ) :   0.9172 B(  0-C ,  3-H ) :   0.9170 
B(  1-C ,  4-H ) :   0.9128 B(  1-C ,  5-F ) :   1.0105 

-------
TIMINGS
-------

Total SCF time: 0 days 0 hours 0 min 29 sec 

Total time                  ....      29.490 sec
Sum of individual times     ....      25.313 sec  ( 85.8%)

Fock matrix formation       ....      20.324 sec  ( 68.9%)
  Split-RI-J                ....       3.326 sec  ( 16.4% of F)
  Chain of spheres X        ....       4.354 sec  ( 21.4% of F)
  XC integration            ....       5.368 sec  ( 26.4% of F)
    Basis function eval.    ....       0.618 sec  ( 11.5% of XC)
    Density eval.           ....       0.506 sec  (  9.4% of XC)
    XC-Functional eval.     ....       0.545 sec  ( 10.2% of XC)
    XC-Potential eval.      ....       0.283 sec  (  5.3% of XC)
Diagonalization             ....       0.474 sec  (  1.6%)
Density matrix formation    ....       0.076 sec  (  0.3%)
Population analysis         ....       0.330 sec  (  1.1%)
Initial guess               ....       0.002 sec  (  0.0%)
Orbital Transformation      ....       0.000 sec  (  0.0%)
Orbital Orthonormalization  ....       0.000 sec  (  0.0%)
DIIS solution               ....       0.767 sec  (  2.6%)
SOSCF solution              ....       0.491 sec  (  1.7%)
Grid generation             ....       2.849 sec  (  9.7%)

Maximum memory used throughout the entire SCF-calculation: 45.5 MB


-------------------------------------------------------------------------------
                          DFT DISPERSION CORRECTION                            
                                                                               
                              DFTD3 V3.1  Rev 1                                
                          USING Becke-Johnson damping                          
-------------------------------------------------------------------------------
The PBEh-3c composite method is recognized
Using three-body term ABC
Active option DFTDOPT                   ...         4   

molecular C6(AA) [au] = 320.519266 


            DFT-D V3
 parameters
 s6 scaling factor         :     1.0000 
 a1 scaling factor         :     0.4860 
 s8 scaling factor         :     0.0000 
 a2 scaling factor         :     4.5000 
 Damping factor alpha9(ATM):    16.0000 
 ad hoc parameters k1-k3   :    16.0000     1.3333    -4.0000 

 Edisp/kcal,au: -0.851847956957  -0.001357505984 
 E6   /kcal   :  -0.852226503 
 E8   /kcal   :  -0.000000000 
 E6(ABC)      :   0.000378546 
 % E8         :   0.000000000 
 % E6(ABC)    :  -0.044438212 

-------------------------   ----------------
Dispersion correction           -0.001357506
-------------------------   ----------------

------------------   -----------------
gCP correction             0.009521486
------------------   -----------------

-------------------------   --------------------
FINAL SINGLE POINT ENERGY      -177.455467168421
-------------------------   --------------------


                            ***************************************
                            *     ORCA property calculations      *
                            ***************************************

                                    ---------------------
                                    Active property flags
                                    ---------------------
   (+) Dipole Moment


------------------------------------------------------------------------------
                       ORCA ELECTRIC PROPERTIES CALCULATION
------------------------------------------------------------------------------

Dipole Moment Calculation                       ... on
Quadrupole Moment Calculation                   ... off
Polarizability Calculation                      ... off
GBWName                                         ... pbeh-3c.gbw
Electron density                                ... pbeh-3c.scfp
The origin for moment calculation is the CENTER OF MASS  = (-0.000032, -0.000005  0.000000)

-------------
DIPOLE MOMENT
-------------
                                X             Y             Z
Electronic contribution:      3.82179       0.38248       0.00000
Nuclear contribution   :     -4.27068      -0.69108       0.00000
                        -----------------------------------------
Total Dipole Moment    :     -0.44889      -0.30859       0.00000
                        -----------------------------------------
Magnitude (a.u.)       :      0.54473
Magnitude (Debye)      :      1.38459



--------------------
Rotational spectrum 
--------------------
 
Rotational constants in cm-1:     2.173777     0.354642     0.304899 
Rotational constants in MHz : 65168.185869 10631.912291  9140.653550 

 Dipole components along the rotational axes: 
x,y,z [a.u.] :     0.448885    -0.308595     0.000000 
x,y,z [Debye]:     1.140975    -0.784387     0.000000 

 

Timings for individual modules:

Sum of individual times         ...       30.994 sec (=   0.517 min)
GTO integral calculation        ...        1.087 sec (=   0.018 min)   3.5 %
SCF iterations                  ...       29.907 sec (=   0.498 min)  96.5 %
                             ****ORCA TERMINATED NORMALLY****
TOTAL RUN TIME: 0 days 0 hours 0 minutes 32 seconds 843 msec
